 Entering Gaussian System, Link 0=g09
 Input=MOLECULE0-opt-2-3-7-8-311.com
 Output=MOLECULE0-opt-2-3-7-8-311.log
 Initial command:
 /opt/g09gh/gaussian/g09/l1.exe /scratch/bdw2292/Gau-MOLECULE0/Gau-87306.inp -scrdir=/scratch/bdw2292/Gau-MOLECULE0/
 Entering Link 1 = /opt/g09gh/gaussian/g09/l1.exe PID=     87307.
  
 Copyright (c) 1988,1990,1992,1993,1995,1998,2003,2009, Gaussian, Inc.
                  All Rights Reserved.
  
 This is part of the Gaussian(R) 09 program.  It is based on
 the Gaussian(R) 03 system (copyright 2003, Gaussian, Inc.),
 the Gaussian(R) 98 system (copyright 1998, Gaussian, Inc.),
 the Gaussian(R) 94 system (copyright 1995, Gaussian, Inc.),
 the Gaussian 92(TM) system (copyright 1992, Gaussian, Inc.),
 the Gaussian 90(TM) system (copyright 1990, Gaussian, Inc.),
 the Gaussian 88(TM) system (copyright 1988, Gaussian, Inc.),
 the Gaussian 86(TM) system (copyright 1986, Carnegie Mellon
 University), and the Gaussian 82(TM) system (copyright 1983,
 Carnegie Mellon University). Gaussian is a federally registered
 trademark of Gaussian, Inc.
  
 This software contains proprietary and confidential information,
 including trade secrets, belonging to Gaussian, Inc.
  
 This software is provided under written license and may be
 used, copied, transmitted, or stored only in accord with that
 written license.
  
 The following legend is applicable only to US Government
 contracts under FAR:
  
                    RESTRICTED RIGHTS LEGEND
  
 Use, reproduction and disclosure by the US Government is
 subject to restrictions as set forth in subparagraphs (a)
 and (c) of the Commercial Computer Software - Restricted
 Rights clause in FAR 52.227-19.
  
 Gaussian, Inc.
 340 Quinnipiac St., Bldg. 40, Wallingford CT 06492
  
  
 ---------------------------------------------------------------
 Warning -- This program may not be used in any manner that
 competes with the business of Gaussian, Inc. or will provide
 assistance to any competitor of Gaussian, Inc.  The licensee
 of this program is prohibited from giving any competitor of
 Gaussian, Inc. access to this program.  By using this program,
 the user acknowledges that Gaussian, Inc. is engaged in the
 business of creating and licensing software in the field of
 computational chemistry and represents and warrants to the
 licensee that it is not a competitor of Gaussian, Inc. and that
 it will not use this program in any manner prohibited above.
 ---------------------------------------------------------------
  

 Cite this work as:
 Gaussian 09, Revision A.02,
 M. J. Frisch, G. W. Trucks, H. B. Schlegel, G. E. Scuseria, 
 M. A. Robb, J. R. Cheeseman, G. Scalmani, V. Barone, B. Mennucci, 
 G. A. Petersson, H. Nakatsuji, M. Caricato, X. Li, H. P. Hratchian, 
 A. F. Izmaylov, J. Bloino, G. Zheng, J. L. Sonnenberg, M. Hada, 
 M. Ehara, K. Toyota, R. Fukuda, J. Hasegawa, M. Ishida, T. Nakajima, 
 Y. Honda, O. Kitao, H. Nakai, T. Vreven, J. A. Montgomery, Jr., 
 J. E. Peralta, F. Ogliaro, M. Bearpark, J. J. Heyd, E. Brothers, 
 K. N. Kudin, V. N. Staroverov, R. Kobayashi, J. Normand, 
 K. Raghavachari, A. Rendell, J. C. Burant, S. S. Iyengar, J. Tomasi, 
 M. Cossi, N. Rega, J. M. Millam, M. Klene, J. E. Knox, J. B. Cross, 
 V. Bakken, C. Adamo, J. Jaramillo, R. Gomperts, R. E. Stratmann, 
 O. Yazyev, A. J. Austin, R. Cammi, C. Pomelli, J. W. Ochterski, 
 R. L. Martin, K. Morokuma, V. G. Zakrzewski, G. A. Voth, 
 P. Salvador, J. J. Dannenberg, S. Dapprich, A. D. Daniels, 
 O. Farkas, J. B. Foresman, J. V. Ortiz, J. Cioslowski, 
 and D. J. Fox, Gaussian, Inc., Wallingford CT, 2009.
 
 ******************************************
 Gaussian 09:  EM64L-G09RevA.02 11-Jun-2009
                25-Mar-2020 
 ******************************************
 %RWF=/scratch/bdw2292/Gau-MOLECULE0/,100GB
 %Nosave
 %Chk=MOLECULE0-opt-2-3-7-8-311.chk
 %Mem=20GB
 %Nproc=6
 Will use up to    6 processors via shared memory.
 --------------------------------------------------
 #P opt=(,maxcycle=400) wB97XD/6-31G* MaxDisk=100GB
 --------------------------------------------------
 1/6=400,14=-1,18=20,19=15,26=3,38=1/1,3;
 2/9=110,12=2,17=6,18=5,40=1/2;
 3/5=1,6=6,7=1,11=2,16=1,25=1,30=1,71=1,74=-58/1,2,3;
 4//1;
 5/5=2,38=5/2;
 6/7=2,8=2,9=2,10=2,28=1/1;
 7//1,2,3,16;
 1/6=400,14=-1,18=20,19=15/3(2);
 2/9=110/2;
 99//99;
 2/9=110/2;
 3/5=1,6=6,7=1,11=2,16=1,25=1,30=1,71=1,74=-58/1,2,3;
 4/5=5,16=3/1;
 5/5=2,38=5/2;
 7//1,2,3,16;
 1/6=400,14=-1,18=20,19=15/3(-5);
 2/9=110/2;
 6/7=2,8=2,9=2,10=2,19=2,28=1/1;
 99/9=1/99;
 Leave Link    1 at Wed Mar 25 12:57:39 2020, MaxMem= 2684354560 cpu:       0.2
 (Enter /opt/g09gh/gaussian/g09/l101.exe)
 --------------------------------------------------------------
 MOLECULE0 Rotatable Bond Optimization on node37.bme.utexas.edu
 --------------------------------------------------------------
 Symbolic Z-matrix:
 Charge =  0 Multiplicity = 1
 C                    -0.50256   4.14073  -0.7167 
 C                     0.86111   4.12672  -0.39507 
 C                     1.6155    2.9632   -0.62586 
 C                     0.93228   1.86394  -1.19631 
 N                    -0.37244   1.85776  -1.50077 
 C                    -1.06803   2.98144  -1.26275 
 C                     3.06465   2.84348  -0.26627 
 C                     4.07562   3.75888  -0.58107 
 C                     5.3464    3.43025  -0.09125 
 N                     5.62634   2.33271   0.61069 
 C                     4.58768   1.50265   0.84532 
 N                     3.3401    1.73206   0.43326 
 N                     4.86004   0.34866   1.56388 
 C                     4.04111  -0.78546   1.93219 
 C                     4.66142  -1.99595   2.36579 
 C                     3.81425  -3.068     2.69789 
 C                     2.41723  -3.01952   2.61064 
 C                     1.82556  -1.82493   2.18974 
 C                     2.64323  -0.72925   1.87431 
 N                     0.42845  -1.58819   2.00654 
 C                    -0.65771  -2.4292    2.03355 
 C                    -1.96394  -1.85567   1.51744 
 C                    -2.01985  -0.95373   0.44087 
 C                    -3.23635  -0.39216   0.05192 
 C                    -4.43433  -0.70704   0.71915 
 C                    -4.37292  -1.6598    1.75465 
 C                    -3.16272  -2.24539   2.13519 
 C                    -5.73767   0.01112   0.36771 
 N                    -5.99969   1.32752   0.97983 
 C                    -5.25853   2.50929   0.48315 
 C                    -3.97393   2.85188   1.28099 
 N                    -4.18876   2.99314   2.73995 
 C                    -4.69906   4.28689   3.20832 
 C                    -4.88883   1.78588   3.24334 
 C                    -6.16742   1.40777   2.4495 
 O                    -0.60288  -3.5712    2.46126 
 C                     6.1665   -2.172     2.46723 
 H                    -1.11265   5.02159  -0.54097 
 H                     1.31704   5.0077    0.05176 
 H                     1.47041   0.93928  -1.39517 
 H                    -2.12544   2.94841  -1.52093 
 H                     3.9063    4.66456  -1.1518 
 H                     6.19211   4.09193  -0.27659 
 H                     5.84538   0.29746   1.77528 
 H                     4.2536   -4.00794   3.02921 
 H                     1.80009  -3.87766   2.84834 
 H                     2.18169   0.18948   1.54532 
 H                     0.21144  -0.63792   1.74035 
 H                    -1.10759  -0.68029  -0.08492 
 H                    -3.23693   0.3231   -0.77052 
 H                    -5.27876  -1.93955   2.29184 
 H                    -3.11967  -2.97613   2.93885 
 H                    -5.78303   0.1474   -0.72265 
 H                    -6.58083  -0.64      0.6407 
 H                    -5.08479   2.43417  -0.56229 
 H                    -6.21563   3.75901   0.68774 
 H                    -3.46525   4.14563   0.75461 
 H                    -3.15434   2.05938   1.11859 
 H                    -5.71453   4.46752   2.83835 
 H                    -4.04724   5.09776   2.86397 
 H                    -4.71406   4.31242   4.30394 
 H                    -5.11365   1.91241   4.35313 
 H                    -3.93778   0.65676   3.11257 
 H                    -7.19012   2.57176   2.73083 
 H                    -6.63569   0.4608    2.84512 
 H                     6.59976  -1.49352   3.21582 
 H                     6.66101  -1.9653    1.50748 
 H                     6.45991  -3.1904    2.75752 
 
 NAtoms=     68 NQM=     68 NQMF=      0 NMic=      0 NMicF=      0 NTot=     68.
                    Isotopes and Nuclear Properties:
 (Nuclear quadrupole moments (NQMom) in fm**2, nuclear magnetic moments (NMagM)
  in nuclear magnetons)

  Atom         1           2           3           4           5           6           7           8           9          10
 IAtWgt=          12          12          12          12          14          12          12          12          12          14
 AtmWgt=  12.0000000  12.0000000  12.0000000  12.0000000  14.0030740  12.0000000  12.0000000  12.0000000  12.0000000  14.0030740
 NucSpn=           0           0           0           0           2           0           0           0           0           2
 AtZEff=   0.0000000   0.0000000   0.0000000   0.0000000   0.0000000   0.0000000   0.0000000   0.0000000   0.0000000   0.0000000
 NQMom=    0.0000000   0.0000000   0.0000000   0.0000000   2.0440000   0.0000000   0.0000000   0.0000000   0.0000000   2.0440000
 NMagM=    0.0000000   0.0000000   0.0000000   0.0000000   0.4037610   0.0000000   0.0000000   0.0000000   0.0000000   0.4037610

  Atom        11          12          13          14          15          16          17          18          19          20
 IAtWgt=          12          14          14          12          12          12          12          12          12          14
 AtmWgt=  12.0000000  14.0030740  14.0030740  12.0000000  12.0000000  12.0000000  12.0000000  12.0000000  12.0000000  14.0030740
 NucSpn=           0           2           2           0           0           0           0           0           0           2
 AtZEff=   0.0000000   0.0000000   0.0000000   0.0000000   0.0000000   0.0000000   0.0000000   0.0000000   0.0000000   0.0000000
 NQMom=    0.0000000   2.0440000   2.0440000   0.0000000   0.0000000   0.0000000   0.0000000   0.0000000   0.0000000   2.0440000
 NMagM=    0.0000000   0.4037610   0.4037610   0.0000000   0.0000000   0.0000000   0.0000000   0.0000000   0.0000000   0.4037610

  Atom        21          22          23          24          25          26          27          28          29          30
 IAtWgt=          12          12          12          12          12          12          12          12          14          12
 AtmWgt=  12.0000000  12.0000000  12.0000000  12.0000000  12.0000000  12.0000000  12.0000000  12.0000000  14.0030740  12.0000000
 NucSpn=           0           0           0           0           0           0           0           0           2           0
 AtZEff=   0.0000000   0.0000000   0.0000000   0.0000000   0.0000000   0.0000000   0.0000000   0.0000000   0.0000000   0.0000000
 NQMom=    0.0000000   0.0000000   0.0000000   0.0000000   0.0000000   0.0000000   0.0000000   0.0000000   2.0440000   0.0000000
 NMagM=    0.0000000   0.0000000   0.0000000   0.0000000   0.0000000   0.0000000   0.0000000   0.0000000   0.4037610   0.0000000

  Atom        31          32          33          34          35          36          37          38          39          40
 IAtWgt=          12          14          12          12          12          16          12           1           1           1
 AtmWgt=  12.0000000  14.0030740  12.0000000  12.0000000  12.0000000  15.9949146  12.0000000   1.0078250   1.0078250   1.0078250
 NucSpn=           0           2           0           0           0           0           0           1           1           1
 AtZEff=   0.0000000   0.0000000   0.0000000   0.0000000   0.0000000   0.0000000   0.0000000   0.0000000   0.0000000   0.0000000
 NQMom=    0.0000000   2.0440000   0.0000000   0.0000000   0.0000000   0.0000000   0.0000000   0.0000000   0.0000000   0.0000000
 NMagM=    0.0000000   0.4037610   0.0000000   0.0000000   0.0000000   0.0000000   0.0000000   2.7928460   2.7928460   2.7928460

  Atom        41          42          43          44          45          46          47          48          49          50
 IAtWgt=           1           1           1           1           1           1           1           1           1           1
 AtmWgt=   1.0078250   1.0078250   1.0078250   1.0078250   1.0078250   1.0078250   1.0078250   1.0078250   1.0078250   1.0078250
 NucSpn=           1           1           1           1           1           1           1           1           1           1
 AtZEff=   0.0000000   0.0000000   0.0000000   0.0000000   0.0000000   0.0000000   0.0000000   0.0000000   0.0000000   0.0000000
 NQMom=    0.0000000   0.0000000   0.0000000   0.0000000   0.0000000   0.0000000   0.0000000   0.0000000   0.0000000   0.0000000
 NMagM=    2.7928460   2.7928460   2.7928460   2.7928460   2.7928460   2.7928460   2.7928460   2.7928460   2.7928460   2.7928460

  Atom        51          52          53          54          55          56          57          58          59          60
 IAtWgt=           1           1           1           1           1           1           1           1           1           1
 AtmWgt=   1.0078250   1.0078250   1.0078250   1.0078250   1.0078250   1.0078250   1.0078250   1.0078250   1.0078250   1.0078250
 NucSpn=           1           1           1           1           1           1           1           1           1           1
 AtZEff=   0.0000000   0.0000000   0.0000000   0.0000000   0.0000000   0.0000000   0.0000000   0.0000000   0.0000000   0.0000000
 NQMom=    0.0000000   0.0000000   0.0000000   0.0000000   0.0000000   0.0000000   0.0000000   0.0000000   0.0000000   0.0000000
 NMagM=    2.7928460   2.7928460   2.7928460   2.7928460   2.7928460   2.7928460   2.7928460   2.7928460   2.7928460   2.7928460

  Atom        61          62          63          64          65          66          67          68
 IAtWgt=           1           1           1           1           1           1           1           1
 AtmWgt=   1.0078250   1.0078250   1.0078250   1.0078250   1.0078250   1.0078250   1.0078250   1.0078250
 NucSpn=           1           1           1           1           1           1           1           1
 AtZEff=   0.0000000   0.0000000   0.0000000   0.0000000   0.0000000   0.0000000   0.0000000   0.0000000
 NQMom=    0.0000000   0.0000000   0.0000000   0.0000000   0.0000000   0.0000000   0.0000000   0.0000000
 NMagM=    2.7928460   2.7928460   2.7928460   2.7928460   2.7928460   2.7928460   2.7928460   2.7928460
 Leave Link  101 at Wed Mar 25 12:57:39 2020, MaxMem= 2684354560 cpu:       0.5
 (Enter /opt/g09gh/gaussian/g09/l103.exe)

 GradGradGradGradGradGradGradGradGradGradGradGradGradGradGradGradGradGrad
 Berny optimization.
 Initialization pass.
                           ----------------------------
                           !    Initial Parameters    !
                           ! (Angstroms and Degrees)  !
 --------------------------                            --------------------------
 ! Name  Definition              Value          Derivative Info.                !
 --------------------------------------------------------------------------------
 ! R1    R(1,2)                  1.4012         estimate D2E/DX2                !
 ! R2    R(1,6)                  1.4007         estimate D2E/DX2                !
 ! R3    R(1,38)                 1.0858         estimate D2E/DX2                !
 ! R4    R(2,3)                  1.4058         estimate D2E/DX2                !
 ! R5    R(2,39)                 1.088          estimate D2E/DX2                !
 ! R6    R(3,4)                  1.4144         estimate D2E/DX2                !
 ! R7    R(3,7)                  1.4979         estimate D2E/DX2                !
 ! R8    R(4,5)                  1.3398         estimate D2E/DX2                !
 ! R9    R(4,40)                 1.0882         estimate D2E/DX2                !
 ! R10   R(5,6)                  1.3428         estimate D2E/DX2                !
 ! R11   R(6,41)                 1.089          estimate D2E/DX2                !
 ! R12   R(7,8)                  1.3997         estimate D2E/DX2                !
 ! R13   R(7,12)                 1.3418         estimate D2E/DX2                !
 ! R14   R(8,9)                  1.401          estimate D2E/DX2                !
 ! R15   R(8,42)                 1.0838         estimate D2E/DX2                !
 ! R16   R(9,10)                 1.3325         estimate D2E/DX2                !
 ! R17   R(9,43)                 1.0897         estimate D2E/DX2                !
 ! R18   R(10,11)                1.3501         estimate D2E/DX2                !
 ! R19   R(11,12)                1.3338         estimate D2E/DX2                !
 ! R20   R(11,13)                1.3864         estimate D2E/DX2                !
 ! R21   R(13,14)                1.4466         estimate D2E/DX2                !
 ! R22   R(13,44)                1.0091         estimate D2E/DX2                !
 ! R23   R(14,15)                1.4276         estimate D2E/DX2                !
 ! R24   R(14,19)                1.4002         estimate D2E/DX2                !
 ! R25   R(15,16)                1.4062         estimate D2E/DX2                !
 ! R26   R(15,37)                1.5187         estimate D2E/DX2                !
 ! R27   R(16,17)                1.4006         estimate D2E/DX2                !
 ! R28   R(16,45)                1.0892         estimate D2E/DX2                !
 ! R29   R(17,18)                1.398          estimate D2E/DX2                !
 ! R30   R(17,46)                1.0834         estimate D2E/DX2                !
 ! R31   R(18,19)                1.4031         estimate D2E/DX2                !
 ! R32   R(18,20)                1.4288         estimate D2E/DX2                !
 ! R33   R(19,47)                1.0795         estimate D2E/DX2                !
 ! R34   R(20,21)                1.374          estimate D2E/DX2                !
 ! R35   R(20,48)                1.0104         estimate D2E/DX2                !
 ! R36   R(21,22)                1.5171         estimate D2E/DX2                !
 ! R37   R(21,36)                1.2207         estimate D2E/DX2                !
 ! R38   R(22,23)                1.4056         estimate D2E/DX2                !
 ! R39   R(22,27)                1.4038         estimate D2E/DX2                !
 ! R40   R(23,24)                1.3952         estimate D2E/DX2                !
 ! R41   R(23,49)                1.0879         estimate D2E/DX2                !
 ! R42   R(24,25)                1.4069         estimate D2E/DX2                !
 ! R43   R(24,50)                1.09           estimate D2E/DX2                !
 ! R44   R(25,26)                1.4085         estimate D2E/DX2                !
 ! R45   R(25,28)                1.529          estimate D2E/DX2                !
 ! R46   R(26,27)                1.3973         estimate D2E/DX2                !
 ! R47   R(26,51)                1.0897         estimate D2E/DX2                !
 ! R48   R(27,52)                1.0871         estimate D2E/DX2                !
 ! R49   R(28,29)                1.4752         estimate D2E/DX2                !
 ! R50   R(28,53)                1.0998         estimate D2E/DX2                !
 ! R51   R(28,54)                1.0997         estimate D2E/DX2                !
 ! R52   R(29,30)                1.4807         estimate D2E/DX2                !
 ! R53   R(29,35)                1.4814         estimate D2E/DX2                !
 ! R54   R(30,31)                1.5505         estimate D2E/DX2                !
 ! R55   R(30,55)                1.0624         estimate D2E/DX2                !
 ! R56   R(30,56)                1.5874         estimate D2E/DX2                !
 ! R57   R(31,32)                1.4814         estimate D2E/DX2                !
 ! R58   R(31,57)                1.4865         estimate D2E/DX2                !
 ! R59   R(31,58)                1.1516         estimate D2E/DX2                !
 ! R60   R(32,33)                1.4675         estimate D2E/DX2                !
 ! R61   R(32,34)                1.4836         estimate D2E/DX2                !
 ! R62   R(33,59)                1.0958         estimate D2E/DX2                !
 ! R63   R(33,60)                1.0959         estimate D2E/DX2                !
 ! R64   R(33,61)                1.096          estimate D2E/DX2                !
 ! R65   R(34,35)                1.5518         estimate D2E/DX2                !
 ! R66   R(34,62)                1.1394         estimate D2E/DX2                !
 ! R67   R(34,63)                1.4821         estimate D2E/DX2                !
 ! R68   R(35,64)                1.5748         estimate D2E/DX2                !
 ! R69   R(35,65)                1.1281         estimate D2E/DX2                !
 ! R70   R(37,66)                1.0993         estimate D2E/DX2                !
 ! R71   R(37,67)                1.0993         estimate D2E/DX2                !
 ! R72   R(37,68)                1.0989         estimate D2E/DX2                !
 ! A1    A(2,1,6)              118.3023         estimate D2E/DX2                !
 ! A2    A(2,1,38)             121.1845         estimate D2E/DX2                !
 ! A3    A(6,1,38)             120.5107         estimate D2E/DX2                !
 ! A4    A(1,2,3)              119.5296         estimate D2E/DX2                !
 ! A5    A(1,2,39)             119.6062         estimate D2E/DX2                !
 ! A6    A(3,2,39)             120.8479         estimate D2E/DX2                !
 ! A7    A(2,3,4)              116.7602         estimate D2E/DX2                !
 ! A8    A(2,3,7)              123.0874         estimate D2E/DX2                !
 ! A9    A(4,3,7)              120.1343         estimate D2E/DX2                !
 ! A10   A(3,4,5)              124.4461         estimate D2E/DX2                !
 ! A11   A(3,4,40)             119.6846         estimate D2E/DX2                !
 ! A12   A(5,4,40)             115.8577         estimate D2E/DX2                !
 ! A13   A(4,5,6)              117.4073         estimate D2E/DX2                !
 ! A14   A(1,6,5)              123.5439         estimate D2E/DX2                !
 ! A15   A(1,6,41)             120.6335         estimate D2E/DX2                !
 ! A16   A(5,6,41)             115.8226         estimate D2E/DX2                !
 ! A17   A(3,7,8)              126.3358         estimate D2E/DX2                !
 ! A18   A(3,7,12)             112.9516         estimate D2E/DX2                !
 ! A19   A(8,7,12)             120.7101         estimate D2E/DX2                !
 ! A20   A(7,8,9)              115.0308         estimate D2E/DX2                !
 ! A21   A(7,8,42)             123.5118         estimate D2E/DX2                !
 ! A22   A(9,8,42)             121.455          estimate D2E/DX2                !
 ! A23   A(8,9,10)             124.6053         estimate D2E/DX2                !
 ! A24   A(8,9,43)             120.137          estimate D2E/DX2                !
 ! A25   A(10,9,43)            115.2577         estimate D2E/DX2                !
 ! A26   A(9,10,11)            115.8684         estimate D2E/DX2                !
 ! A27   A(10,11,12)           124.067          estimate D2E/DX2                !
 ! A28   A(10,11,13)           116.7865         estimate D2E/DX2                !
 ! A29   A(12,11,13)           119.1463         estimate D2E/DX2                !
 ! A30   A(7,12,11)            119.7059         estimate D2E/DX2                !
 ! A31   A(11,13,14)           132.3232         estimate D2E/DX2                !
 ! A32   A(11,13,44)           110.0378         estimate D2E/DX2                !
 ! A33   A(14,13,44)           117.3676         estimate D2E/DX2                !
 ! A34   A(13,14,15)           119.7435         estimate D2E/DX2                !
 ! A35   A(13,14,19)           121.5464         estimate D2E/DX2                !
 ! A36   A(15,14,19)           118.7101         estimate D2E/DX2                !
 ! A37   A(14,15,16)           117.1549         estimate D2E/DX2                !
 ! A38   A(14,15,37)           123.3103         estimate D2E/DX2                !
 ! A39   A(16,15,37)           119.532          estimate D2E/DX2                !
 ! A40   A(15,16,17)           124.0446         estimate D2E/DX2                !
 ! A41   A(15,16,45)           119.1276         estimate D2E/DX2                !
 ! A42   A(17,16,45)           116.8192         estimate D2E/DX2                !
 ! A43   A(16,17,18)           118.0665         estimate D2E/DX2                !
 ! A44   A(16,17,46)           121.8092         estimate D2E/DX2                !
 ! A45   A(18,17,46)           120.1209         estimate D2E/DX2                !
 ! A46   A(17,18,19)           119.2325         estimate D2E/DX2                !
 ! A47   A(17,18,20)           126.4437         estimate D2E/DX2                !
 ! A48   A(19,18,20)           114.307          estimate D2E/DX2                !
 ! A49   A(14,19,18)           122.7628         estimate D2E/DX2                !
 ! A50   A(14,19,47)           118.2682         estimate D2E/DX2                !
 ! A51   A(18,19,47)           118.945          estimate D2E/DX2                !
 ! A52   A(18,20,21)           131.9934         estimate D2E/DX2                !
 ! A53   A(18,20,48)           113.5536         estimate D2E/DX2                !
 ! A54   A(21,20,48)           114.2716         estimate D2E/DX2                !
 ! A55   A(20,21,22)           116.2673         estimate D2E/DX2                !
 ! A56   A(20,21,36)           122.9581         estimate D2E/DX2                !
 ! A57   A(22,21,36)           120.7672         estimate D2E/DX2                !
 ! A58   A(21,22,23)           122.5074         estimate D2E/DX2                !
 ! A59   A(21,22,27)           118.7255         estimate D2E/DX2                !
 ! A60   A(23,22,27)           118.7665         estimate D2E/DX2                !
 ! A61   A(22,23,24)           120.4305         estimate D2E/DX2                !
 ! A62   A(22,23,49)           119.876          estimate D2E/DX2                !
 ! A63   A(24,23,49)           119.6882         estimate D2E/DX2                !
 ! A64   A(23,24,25)           121.3421         estimate D2E/DX2                !
 ! A65   A(23,24,50)           118.3562         estimate D2E/DX2                !
 ! A66   A(25,24,50)           120.2818         estimate D2E/DX2                !
 ! A67   A(24,25,26)           117.5759         estimate D2E/DX2                !
 ! A68   A(24,25,28)           120.7759         estimate D2E/DX2                !
 ! A69   A(26,25,28)           121.5912         estimate D2E/DX2                !
 ! A70   A(25,26,27)           121.4324         estimate D2E/DX2                !
 ! A71   A(25,26,51)           119.9909         estimate D2E/DX2                !
 ! A72   A(27,26,51)           118.5649         estimate D2E/DX2                !
 ! A73   A(22,27,26)           120.2282         estimate D2E/DX2                !
 ! A74   A(22,27,52)           118.5644         estimate D2E/DX2                !
 ! A75   A(26,27,52)           121.156          estimate D2E/DX2                !
 ! A76   A(25,28,29)           118.3684         estimate D2E/DX2                !
 ! A77   A(25,28,53)           108.7372         estimate D2E/DX2                !
 ! A78   A(25,28,54)           108.5658         estimate D2E/DX2                !
 ! A79   A(29,28,53)           107.0669         estimate D2E/DX2                !
 ! A80   A(29,28,54)           106.8069         estimate D2E/DX2                !
 ! A81   A(53,28,54)           106.73           estimate D2E/DX2                !
 ! A82   A(28,29,30)           118.9528         estimate D2E/DX2                !
 ! A83   A(28,29,35)           118.6924         estimate D2E/DX2                !
 ! A84   A(30,29,35)           110.2559         estimate D2E/DX2                !
 ! A85   A(29,30,31)           114.736          estimate D2E/DX2                !
 ! A86   A(29,30,55)           110.8229         estimate D2E/DX2                !
 ! A87   A(29,30,56)           106.4575         estimate D2E/DX2                !
 ! A88   A(31,30,55)           112.735          estimate D2E/DX2                !
 ! A89   A(31,30,56)           105.0264         estimate D2E/DX2                !
 ! A90   A(55,30,56)           106.3256         estimate D2E/DX2                !
 ! A91   A(30,31,32)           114.0591         estimate D2E/DX2                !
 ! A92   A(30,31,57)           107.0743         estimate D2E/DX2                !
 ! A93   A(30,31,58)           111.409          estimate D2E/DX2                !
 ! A94   A(32,31,57)           108.3836         estimate D2E/DX2                !
 ! A95   A(32,31,58)           107.9208         estimate D2E/DX2                !
 ! A96   A(57,31,58)           107.7861         estimate D2E/DX2                !
 ! A97   A(31,32,33)           116.6669         estimate D2E/DX2                !
 ! A98   A(31,32,34)           108.9652         estimate D2E/DX2                !
 ! A99   A(33,32,34)           116.4249         estimate D2E/DX2                !
 ! A100  A(32,33,59)           111.089          estimate D2E/DX2                !
 ! A101  A(32,33,60)           110.1937         estimate D2E/DX2                !
 ! A102  A(32,33,61)           110.1413         estimate D2E/DX2                !
 ! A103  A(59,33,60)           108.8532         estimate D2E/DX2                !
 ! A104  A(59,33,61)           108.7235         estimate D2E/DX2                !
 ! A105  A(60,33,61)           107.759          estimate D2E/DX2                !
 ! A106  A(32,34,35)           114.4262         estimate D2E/DX2                !
 ! A107  A(32,34,62)           109.4651         estimate D2E/DX2                !
 ! A108  A(32,34,63)           106.6916         estimate D2E/DX2                !
 ! A109  A(35,34,62)           111.2703         estimate D2E/DX2                !
 ! A110  A(35,34,63)           107.3353         estimate D2E/DX2                !
 ! A111  A(62,34,63)           107.2876         estimate D2E/DX2                !
 ! A112  A(29,35,34)           115.3052         estimate D2E/DX2                !
 ! A113  A(29,35,64)           106.906          estimate D2E/DX2                !
 ! A114  A(29,35,65)           110.4544         estimate D2E/DX2                !
 ! A115  A(34,35,64)           105.2839         estimate D2E/DX2                !
 ! A116  A(34,35,65)           111.5413         estimate D2E/DX2                !
 ! A117  A(64,35,65)           106.7528         estimate D2E/DX2                !
 ! A118  A(15,37,66)           111.3783         estimate D2E/DX2                !
 ! A119  A(15,37,67)           111.4508         estimate D2E/DX2                !
 ! A120  A(15,37,68)           112.935          estimate D2E/DX2                !
 ! A121  A(66,37,67)           107.5293         estimate D2E/DX2                !
 ! A122  A(66,37,68)           106.6706         estimate D2E/DX2                !
 ! A123  A(67,37,68)           106.5466         estimate D2E/DX2                !
 ! D1    D(6,1,2,3)             -0.028          estimate D2E/DX2                !
 ! D2    D(6,1,2,39)          -178.5741         estimate D2E/DX2                !
 ! D3    D(38,1,2,3)           179.4136         estimate D2E/DX2                !
 ! D4    D(38,1,2,39)            0.8675         estimate D2E/DX2                !
 ! D5    D(2,1,6,5)             -0.3113         estimate D2E/DX2                !
 ! D6    D(2,1,6,41)           179.6197         estimate D2E/DX2                !
 ! D7    D(38,1,6,5)          -179.7567         estimate D2E/DX2                !
 ! D8    D(38,1,6,41)            0.1743         estimate D2E/DX2                !
 ! D9    D(1,2,3,4)              0.755          estimate D2E/DX2                !
 ! D10   D(1,2,3,7)           -177.6956         estimate D2E/DX2                !
 ! D11   D(39,2,3,4)           179.2826         estimate D2E/DX2                !
 ! D12   D(39,2,3,7)             0.8321         estimate D2E/DX2                !
 ! D13   D(2,3,4,5)             -1.2888         estimate D2E/DX2                !
 ! D14   D(2,3,4,40)          -179.9969         estimate D2E/DX2                !
 ! D15   D(7,3,4,5)            177.2102         estimate D2E/DX2                !
 ! D16   D(7,3,4,40)            -1.498          estimate D2E/DX2                !
 ! D17   D(2,3,7,8)            -49.286          estimate D2E/DX2                !
 ! D18   D(2,3,7,12)           130.1302         estimate D2E/DX2                !
 ! D19   D(4,3,7,8)            132.3137         estimate D2E/DX2                !
 ! D20   D(4,3,7,12)           -48.2701         estimate D2E/DX2                !
 ! D21   D(3,4,5,6)              0.9806         estimate D2E/DX2                !
 ! D22   D(40,4,5,6)           179.7334         estimate D2E/DX2                !
 ! D23   D(4,5,6,1)             -0.1457         estimate D2E/DX2                !
 ! D24   D(4,5,6,41)           179.9202         estimate D2E/DX2                !
 ! D25   D(3,7,8,9)            178.1489         estimate D2E/DX2                !
 ! D26   D(3,7,8,42)            -1.2918         estimate D2E/DX2                !
 ! D27   D(12,7,8,9)            -1.2259         estimate D2E/DX2                !
 ! D28   D(12,7,8,42)          179.3334         estimate D2E/DX2                !
 ! D29   D(3,7,12,11)         -178.767          estimate D2E/DX2                !
 ! D30   D(8,7,12,11)            0.6861         estimate D2E/DX2                !
 ! D31   D(7,8,9,10)             0.8632         estimate D2E/DX2                !
 ! D32   D(7,8,9,43)          -179.1967         estimate D2E/DX2                !
 ! D33   D(42,8,9,10)         -179.6834         estimate D2E/DX2                !
 ! D34   D(42,8,9,43)            0.2567         estimate D2E/DX2                !
 ! D35   D(8,9,10,11)            0.0662         estimate D2E/DX2                !
 ! D36   D(43,9,10,11)        -179.8766         estimate D2E/DX2                !
 ! D37   D(9,10,11,12)          -0.7193         estimate D2E/DX2                !
 ! D38   D(9,10,11,13)         179.4396         estimate D2E/DX2                !
 ! D39   D(10,11,12,7)           0.3515         estimate D2E/DX2                !
 ! D40   D(13,11,12,7)        -179.811          estimate D2E/DX2                !
 ! D41   D(10,11,13,14)       -175.9095         estimate D2E/DX2                !
 ! D42   D(10,11,13,44)         -2.2149         estimate D2E/DX2                !
 ! D43   D(12,11,13,14)          4.2413         estimate D2E/DX2                !
 ! D44   D(12,11,13,44)        177.9359         estimate D2E/DX2                !
 ! D45   D(11,13,14,15)        163.1787         estimate D2E/DX2                !
 ! D46   D(11,13,14,19)        -16.7921         estimate D2E/DX2                !
 ! D47   D(44,13,14,15)        -10.1494         estimate D2E/DX2                !
 ! D48   D(44,13,14,19)        169.8798         estimate D2E/DX2                !
 ! D49   D(13,14,15,16)       -179.3912         estimate D2E/DX2                !
 ! D50   D(13,14,15,37)          0.0015         estimate D2E/DX2                !
 ! D51   D(19,14,15,16)          0.5804         estimate D2E/DX2                !
 ! D52   D(19,14,15,37)        179.9731         estimate D2E/DX2                !
 ! D53   D(13,14,19,18)        178.1792         estimate D2E/DX2                !
 ! D54   D(13,14,19,47)         -0.0203         estimate D2E/DX2                !
 ! D55   D(15,14,19,18)         -1.7919         estimate D2E/DX2                !
 ! D56   D(15,14,19,47)       -179.9913         estimate D2E/DX2                !
 ! D57   D(14,15,16,17)          0.8823         estimate D2E/DX2                !
 ! D58   D(14,15,16,45)        179.7832         estimate D2E/DX2                !
 ! D59   D(37,15,16,17)       -178.5344         estimate D2E/DX2                !
 ! D60   D(37,15,16,45)          0.3666         estimate D2E/DX2                !
 ! D61   D(14,15,37,66)         63.6481         estimate D2E/DX2                !
 ! D62   D(14,15,37,67)        -56.4401         estimate D2E/DX2                !
 ! D63   D(14,15,37,68)       -176.3419         estimate D2E/DX2                !
 ! D64   D(16,15,37,66)       -116.9729         estimate D2E/DX2                !
 ! D65   D(16,15,37,67)        122.9388         estimate D2E/DX2                !
 ! D66   D(16,15,37,68)          3.0371         estimate D2E/DX2                !
 ! D67   D(15,16,17,18)         -1.158          estimate D2E/DX2                !
 ! D68   D(15,16,17,46)        178.1677         estimate D2E/DX2                !
 ! D69   D(45,16,17,18)        179.9178         estimate D2E/DX2                !
 ! D70   D(45,16,17,46)         -0.7565         estimate D2E/DX2                !
 ! D71   D(16,17,18,19)         -0.0494         estimate D2E/DX2                !
 ! D72   D(16,17,18,20)        178.3731         estimate D2E/DX2                !
 ! D73   D(46,17,18,19)       -179.3869         estimate D2E/DX2                !
 ! D74   D(46,17,18,20)         -0.9644         estimate D2E/DX2                !
 ! D75   D(17,18,19,14)          1.5277         estimate D2E/DX2                !
 ! D76   D(17,18,19,47)        179.7155         estimate D2E/DX2                !
 ! D77   D(20,18,19,14)       -177.0799         estimate D2E/DX2                !
 ! D78   D(20,18,19,47)          1.1079         estimate D2E/DX2                !
 ! D79   D(17,18,20,21)         -8.1513         estimate D2E/DX2                !
 ! D80   D(17,18,20,48)        177.1228         estimate D2E/DX2                !
 ! D81   D(19,18,20,21)        170.3382         estimate D2E/DX2                !
 ! D82   D(19,18,20,48)         -4.3877         estimate D2E/DX2                !
 ! D83   D(18,20,21,22)       -168.0655         estimate D2E/DX2                !
 ! D84   D(18,20,21,36)         12.9187         estimate D2E/DX2                !
 ! D85   D(48,20,21,22)          6.6309         estimate D2E/DX2                !
 ! D86   D(48,20,21,36)       -172.3849         estimate D2E/DX2                !
 ! D87   D(20,21,22,23)         35.687          estimate D2E/DX2                !
 ! D88   D(20,21,22,27)       -144.597          estimate D2E/DX2                !
 ! D89   D(36,21,22,23)       -145.274          estimate D2E/DX2                !
 ! D90   D(36,21,22,27)         34.442          estimate D2E/DX2                !
 ! D91   D(21,22,23,24)       -176.2127         estimate D2E/DX2                !
 ! D92   D(21,22,23,49)          2.9507         estimate D2E/DX2                !
 ! D93   D(27,22,23,24)          4.0714         estimate D2E/DX2                !
 ! D94   D(27,22,23,49)       -176.7652         estimate D2E/DX2                !
 ! D95   D(21,22,27,26)        175.0607         estimate D2E/DX2                !
 ! D96   D(21,22,27,52)         -2.3629         estimate D2E/DX2                !
 ! D97   D(23,22,27,26)         -5.2125         estimate D2E/DX2                !
 ! D98   D(23,22,27,52)        177.3639         estimate D2E/DX2                !
 ! D99   D(22,23,24,25)          0.0452         estimate D2E/DX2                !
 ! D100  D(22,23,24,50)        178.4285         estimate D2E/DX2                !
 ! D101  D(49,23,24,25)       -179.1198         estimate D2E/DX2                !
 ! D102  D(49,23,24,50)         -0.7364         estimate D2E/DX2                !
 ! D103  D(23,24,25,26)         -2.9716         estimate D2E/DX2                !
 ! D104  D(23,24,25,28)        174.326          estimate D2E/DX2                !
 ! D105  D(50,24,25,26)        178.6759         estimate D2E/DX2                !
 ! D106  D(50,24,25,28)         -4.0265         estimate D2E/DX2                !
 ! D107  D(24,25,26,27)          1.8063         estimate D2E/DX2                !
 ! D108  D(24,25,26,51)       -179.4653         estimate D2E/DX2                !
 ! D109  D(28,25,26,27)       -175.4679         estimate D2E/DX2                !
 ! D110  D(28,25,26,51)          3.2604         estimate D2E/DX2                !
 ! D111  D(24,25,28,29)        -82.7955         estimate D2E/DX2                !
 ! D112  D(24,25,28,53)         39.5739         estimate D2E/DX2                !
 ! D113  D(24,25,28,54)        155.333          estimate D2E/DX2                !
 ! D114  D(26,25,28,29)         94.3923         estimate D2E/DX2                !
 ! D115  D(26,25,28,53)       -143.2383         estimate D2E/DX2                !
 ! D116  D(26,25,28,54)        -27.4792         estimate D2E/DX2                !
 ! D117  D(25,26,27,22)          2.2933         estimate D2E/DX2                !
 ! D118  D(25,26,27,52)        179.6491         estimate D2E/DX2                !
 ! D119  D(51,26,27,22)       -176.4526         estimate D2E/DX2                !
 ! D120  D(51,26,27,52)          0.9031         estimate D2E/DX2                !
 ! D121  D(25,28,29,30)         74.5798         estimate D2E/DX2                !
 ! D122  D(25,28,29,35)        -64.3441         estimate D2E/DX2                !
 ! D123  D(53,28,29,30)        -48.6272         estimate D2E/DX2                !
 ! D124  D(53,28,29,35)        172.4488         estimate D2E/DX2                !
 ! D125  D(54,28,29,30)       -162.6619         estimate D2E/DX2                !
 ! D126  D(54,28,29,35)         58.4141         estimate D2E/DX2                !
 ! D127  D(28,29,30,31)        -94.3997         estimate D2E/DX2                !
 ! D128  D(28,29,30,55)         34.6847         estimate D2E/DX2                !
 ! D129  D(28,29,30,56)        149.8947         estimate D2E/DX2                !
 ! D130  D(35,29,30,31)         47.6937         estimate D2E/DX2                !
 ! D131  D(35,29,30,55)        176.7782         estimate D2E/DX2                !
 ! D132  D(35,29,30,56)        -68.0119         estimate D2E/DX2                !
 ! D133  D(28,29,35,34)         95.6551         estimate D2E/DX2                !
 ! D134  D(28,29,35,64)       -147.7003         estimate D2E/DX2                !
 ! D135  D(28,29,35,65)        -31.9215         estimate D2E/DX2                !
 ! D136  D(30,29,35,34)        -46.5497         estimate D2E/DX2                !
 ! D137  D(30,29,35,64)         70.0949         estimate D2E/DX2                !
 ! D138  D(30,29,35,65)       -174.1263         estimate D2E/DX2                !
 ! D139  D(29,30,31,32)        -53.1469         estimate D2E/DX2                !
 ! D140  D(29,30,31,57)       -173.0437         estimate D2E/DX2                !
 ! D141  D(29,30,31,58)         69.3328         estimate D2E/DX2                !
 ! D142  D(55,30,31,32)        178.7256         estimate D2E/DX2                !
 ! D143  D(55,30,31,57)         58.8287         estimate D2E/DX2                !
 ! D144  D(55,30,31,58)        -58.7948         estimate D2E/DX2                !
 ! D145  D(56,30,31,32)         63.3816         estimate D2E/DX2                !
 ! D146  D(56,30,31,57)        -56.5152         estimate D2E/DX2                !
 ! D147  D(56,30,31,58)       -174.1387         estimate D2E/DX2                !
 ! D148  D(30,31,32,33)        -82.108          estimate D2E/DX2                !
 ! D149  D(30,31,32,34)         52.2524         estimate D2E/DX2                !
 ! D150  D(57,31,32,33)         37.0498         estimate D2E/DX2                !
 ! D151  D(57,31,32,34)        171.4102         estimate D2E/DX2                !
 ! D152  D(58,31,32,33)        153.5231         estimate D2E/DX2                !
 ! D153  D(58,31,32,34)        -72.1165         estimate D2E/DX2                !
 ! D154  D(31,32,33,59)         65.6402         estimate D2E/DX2                !
 ! D155  D(31,32,33,60)        -55.0814         estimate D2E/DX2                !
 ! D156  D(31,32,33,61)       -173.8359         estimate D2E/DX2                !
 ! D157  D(34,32,33,59)        -65.3316         estimate D2E/DX2                !
 ! D158  D(34,32,33,60)        173.9467         estimate D2E/DX2                !
 ! D159  D(34,32,33,61)         55.1922         estimate D2E/DX2                !
 ! D160  D(31,32,34,35)        -50.9945         estimate D2E/DX2                !
 ! D161  D(31,32,34,62)       -176.6635         estimate D2E/DX2                !
 ! D162  D(31,32,34,63)         67.5496         estimate D2E/DX2                !
 ! D163  D(33,32,34,35)         83.4893         estimate D2E/DX2                !
 ! D164  D(33,32,34,62)        -42.1797         estimate D2E/DX2                !
 ! D165  D(33,32,34,63)       -157.9666         estimate D2E/DX2                !
 ! D166  D(32,34,35,29)         50.5766         estimate D2E/DX2                !
 ! D167  D(32,34,35,64)        -66.9827         estimate D2E/DX2                !
 ! D168  D(32,34,35,65)        177.6056         estimate D2E/DX2                !
 ! D169  D(62,34,35,29)        175.2953         estimate D2E/DX2                !
 ! D170  D(62,34,35,64)         57.736          estimate D2E/DX2                !
 ! D171  D(62,34,35,65)        -57.6758         estimate D2E/DX2                !
 ! D172  D(63,34,35,29)        -67.6026         estimate D2E/DX2                !
 ! D173  D(63,34,35,64)        174.8382         estimate D2E/DX2                !
 ! D174  D(63,34,35,65)         59.4264         estimate D2E/DX2                !
 --------------------------------------------------------------------------------
 Trust Radius=3.00D-01 FncErr=1.00D-07 GrdErr=1.00D-06
 Number of steps in this run= 400 maximum allowed number of steps= 408.
 GradGradGradGradGradGradGradGradGradGradGradGradGradGradGradGradGradGrad

 Leave Link  103 at Wed Mar 25 12:57:39 2020, MaxMem= 2684354560 cpu:       0.1
 (Enter /opt/g09gh/gaussian/g09/l202.exe)
 Stoichiometry    C29H31N7O
 Framework group  C1[X(C29H31N7O)]
 Deg. of freedom   198
 Full point group                 C1      NOp   1
 Largest Abelian subgroup         C1      NOp   1
 Largest concise Abelian subgroup C1      NOp   1
                         Standard orientation:                         
 ---------------------------------------------------------------------
 Center     Atomic      Atomic             Coordinates (Angstroms)
 Number     Number       Type             X           Y           Z
 ---------------------------------------------------------------------
      1          6           0        0.652401   -3.885368   -0.519215
      2          6           0       -0.692537   -3.890665   -0.126323
      3          6           0       -1.585289   -2.968060   -0.698995
      4          6           0       -1.054393   -2.086017   -1.668897
      5          7           0        0.230206   -2.061600   -2.048677
      6          6           0        1.060150   -2.950406   -1.479138
      7          6           0       -3.026273   -2.870013   -0.301959
      8          6           0       -3.932288   -3.931938   -0.199136
      9          6           0       -5.216600   -3.575689    0.232636
     10          7           0       -5.600949   -2.332351    0.519093
     11          6           0       -4.659989   -1.375723    0.369710
     12          7           0       -3.407871   -1.614217   -0.022989
     13          7           0       -5.042917   -0.073277    0.651152
     14          6           0       -4.351485    1.191980    0.534639
     15          6           0       -5.095492    2.410221    0.555329
     16          6           0       -4.369900    3.607633    0.424987
     17          6           0       -2.980346    3.668491    0.260476
     18          6           0       -2.266235    2.466760    0.248055
     19          6           0       -2.959236    1.256311    0.400193
     20          7           0       -0.857538    2.318436    0.060657
     21          6           0        0.122668    3.215244   -0.289641
     22          6           0        1.470081    2.625770   -0.661840
     23          6           0        1.597162    1.407229   -1.350786
     24          6           0        2.858163    0.865769   -1.602185
     25          6           0        4.031538    1.515519   -1.177336
     26          6           0        3.891726    2.765914   -0.544273
     27          6           0        2.633884    3.327266   -0.309663
     28          6           0        5.398320    0.850770   -1.344603
     29          7           0        5.832464   -0.124946   -0.326878
     30          6           0        5.219727   -1.472939   -0.318812
     31          6           0        4.010328   -1.630158    0.638650
     32          7           0        4.286646   -1.215560    2.033798
     33          6           0        4.959986   -2.197561    2.891622
     34          6           0        4.855812    0.154460    2.025915
     35          6           0        6.055204    0.345485    1.060047
     36          8           0       -0.052208    4.423350   -0.290816
     37          6           0       -6.606832    2.462222    0.695700
     38          1           0        1.366977   -4.579647   -0.087527
     39          1           0       -1.027398   -4.592280    0.634757
     40          1           0       -1.703429   -1.352340   -2.142811
     41          1           0        2.097593   -2.908723   -1.807511
     42          1           0       -3.676078   -4.960932   -0.423158
     43          1           0       -5.984248   -4.339398    0.354576
     44          1           0       -6.020204   -0.046540    0.900919
     45          1           0       -4.905789    4.555821    0.433001
     46          1           0       -2.460976    4.610877    0.134268
     47          1           0       -2.403743    0.330823    0.385251
     48          1           0       -0.539053    1.362253    0.132995
     49          1           0        0.707023    0.874840   -1.678896
     50          1           0        2.916503   -0.093611   -2.116198
     51          1           0        4.775115    3.307628   -0.207295
     52          1           0        2.530975    4.290079    0.184400
     53          1           0        5.424588    0.336727   -2.316497
     54          1           0        6.167467    1.635937   -1.380873
     55          1           0        5.005137   -1.796185   -1.307874
     56          1           0        6.322970   -2.465040    0.245366
     57          1           0        3.640543   -3.069905    0.641938
     58          1           0        3.098596   -1.033650    0.265692
     59          1           0        5.977325   -2.398460    2.537585
     60          1           0        4.397232   -3.137832    2.904126
     61          1           0        5.012791   -1.825844    3.921331
     62          1           0        5.129191    0.458154    3.089507
     63          1           0        3.775091    1.061788    1.572816
     64          1           0        7.215940   -0.533029    1.660753
     65          1           0        6.421427    1.412457    1.060390
     66          1           0       -6.933355    2.059238    1.664940
     67          1           0       -7.103987    1.876764   -0.090717
     68          1           0       -7.008385    3.482796    0.627221
 ---------------------------------------------------------------------
 Rotational constants (GHZ):      0.1381650      0.0633234      0.0481198
 Leave Link  202 at Wed Mar 25 12:57:39 2020, MaxMem= 2684354560 cpu:       0.1
 (Enter /opt/g09gh/gaussian/g09/l301.exe)
 Standard basis: 6-31G(d) (6D, 7F)
 Ernie: Thresh=  0.10000D-02 Tol=  0.10000D-05 Strict=F.
 There are   617 symmetry adapted basis functions of A   symmetry.
 Integral buffers will be    131072 words long.
 Raffenetti 2 integral format.
 Two-electron integral symmetry is turned on.
   617 basis functions,  1160 primitive gaussians,   617 cartesian basis functions
   131 alpha electrons      131 beta electrons
       nuclear repulsion energy      3826.5881700762 Hartrees.
 IExCor= 4639 DFT=T Ex+Corr=wB97XD ExCW=0 ScaHFX=  1.000000
 ScaDFX=  1.000000  1.000000  1.000000  1.000000 ScalE2=  1.000000  1.000000
 IRadAn=      0 IRanWt=     -1 IRanGd=            0 ICorTp=0
  HFx wShort=  0.000000 wLong=  0.200000 cFull=  0.222036 cShort=  0.000000 cLong=  0.777964
  DFx wShort=  0.000000 wLong=  0.200000 cFull=  0.000000 cShort=  0.000000 cLong=  1.000000
 NAtoms=   68 NActive=   68 NUniq=   68 SFac= 7.50D-01 NAtFMM=   80 NAOKFM=F Big=T
 R6Disp: Dispersion energy =        -0.0598754936 Hartrees.
 Nuclear repulsion after empirical dispersion term =     3826.5282945826 Hartrees.
 Leave Link  301 at Wed Mar 25 12:57:39 2020, MaxMem= 2684354560 cpu:       0.3
 (Enter /opt/g09gh/gaussian/g09/l302.exe)
 NPDir=0 NMtPBC=     1 NCelOv=     1 NCel=       1 NClECP=     1 NCelD=      1
         NCelK=      1 NCelE2=     1 NClLst=     1 CellRange=     0.0.
 One-electron integrals computed using PRISM.
 NBasis=   617 RedAO= T  NBF=   617
 NBsUse=   617 1.00D-06 NBFU=   617
 Precomputing XC quadrature grid using
 IXCGrd= 2 IRadAn=           0 IRanWt=          -1 IRanGd=           0 AccXCQ= 1.00D-10.
 NRdTot=    4371 NPtTot=      558940 NUsed=      590434 NTot=      590466
 NSgBfM=   602   602   602   602   602 NAtAll=    68    68.
 Leave Link  302 at Wed Mar 25 12:57:41 2020, MaxMem= 2684354560 cpu:       7.6
 (Enter /opt/g09gh/gaussian/g09/l303.exe)
 DipDrv:  MaxL=1.
 Leave Link  303 at Wed Mar 25 12:57:41 2020, MaxMem= 2684354560 cpu:       0.7
 (Enter /opt/g09gh/gaussian/g09/l401.exe)
 Harris functional with IExCor= 4639 diagonalized for initial guess.
 ExpMin= 1.61D-01 ExpMax= 5.48D+03 ExpMxC= 8.25D+02 IAcc=1 IRadAn=         1 AccDes= 0.00D+00
 HarFok:  IExCor= 4639 AccDes= 0.00D+00 IRadAn=         1 IDoV= 1
 ScaDFX=  1.000000  1.000000  1.000000  1.000000
 FoFCou: FMM=F IPFlag=           0 FMFlag=      100000 FMFlg1=           1
         NFxFlg=           0 DoJE=T BraDBF=F KetDBF=T FulRan=T
         Omega=  0.000000  0.000000  1.000000  0.000000  0.000000 ICntrl=     500 IOpCl=  0
         NMat0=    1 NMatS0=    1 NMatT0=    0 NMatD0=    1 NMtDS0=    0 NMtDT0=    0
         I1Cent=           4 NGrid=           0.
 Petite list used in FoFCou.
 Harris En= -1512.40432962274    
 Initial guess orbital symmetries:
       Occupied  (A) (A) (A) (A) (A) (A) (A) (A) (A) (A) (A) (A)
                 (A) (A) (A) (A) (A) (A) (A) (A) (A) (A) (A) (A)
                 (A) (A) (A) (A) (A) (A) (A) (A) (A) (A) (A) (A)
                 (A) (A) (A) (A) (A) (A) (A) (A) (A) (A) (A) (A)
                 (A) (A) (A) (A) (A) (A) (A) (A) (A) (A) (A) (A)
                 (A) (A) (A) (A) (A) (A) (A) (A) (A) (A) (A) (A)
                 (A) (A) (A) (A) (A) (A) (A) (A) (A) (A) (A) (A)
                 (A) (A) (A) (A) (A) (A) (A) (A) (A) (A) (A) (A)
                 (A) (A) (A) (A) (A) (A) (A) (A) (A) (A) (A) (A)
                 (A) (A) (A) (A) (A) (A) (A) (A) (A) (A) (A) (A)
                 (A) (A) (A) (A) (A) (A) (A) (A) (A) (A) (A)
       Virtual   (A) (A) (A) (A) (A) (A) (A) (A) (A) (A) (A) (A)
                 (A) (A) (A) (A) (A) (A) (A) (A) (A) (A) (A) (A)
                 (A) (A) (A) (A) (A) (A) (A) (A) (A) (A) (A) (A)
                 (A) (A) (A) (A) (A) (A) (A) (A) (A) (A) (A) (A)
                 (A) (A) (A) (A) (A) (A) (A) (A) (A) (A) (A) (A)
                 (A) (A) (A) (A) (A) (A) (A) (A) (A) (A) (A) (A)
                 (A) (A) (A) (A) (A) (A) (A) (A) (A) (A) (A) (A)
                 (A) (A) (A) (A) (A) (A) (A) (A) (A) (A) (A) (A)
                 (A) (A) (A) (A) (A) (A) (A) (A) (A) (A) (A) (A)
                 (A) (A) (A) (A) (A) (A) (A) (A) (A) (A) (A) (A)
                 (A) (A) (A) (A) (A) (A) (A) (A) (A) (A) (A) (A)
                 (A) (A) (A) (A) (A) (A) (A) (A) (A) (A) (A) (A)
                 (A) (A) (A) (A) (A) (A) (A) (A) (A) (A) (A) (A)
                 (A) (A) (A) (A) (A) (A) (A) (A) (A) (A) (A) (A)
                 (A) (A) (A) (A) (A) (A) (A) (A) (A) (A) (A) (A)
                 (A) (A) (A) (A) (A) (A) (A) (A) (A) (A) (A) (A)
                 (A) (A) (A) (A) (A) (A) (A) (A) (A) (A) (A) (A)
                 (A) (A) (A) (A) (A) (A) (A) (A) (A) (A) (A) (A)
                 (A) (A) (A) (A) (A) (A) (A) (A) (A) (A) (A) (A)
                 (A) (A) (A) (A) (A) (A) (A) (A) (A) (A) (A) (A)
                 (A) (A) (A) (A) (A) (A) (A) (A) (A) (A) (A) (A)
                 (A) (A) (A) (A) (A) (A) (A) (A) (A) (A) (A) (A)
                 (A) (A) (A) (A) (A) (A) (A) (A) (A) (A) (A) (A)
                 (A) (A) (A) (A) (A) (A) (A) (A) (A) (A) (A) (A)
                 (A) (A) (A) (A) (A) (A) (A) (A) (A) (A) (A) (A)
                 (A) (A) (A) (A) (A) (A) (A) (A) (A) (A) (A) (A)
                 (A) (A) (A) (A) (A) (A) (A) (A) (A) (A) (A) (A)
                 (A) (A) (A) (A) (A) (A) (A) (A) (A) (A) (A) (A)
                 (A) (A) (A) (A) (A) (A) (A) (A) (A) (A) (A) (A)
                 (A) (A) (A) (A) (A) (A) (A) (A) (A) (A) (A) (A)
                 (A) (A) (A) (A) (A) (A) (A) (A) (A) (A) (A) (A)
                 (A) (A) (A) (A) (A) (A) (A) (A) (A) (A) (A) (A)
                 (A) (A) (A) (A) (A) (A) (A) (A) (A) (A) (A) (A)
                 (A) (A) (A) (A) (A) (A) (A) (A) (A) (A) (A) (A)
                 (A) (A) (A) (A) (A) (A) (A) (A) (A) (A) (A) (A)
                 (A) (A) (A) (A) (A) (A) (A) (A) (A) (A) (A) (A)
                 (A) (A) (A) (A) (A) (A) (A) (A) (A) (A) (A) (A)
                 (A) (A) (A) (A) (A) (A) (A) (A) (A) (A) (A) (A)
                 (A) (A) (A) (A) (A) (A) (A) (A) (A) (A) (A) (A)
                 (A) (A) (A) (A) (A) (A) (A) (A) (A) (A) (A) (A)
                 (A) (A) (A) (A) (A) (A)
 The electronic state of the initial guess is 1-A.
 Leave Link  401 at Wed Mar 25 12:57:44 2020, MaxMem= 2684354560 cpu:      15.4
 (Enter /opt/g09gh/gaussian/g09/l502.exe)
 Closed shell SCF:
 Requested convergence on RMS density matrix=1.00D-08 within 128 cycles.
 Requested convergence on MAX density matrix=1.00D-06.
 Requested convergence on             energy=1.00D-06.
 No special actions if energy rises.
 Using DIIS extrapolation, IDIIS=  1040.
 Integral symmetry usage will be decided dynamically.
       589809 words used for storage of precomputed grid.
 IEnd=     1758389 IEndB=     1758389 NGot=  2684354560 MDV=  2682994118
 LenX=  2682994118 LenY=  2682612812
 Fock matrices will be formed incrementally for  20 cycles.
 Integral accuracy reduced to 1.0D-05 until final iterations.

 Cycle   1  Pass 0  IDiag  1:
 FoFJK:  IHMeth= 1 ICntrl=     0 DoSepK=T KAlg= 1 I1Cent= 0 FoldK=F
 FoFCou: FMM=T IPFlag=           0 FMFlag=      100000 FMFlg1=           1
         NFxFlg=           0 DoJE=T BraDBF=F KetDBF=F FulRan=T
         Omega=  0.000000  0.000000  1.000000  0.000000  0.000000 ICntrl=     500 IOpCl=  0
         NMat0=    1 NMatS0=    1 NMatT0=    0 NMatD0=    1 NMtDS0=    0 NMtDT0=    0
         I1Cent=           0 NGrid=           0.
 Symmetry not used in FoFCou.
 FMM levels:  10  Number of levels for PrismC:   9
 E= -1581.16658427205    
 DIIS: error= 5.54D-02 at cycle   1 NSaved=   1.
 NSaved= 1 IEnMin= 1 EnMin= -1581.16658427205     IErMin= 1 ErrMin= 5.54D-02
 ErrMax= 5.54D-02 EMaxC= 1.00D-01 BMatC= 1.46D+00 BMatP= 1.46D+00
 IDIUse=3 WtCom= 4.46D-01 WtEn= 5.54D-01
 Coeff-Com:  0.100D+01
 Coeff-En:   0.100D+01
 Coeff:      0.100D+01
 Gap=     0.286 Goal=   None    Shift=    0.000
 GapD=    0.286 DampG=1.000 DampE=0.500 DampFc=0.5000 IDamp=-1.
 Damping current iteration by 5.00D-01
 RMSDP=1.87D-03 MaxDP=8.45D-02              OVMax= 1.69D-01

 Cycle   2  Pass 0  IDiag  1:
 RMSU=  6.61D-04    CP:  1.00D+00
 FoFJK:  IHMeth= 1 ICntrl=     0 DoSepK=T KAlg= 1 I1Cent= 0 FoldK=F
 E= -1581.34266628164     Delta-E=       -0.176082009585 Rises=F Damp=T
 DIIS: error= 2.78D-02 at cycle   2 NSaved=   2.
 NSaved= 2 IEnMin= 2 EnMin= -1581.34266628164     IErMin= 2 ErrMin= 2.78D-02
 ErrMax= 2.78D-02 EMaxC= 1.00D-01 BMatC= 3.22D-01 BMatP= 1.46D+00
 IDIUse=3 WtCom= 7.22D-01 WtEn= 2.78D-01
 Coeff-Com: -0.649D+00 0.165D+01
 Coeff-En:   0.000D+00 0.100D+01
 Coeff:     -0.469D+00 0.147D+01
 Gap=     0.293 Goal=   None    Shift=    0.000
 RMSDP=8.76D-04 MaxDP=3.66D-02 DE=-1.76D-01 OVMax= 1.22D-01

 Cycle   3  Pass 0  IDiag  1:
 RMSU=  5.70D-04    CP:  1.00D+00  1.37D+00
 FoFJK:  IHMeth= 1 ICntrl=     0 DoSepK=T KAlg= 1 I1Cent= 0 FoldK=F
 E= -1581.47002465920     Delta-E=       -0.127358377567 Rises=F Damp=F
 DIIS: error= 9.34D-03 at cycle   3 NSaved=   3.
 NSaved= 3 IEnMin= 3 EnMin= -1581.47002465920     IErMin= 3 ErrMin= 9.34D-03
 ErrMax= 9.34D-03 EMaxC= 1.00D-01 BMatC= 6.56D-02 BMatP= 3.22D-01
 IDIUse=3 WtCom= 9.07D-01 WtEn= 9.34D-02
 Coeff-Com: -0.367D+00 0.758D+00 0.609D+00
 Coeff-En:   0.000D+00 0.000D+00 0.100D+01
 Coeff:     -0.333D+00 0.688D+00 0.645D+00
 Gap=     0.278 Goal=   None    Shift=    0.000
 RMSDP=4.88D-04 MaxDP=3.25D-02 DE=-1.27D-01 OVMax= 6.22D-02

 Cycle   4  Pass 0  IDiag  1:
 RMSU=  1.44D-04    CP:  1.00D+00  1.67D+00  5.79D-01
 FoFJK:  IHMeth= 1 ICntrl=     0 DoSepK=T KAlg= 1 I1Cent= 0 FoldK=F
 E= -1581.52771263643     Delta-E=       -0.057687977231 Rises=F Damp=F
 DIIS: error= 2.05D-03 at cycle   4 NSaved=   4.
 NSaved= 4 IEnMin= 4 EnMin= -1581.52771263643     IErMin= 4 ErrMin= 2.05D-03
 ErrMax= 2.05D-03 EMaxC= 1.00D-01 BMatC= 4.17D-03 BMatP= 6.56D-02
 IDIUse=3 WtCom= 9.79D-01 WtEn= 2.05D-02
 Coeff-Com: -0.161D+00 0.329D+00 0.347D+00 0.485D+00
 Coeff-En:   0.000D+00 0.000D+00 0.000D+00 0.100D+01
 Coeff:     -0.158D+00 0.322D+00 0.340D+00 0.496D+00
 Gap=     0.270 Goal=   None    Shift=    0.000
 RMSDP=1.08D-04 MaxDP=9.04D-03 DE=-5.77D-02 OVMax= 1.05D-02

 Cycle   5  Pass 0  IDiag  1:
 RMSU=  4.55D-05    CP:  1.00D+00  1.65D+00  6.54D-01  7.15D-01
 FoFJK:  IHMeth= 1 ICntrl=     0 DoSepK=T KAlg= 1 I1Cent= 0 FoldK=F
 E= -1581.53135411638     Delta-E=       -0.003641479943 Rises=F Damp=F
 DIIS: error= 5.10D-04 at cycle   5 NSaved=   5.
 NSaved= 5 IEnMin= 5 EnMin= -1581.53135411638     IErMin= 5 ErrMin= 5.10D-04
 ErrMax= 5.10D-04 EMaxC= 1.00D-01 BMatC= 8.65D-05 BMatP= 4.17D-03
 IDIUse=3 WtCom= 9.95D-01 WtEn= 5.10D-03
 Coeff-Com: -0.129D-01 0.253D-01 0.508D-01 0.152D+00 0.785D+00
 Coeff-En:   0.000D+00 0.000D+00 0.000D+00 0.000D+00 0.100D+01
 Coeff:     -0.128D-01 0.252D-01 0.505D-01 0.151D+00 0.786D+00
 Gap=     0.269 Goal=   None    Shift=    0.000
 RMSDP=2.46D-05 MaxDP=2.55D-03 DE=-3.64D-03 OVMax= 2.96D-03

 Cycle   6  Pass 0  IDiag  1:
 RMSU=  1.33D-05    CP:  1.00D+00  1.65D+00  6.61D-01  7.82D-01  9.99D-01
 FoFJK:  IHMeth= 1 ICntrl=     0 DoSepK=T KAlg= 1 I1Cent= 0 FoldK=F
 E= -1581.53144101450     Delta-E=       -0.000086898120 Rises=F Damp=F
 DIIS: error= 2.82D-04 at cycle   6 NSaved=   6.
 NSaved= 6 IEnMin= 6 EnMin= -1581.53144101450     IErMin= 6 ErrMin= 2.82D-04
 ErrMax= 2.82D-04 EMaxC= 1.00D-01 BMatC= 2.73D-05 BMatP= 8.65D-05
 IDIUse=3 WtCom= 9.97D-01 WtEn= 2.82D-03
 Coeff-Com:  0.235D-01-0.486D-01-0.369D-01-0.161D-01 0.402D+00 0.676D+00
 Coeff-En:   0.000D+00 0.000D+00 0.000D+00 0.000D+00 0.000D+00 0.100D+01
 Coeff:      0.235D-01-0.485D-01-0.368D-01-0.160D-01 0.401D+00 0.677D+00
 Gap=     0.270 Goal=   None    Shift=    0.000
 RMSDP=1.30D-05 MaxDP=8.27D-04 DE=-8.69D-05 OVMax= 1.64D-03

 Cycle   7  Pass 0  IDiag  1:
 RMSU=  5.72D-06    CP:  1.00D+00  1.66D+00  6.64D-01  8.09D-01  1.12D+00
                    CP:  8.96D-01
 FoFJK:  IHMeth= 1 ICntrl=     0 DoSepK=T KAlg= 1 I1Cent= 0 FoldK=F
 E= -1581.53147136243     Delta-E=       -0.000030347933 Rises=F Damp=F
 DIIS: error= 7.69D-05 at cycle   7 NSaved=   7.
 NSaved= 7 IEnMin= 7 EnMin= -1581.53147136243     IErMin= 7 ErrMin= 7.69D-05
 ErrMax= 7.69D-05 EMaxC= 1.00D-01 BMatC= 1.76D-06 BMatP= 2.73D-05
 IDIUse=1 WtCom= 1.00D+00 WtEn= 0.00D+00
 Coeff-Com:  0.964D-02-0.197D-01-0.173D-01-0.205D-01 0.663D-01 0.238D+00
 Coeff-Com:  0.744D+00
 Coeff:      0.964D-02-0.197D-01-0.173D-01-0.205D-01 0.663D-01 0.238D+00
 Coeff:      0.744D+00
 Gap=     0.270 Goal=   None    Shift=    0.000
 RMSDP=4.13D-06 MaxDP=2.74D-04 DE=-3.03D-05 OVMax= 6.45D-04

 Initial convergence to 1.0D-05 achieved.  Increase integral accuracy.
 Cycle   8  Pass 1  IDiag  1:
 FoFJK:  IHMeth= 1 ICntrl=     0 DoSepK=T KAlg= 1 I1Cent= 0 FoldK=F
 E= -1581.52958686517     Delta-E=        0.001884497256 Rises=F Damp=F
 DIIS: error= 8.67D-05 at cycle   1 NSaved=   1.
 NSaved= 1 IEnMin= 1 EnMin= -1581.52958686517     IErMin= 1 ErrMin= 8.67D-05
 ErrMax= 8.67D-05 EMaxC= 1.00D-01 BMatC= 1.46D-05 BMatP= 1.46D-05
 IDIUse=1 WtCom= 1.00D+00 WtEn= 0.00D+00
 Coeff-Com:  0.100D+01
 Coeff:      0.100D+01
 Gap=     0.270 Goal=   None    Shift=    0.000
 RMSDP=4.13D-06 MaxDP=2.74D-04 DE= 1.88D-03 OVMax= 3.81D-04

 Cycle   9  Pass 1  IDiag  1:
 RMSU=  1.88D-05    CP:  1.00D+00
 FoFJK:  IHMeth= 1 ICntrl=     0 DoSepK=T KAlg= 1 I1Cent= 0 FoldK=F
 E= -1581.52959909385     Delta-E=       -0.000012228676 Rises=F Damp=F
 DIIS: error= 3.64D-05 at cycle   2 NSaved=   2.
 NSaved= 2 IEnMin= 2 EnMin= -1581.52959909385     IErMin= 2 ErrMin= 3.64D-05
 ErrMax= 3.64D-05 EMaxC= 1.00D-01 BMatC= 7.37D-07 BMatP= 1.46D-05
 IDIUse=1 WtCom= 1.00D+00 WtEn= 0.00D+00
 Coeff-Com:  0.163D-01 0.984D+00
 Coeff:      0.163D-01 0.984D+00
 Gap=     0.270 Goal=   None    Shift=    0.000
 RMSDP=3.25D-06 MaxDP=2.13D-04 DE=-1.22D-05 OVMax= 3.13D-04

 Cycle  10  Pass 1  IDiag  1:
 RMSU=  2.10D-06    CP:  1.00D+00  1.05D+00
 FoFJK:  IHMeth= 1 ICntrl=     0 DoSepK=T KAlg= 1 I1Cent= 0 FoldK=F
 E= -1581.52959917059     Delta-E=       -0.000000076740 Rises=F Damp=F
 DIIS: error= 4.05D-05 at cycle   3 NSaved=   3.
 NSaved= 3 IEnMin= 3 EnMin= -1581.52959917059     IErMin= 2 ErrMin= 3.64D-05
 ErrMax= 4.05D-05 EMaxC= 1.00D-01 BMatC= 9.11D-07 BMatP= 7.37D-07
 IDIUse=1 WtCom= 1.00D+00 WtEn= 0.00D+00
 Coeff-Com: -0.419D-01 0.547D+00 0.494D+00
 Coeff:     -0.419D-01 0.547D+00 0.494D+00
 Gap=     0.270 Goal=   None    Shift=    0.000
 RMSDP=1.58D-06 MaxDP=1.33D-04 DE=-7.67D-08 OVMax= 1.59D-04

 Cycle  11  Pass 1  IDiag  1:
 RMSU=  6.41D-07    CP:  1.00D+00  1.06D+00  5.69D-01
 FoFJK:  IHMeth= 1 ICntrl=     0 DoSepK=T KAlg= 1 I1Cent= 0 FoldK=F
 E= -1581.52959997466     Delta-E=       -0.000000804072 Rises=F Damp=F
 DIIS: error= 7.03D-06 at cycle   4 NSaved=   4.
 NSaved= 4 IEnMin= 4 EnMin= -1581.52959997466     IErMin= 4 ErrMin= 7.03D-06
 ErrMax= 7.03D-06 EMaxC= 1.00D-01 BMatC= 2.24D-08 BMatP= 7.37D-07
 IDIUse=1 WtCom= 1.00D+00 WtEn= 0.00D+00
 Coeff-Com: -0.158D-01 0.112D+00 0.163D+00 0.741D+00
 Coeff:     -0.158D-01 0.112D+00 0.163D+00 0.741D+00
 Gap=     0.270 Goal=   None    Shift=    0.000
 RMSDP=3.63D-07 MaxDP=3.59D-05 DE=-8.04D-07 OVMax= 3.65D-05

 Cycle  12  Pass 1  IDiag  1:
 RMSU=  2.22D-07    CP:  1.00D+00  1.06D+00  6.26D-01  1.06D+00
 FoFJK:  IHMeth= 1 ICntrl=     0 DoSepK=T KAlg= 1 I1Cent= 0 FoldK=F
 E= -1581.52959999757     Delta-E=       -0.000000022909 Rises=F Damp=F
 DIIS: error= 3.29D-06 at cycle   5 NSaved=   5.
 NSaved= 5 IEnMin= 5 EnMin= -1581.52959999757     IErMin= 5 ErrMin= 3.29D-06
 ErrMax= 3.29D-06 EMaxC= 1.00D-01 BMatC= 5.64D-09 BMatP= 2.24D-08
 IDIUse=1 WtCom= 1.00D+00 WtEn= 0.00D+00
 Coeff-Com:  0.535D-03-0.444D-01-0.132D-01 0.338D+00 0.719D+00
 Coeff:      0.535D-03-0.444D-01-0.132D-01 0.338D+00 0.719D+00
 Gap=     0.270 Goal=   None    Shift=    0.000
 RMSDP=1.91D-07 MaxDP=1.35D-05 DE=-2.29D-08 OVMax= 2.88D-05

 Cycle  13  Pass 1  IDiag  1:
 RMSU=  9.05D-08    CP:  1.00D+00  1.06D+00  6.43D-01  1.21D+00  9.10D-01
 FoFJK:  IHMeth= 1 ICntrl=     0 DoSepK=T KAlg= 1 I1Cent= 0 FoldK=F
 E= -1581.52960000481     Delta-E=       -0.000000007236 Rises=F Damp=F
 DIIS: error= 6.27D-07 at cycle   6 NSaved=   6.
 NSaved= 6 IEnMin= 6 EnMin= -1581.52960000481     IErMin= 6 ErrMin= 6.27D-07
 ErrMax= 6.27D-07 EMaxC= 1.00D-01 BMatC= 5.63D-10 BMatP= 5.64D-09
 IDIUse=1 WtCom= 1.00D+00 WtEn= 0.00D+00
 Coeff-Com:  0.203D-02-0.284D-01-0.239D-01 0.329D-01 0.261D+00 0.756D+00
 Coeff:      0.203D-02-0.284D-01-0.239D-01 0.329D-01 0.261D+00 0.756D+00
 Gap=     0.270 Goal=   None    Shift=    0.000
 RMSDP=8.08D-08 MaxDP=3.64D-06 DE=-7.24D-09 OVMax= 1.34D-05

 Cycle  14  Pass 1  IDiag  1:
 RMSU=  3.57D-08    CP:  1.00D+00  1.06D+00  6.47D-01  1.26D+00  1.04D+00
                    CP:  1.05D+00
 FoFJK:  IHMeth= 1 ICntrl=     0 DoSepK=T KAlg= 1 I1Cent= 0 FoldK=F
 E= -1581.52960000588     Delta-E=       -0.000000001077 Rises=F Damp=F
 DIIS: error= 3.45D-07 at cycle   7 NSaved=   7.
 NSaved= 7 IEnMin= 7 EnMin= -1581.52960000588     IErMin= 7 ErrMin= 3.45D-07
 ErrMax= 3.45D-07 EMaxC= 1.00D-01 BMatC= 1.16D-10 BMatP= 5.63D-10
 IDIUse=1 WtCom= 1.00D+00 WtEn= 0.00D+00
 Coeff-Com:  0.701D-03-0.310D-02-0.788D-02-0.577D-01-0.347D-01 0.305D+00
 Coeff-Com:  0.798D+00
 Coeff:      0.701D-03-0.310D-02-0.788D-02-0.577D-01-0.347D-01 0.305D+00
 Coeff:      0.798D+00
 Gap=     0.270 Goal=   None    Shift=    0.000
 RMSDP=4.37D-08 MaxDP=2.31D-06 DE=-1.08D-09 OVMax= 7.94D-06

 Cycle  15  Pass 1  IDiag  1:
 RMSU=  1.39D-08    CP:  1.00D+00  1.06D+00  6.51D-01  1.28D+00  1.09D+00
                    CP:  1.26D+00  1.05D+00
 FoFJK:  IHMeth= 1 ICntrl=     0 DoSepK=T KAlg= 1 I1Cent= 0 FoldK=F
 E= -1581.52960000621     Delta-E=       -0.000000000327 Rises=F Damp=F
 DIIS: error= 1.48D-07 at cycle   8 NSaved=   8.
 NSaved= 8 IEnMin= 8 EnMin= -1581.52960000621     IErMin= 8 ErrMin= 1.48D-07
 ErrMax= 1.48D-07 EMaxC= 1.00D-01 BMatC= 1.50D-11 BMatP= 1.16D-10
 IDIUse=1 WtCom= 1.00D+00 WtEn= 0.00D+00
 Coeff-Com: -0.749D-04 0.339D-02 0.120D-02-0.233D-01-0.482D-01-0.173D-01
 Coeff-Com:  0.263D+00 0.821D+00
 Coeff:     -0.749D-04 0.339D-02 0.120D-02-0.233D-01-0.482D-01-0.173D-01
 Coeff:      0.263D+00 0.821D+00
 Gap=     0.270 Goal=   None    Shift=    0.000
 RMSDP=1.71D-08 MaxDP=9.46D-07 DE=-3.27D-10 OVMax= 3.48D-06

 Cycle  16  Pass 1  IDiag  1:
 RMSU=  5.91D-09    CP:  1.00D+00  1.06D+00  6.51D-01  1.29D+00  1.10D+00
                    CP:  1.32D+00  1.23D+00  1.11D+00
 FoFJK:  IHMeth= 1 ICntrl=     0 DoSepK=T KAlg= 1 I1Cent= 0 FoldK=F
 E= -1581.52960000621     Delta-E=        0.000000000002 Rises=F Damp=F
 DIIS: error= 5.19D-08 at cycle   9 NSaved=   9.
 NSaved= 9 IEnMin= 8 EnMin= -1581.52960000621     IErMin= 9 ErrMin= 5.19D-08
 ErrMax= 5.19D-08 EMaxC= 1.00D-01 BMatC= 3.21D-12 BMatP= 1.50D-11
 IDIUse=1 WtCom= 1.00D+00 WtEn= 0.00D+00
 Coeff-Com: -0.155D-03 0.189D-02 0.196D-02 0.141D-02-0.131D-01-0.682D-01
 Coeff-Com: -0.485D-01 0.320D+00 0.804D+00
 Coeff:     -0.155D-03 0.189D-02 0.196D-02 0.141D-02-0.131D-01-0.682D-01
 Coeff:     -0.485D-01 0.320D+00 0.804D+00
 Gap=     0.270 Goal=   None    Shift=    0.000
 RMSDP=7.66D-09 MaxDP=4.05D-07 DE= 1.82D-12 OVMax= 1.49D-06

 SCF Done:  E(RwB97XD) =  -1581.52960001     A.U. after   16 cycles
             Convg  =    0.7660D-08             -V/T =  2.0109
 KE= 1.564412511206D+03 PE=-1.132132231979D+04 EE= 4.348851913993D+03
 Leave Link  502 at Wed Mar 25 13:00:30 2020, MaxMem= 2684354560 cpu:     995.1
 (Enter /opt/g09gh/gaussian/g09/l601.exe)
 Copying SCF densities to generalized density rwf, IOpCl= 0 IROHF=0.

 **********************************************************************

            Population analysis using the SCF density.

 **********************************************************************

 Orbital symmetries:
       Occupied  (A) (A) (A) (A) (A) (A) (A) (A) (A) (A) (A) (A)
                 (A) (A) (A) (A) (A) (A) (A) (A) (A) (A) (A) (A)
                 (A) (A) (A) (A) (A) (A) (A) (A) (A) (A) (A) (A)
                 (A) (A) (A) (A) (A) (A) (A) (A) (A) (A) (A) (A)
                 (A) (A) (A) (A) (A) (A) (A) (A) (A) (A) (A) (A)
                 (A) (A) (A) (A) (A) (A) (A) (A) (A) (A) (A) (A)
                 (A) (A) (A) (A) (A) (A) (A) (A) (A) (A) (A) (A)
                 (A) (A) (A) (A) (A) (A) (A) (A) (A) (A) (A) (A)
                 (A) (A) (A) (A) (A) (A) (A) (A) (A) (A) (A) (A)
                 (A) (A) (A) (A) (A) (A) (A) (A) (A) (A) (A) (A)
                 (A) (A) (A) (A) (A) (A) (A) (A) (A) (A) (A)
       Virtual   (A) (A) (A) (A) (A) (A) (A) (A) (A) (A) (A) (A)
                 (A) (A) (A) (A) (A) (A) (A) (A) (A) (A) (A) (A)
                 (A) (A) (A) (A) (A) (A) (A) (A) (A) (A) (A) (A)
                 (A) (A) (A) (A) (A) (A) (A) (A) (A) (A) (A) (A)
                 (A) (A) (A) (A) (A) (A) (A) (A) (A) (A) (A) (A)
                 (A) (A) (A) (A) (A) (A) (A) (A) (A) (A) (A) (A)
                 (A) (A) (A) (A) (A) (A) (A) (A) (A) (A) (A) (A)
                 (A) (A) (A) (A) (A) (A) (A) (A) (A) (A) (A) (A)
                 (A) (A) (A) (A) (A) (A) (A) (A) (A) (A) (A) (A)
                 (A) (A) (A) (A) (A) (A) (A) (A) (A) (A) (A) (A)
                 (A) (A) (A) (A) (A) (A) (A) (A) (A) (A) (A) (A)
                 (A) (A) (A) (A) (A) (A) (A) (A) (A) (A) (A) (A)
                 (A) (A) (A) (A) (A) (A) (A) (A) (A) (A) (A) (A)
                 (A) (A) (A) (A) (A) (A) (A) (A) (A) (A) (A) (A)
                 (A) (A) (A) (A) (A) (A) (A) (A) (A) (A) (A) (A)
                 (A) (A) (A) (A) (A) (A) (A) (A) (A) (A) (A) (A)
                 (A) (A) (A) (A) (A) (A) (A) (A) (A) (A) (A) (A)
                 (A) (A) (A) (A) (A) (A) (A) (A) (A) (A) (A) (A)
                 (A) (A) (A) (A) (A) (A) (A) (A) (A) (A) (A) (A)
                 (A) (A) (A) (A) (A) (A) (A) (A) (A) (A) (A) (A)
                 (A) (A) (A) (A) (A) (A) (A) (A) (A) (A) (A) (A)
                 (A) (A) (A) (A) (A) (A) (A) (A) (A) (A) (A) (A)
                 (A) (A) (A) (A) (A) (A) (A) (A) (A) (A) (A) (A)
                 (A) (A) (A) (A) (A) (A) (A) (A) (A) (A) (A) (A)
                 (A) (A) (A) (A) (A) (A) (A) (A) (A) (A) (A) (A)
                 (A) (A) (A) (A) (A) (A) (A) (A) (A) (A) (A) (A)
                 (A) (A) (A) (A) (A) (A) (A) (A) (A) (A) (A) (A)
                 (A) (A) (A) (A) (A) (A) (A) (A) (A) (A) (A) (A)
                 (A) (A) (A) (A) (A) (A) (A) (A) (A) (A) (A) (A)
                 (A) (A) (A) (A) (A) (A) (A) (A) (A) (A) (A) (A)
                 (A) (A) (A) (A) (A) (A) (A) (A) (A) (A) (A) (A)
                 (A) (A) (A) (A) (A) (A) (A) (A) (A) (A) (A) (A)
                 (A) (A) (A) (A) (A) (A) (A) (A) (A) (A) (A) (A)
                 (A) (A) (A) (A) (A) (A) (A) (A) (A) (A) (A) (A)
                 (A) (A) (A) (A) (A) (A) (A) (A) (A) (A) (A) (A)
                 (A) (A) (A) (A) (A) (A) (A) (A) (A) (A) (A) (A)
                 (A) (A) (A) (A) (A) (A) (A) (A) (A) (A) (A) (A)
                 (A) (A) (A) (A) (A) (A) (A) (A) (A) (A) (A) (A)
                 (A) (A) (A) (A) (A) (A) (A) (A) (A) (A) (A) (A)
                 (A) (A) (A) (A) (A) (A) (A) (A) (A) (A) (A) (A)
                 (A) (A) (A) (A) (A) (A)
 The electronic state is 1-A.
 Alpha  occ. eigenvalues --  -19.23567 -14.49586 -14.48898 -14.46906 -14.46578
 Alpha  occ. eigenvalues --  -14.46323 -14.45767 -14.44947 -10.42062 -10.40651
 Alpha  occ. eigenvalues --  -10.37881 -10.36858 -10.36550 -10.36347 -10.36324
 Alpha  occ. eigenvalues --  -10.36050 -10.35774 -10.35185 -10.35164 -10.34892
 Alpha  occ. eigenvalues --  -10.34438 -10.34089 -10.33901 -10.32793 -10.32241
 Alpha  occ. eigenvalues --  -10.32069 -10.31993 -10.31490 -10.31420 -10.31258
 Alpha  occ. eigenvalues --  -10.31240 -10.31198 -10.31165 -10.30368 -10.30189
 Alpha  occ. eigenvalues --  -10.29485 -10.29203  -1.13610  -1.11701  -1.05508
 Alpha  occ. eigenvalues --   -1.03778  -1.03758  -1.03137  -1.00239  -0.99809
 Alpha  occ. eigenvalues --   -0.96293  -0.94543  -0.92388  -0.89448  -0.88191
 Alpha  occ. eigenvalues --   -0.87100  -0.86442  -0.85146  -0.83994  -0.83813
 Alpha  occ. eigenvalues --   -0.82170  -0.79621  -0.78063  -0.77931  -0.75772
 Alpha  occ. eigenvalues --   -0.73518  -0.72941  -0.72394  -0.72070  -0.70871
 Alpha  occ. eigenvalues --   -0.70592  -0.69749  -0.68253  -0.66418  -0.64684
 Alpha  occ. eigenvalues --   -0.63163  -0.62329  -0.61500  -0.61258  -0.60064
 Alpha  occ. eigenvalues --   -0.58752  -0.58553  -0.57827  -0.56754  -0.56012
 Alpha  occ. eigenvalues --   -0.55796  -0.55602  -0.54834  -0.54345  -0.54147
 Alpha  occ. eigenvalues --   -0.53398  -0.53010  -0.52702  -0.52188  -0.52126
 Alpha  occ. eigenvalues --   -0.51491  -0.51287  -0.51233  -0.50971  -0.50369
 Alpha  occ. eigenvalues --   -0.50081  -0.50048  -0.49669  -0.49499  -0.48478
 Alpha  occ. eigenvalues --   -0.47396  -0.47328  -0.46566  -0.46468  -0.46140
 Alpha  occ. eigenvalues --   -0.45537  -0.44942  -0.44522  -0.44079  -0.43915
 Alpha  occ. eigenvalues --   -0.43569  -0.42843  -0.42341  -0.41048  -0.40695
 Alpha  occ. eigenvalues --   -0.40068  -0.38335  -0.37833  -0.37398  -0.36035
 Alpha  occ. eigenvalues --   -0.35469  -0.35058  -0.34190  -0.33987  -0.33267
 Alpha  occ. eigenvalues --   -0.33224  -0.32323  -0.31413  -0.29398  -0.27537
 Alpha  occ. eigenvalues --   -0.26392
 Alpha virt. eigenvalues --    0.00587   0.02700   0.03411   0.03918   0.05554
 Alpha virt. eigenvalues --    0.06093   0.07382   0.07661   0.09476   0.09605
 Alpha virt. eigenvalues --    0.11527   0.13533   0.14033   0.14482   0.15998
 Alpha virt. eigenvalues --    0.17022   0.17627   0.18497   0.18715   0.19126
 Alpha virt. eigenvalues --    0.19578   0.19911   0.20339   0.21088   0.22090
 Alpha virt. eigenvalues --    0.22525   0.22749   0.23024   0.23162   0.23585
 Alpha virt. eigenvalues --    0.23746   0.24152   0.24320   0.24338   0.24787
 Alpha virt. eigenvalues --    0.25094   0.25407   0.25937   0.26454   0.26814
 Alpha virt. eigenvalues --    0.27260   0.27447   0.28033   0.28203   0.28805
 Alpha virt. eigenvalues --    0.28929   0.29124   0.30284   0.30388   0.31335
 Alpha virt. eigenvalues --    0.31585   0.31773   0.32349   0.32583   0.33194
 Alpha virt. eigenvalues --    0.33413   0.34206   0.35524   0.36115   0.36554
 Alpha virt. eigenvalues --    0.37725   0.37798   0.38917   0.39291   0.39547
 Alpha virt. eigenvalues --    0.39785   0.40797   0.41020   0.41061   0.41714
 Alpha virt. eigenvalues --    0.42123   0.43133   0.44875   0.45882   0.46287
 Alpha virt. eigenvalues --    0.47962   0.48564   0.50557   0.52308   0.52830
 Alpha virt. eigenvalues --    0.55206   0.55533   0.56753   0.57373   0.57538
 Alpha virt. eigenvalues --    0.58102   0.58477   0.58731   0.59661   0.59950
 Alpha virt. eigenvalues --    0.60253   0.60833   0.61026   0.61463   0.62175
 Alpha virt. eigenvalues --    0.62355   0.62788   0.63077   0.63202   0.63879
 Alpha virt. eigenvalues --    0.64143   0.64329   0.64619   0.64933   0.65198
 Alpha virt. eigenvalues --    0.65503   0.65717   0.65946   0.66299   0.66341
 Alpha virt. eigenvalues --    0.66724   0.66951   0.67265   0.67961   0.68443
 Alpha virt. eigenvalues --    0.68630   0.69077   0.69296   0.69567   0.70266
 Alpha virt. eigenvalues --    0.70625   0.70876   0.71342   0.71531   0.72136
 Alpha virt. eigenvalues --    0.72359   0.72496   0.72674   0.72970   0.74034
 Alpha virt. eigenvalues --    0.74177   0.74651   0.75442   0.75900   0.75986
 Alpha virt. eigenvalues --    0.77736   0.77958   0.78488   0.79640   0.80228
 Alpha virt. eigenvalues --    0.80684   0.81163   0.81638   0.82501   0.82869
 Alpha virt. eigenvalues --    0.83455   0.84056   0.84688   0.85047   0.85778
 Alpha virt. eigenvalues --    0.86692   0.86802   0.87439   0.87668   0.88094
 Alpha virt. eigenvalues --    0.88972   0.89230   0.89480   0.89991   0.90362
 Alpha virt. eigenvalues --    0.90799   0.90961   0.91086   0.91521   0.92054
 Alpha virt. eigenvalues --    0.92585   0.93049   0.93191   0.93643   0.93799
 Alpha virt. eigenvalues --    0.94337   0.94382   0.94471   0.95003   0.95558
 Alpha virt. eigenvalues --    0.96241   0.96552   0.97079   0.97517   0.97855
 Alpha virt. eigenvalues --    0.98353   0.98646   0.99076   0.99765   1.00461
 Alpha virt. eigenvalues --    1.00752   1.00873   1.01781   1.02035   1.02652
 Alpha virt. eigenvalues --    1.03344   1.03541   1.04236   1.04761   1.05418
 Alpha virt. eigenvalues --    1.06353   1.07090   1.07184   1.07746   1.08319
[...]
                 (A) (A) (A) (A) (A) (A) (A) (A) (A) (A) (A) (A)
                 (A) (A) (A) (A) (A) (A) (A) (A) (A) (A) (A) (A)
                 (A) (A) (A) (A) (A) (A) (A) (A) (A) (A) (A) (A)
                 (A) (A) (A) (A) (A) (A) (A) (A) (A) (A) (A) (A)
                 (A) (A) (A) (A) (A) (A) (A) (A) (A) (A) (A) (A)
                 (A) (A) (A) (A) (A) (A) (A) (A) (A) (A) (A) (A)
                 (A) (A) (A) (A) (A) (A) (A) (A) (A) (A) (A) (A)
                 (A) (A) (A) (A) (A) (A) (A) (A) (A) (A) (A) (A)
                 (A) (A) (A) (A) (A) (A) (A) (A) (A) (A) (A) (A)
                 (A) (A) (A) (A) (A) (A) (A) (A) (A) (A) (A) (A)
                 (A) (A) (A) (A) (A) (A) (A) (A) (A) (A) (A) (A)
                 (A) (A) (A) (A) (A) (A) (A) (A) (A) (A) (A) (A)
                 (A) (A) (A) (A) (A) (A) (A) (A) (A) (A) (A) (A)
                 (A) (A) (A) (A) (A) (A) (A) (A) (A) (A) (A) (A)
                 (A) (A) (A) (A) (A) (A) (A) (A) (A) (A) (A) (A)
                 (A) (A) (A) (A) (A) (A) (A) (A) (A) (A) (A) (A)
                 (A) (A) (A) (A) (A) (A) (A) (A) (A) (A) (A) (A)
                 (A) (A) (A) (A) (A) (A) (A) (A) (A) (A) (A) (A)
                 (A) (A) (A) (A) (A) (A) (A) (A) (A) (A) (A) (A)
                 (A) (A) (A) (A) (A) (A)
 The electronic state is 1-A.
 Alpha  occ. eigenvalues --  -19.23412 -14.49282 -14.48320 -14.46751 -14.46095
 Alpha  occ. eigenvalues --  -14.45764 -14.43616 -14.43135 -10.41777 -10.40081
 Alpha  occ. eigenvalues --  -10.37614 -10.36337 -10.35325 -10.35084 -10.34623
 Alpha  occ. eigenvalues --  -10.34135 -10.34016 -10.33622 -10.32863 -10.32367
 Alpha  occ. eigenvalues --  -10.31860 -10.31493 -10.31177 -10.30936 -10.30707
 Alpha  occ. eigenvalues --  -10.30688 -10.30676 -10.30585 -10.30534 -10.30403
 Alpha  occ. eigenvalues --  -10.30377 -10.30220 -10.30020 -10.29974 -10.29575
 Alpha  occ. eigenvalues --  -10.28741 -10.28405  -1.13444  -1.12295  -1.06322
 Alpha  occ. eigenvalues --   -1.04565  -1.03829  -1.03633  -1.00715  -0.99558
 Alpha  occ. eigenvalues --   -0.96086  -0.94671  -0.93098  -0.89777  -0.88124
 Alpha  occ. eigenvalues --   -0.87388  -0.86228  -0.85400  -0.84542  -0.83783
 Alpha  occ. eigenvalues --   -0.81888  -0.79581  -0.78269  -0.77798  -0.76320
 Alpha  occ. eigenvalues --   -0.73881  -0.73301  -0.73025  -0.72620  -0.70870
 Alpha  occ. eigenvalues --   -0.70314  -0.69615  -0.68039  -0.66413  -0.65150
 Alpha  occ. eigenvalues --   -0.63656  -0.63408  -0.62228  -0.61762  -0.60211
 Alpha  occ. eigenvalues --   -0.58848  -0.58045  -0.57569  -0.56612  -0.56100
 Alpha  occ. eigenvalues --   -0.55817  -0.55237  -0.55134  -0.54965  -0.54255
 Alpha  occ. eigenvalues --   -0.53868  -0.53240  -0.53155  -0.52612  -0.52174
 Alpha  occ. eigenvalues --   -0.51912  -0.51509  -0.51371  -0.50999  -0.50575
 Alpha  occ. eigenvalues --   -0.50364  -0.50117  -0.49973  -0.49497  -0.48335
 Alpha  occ. eigenvalues --   -0.47217  -0.46906  -0.46619  -0.46319  -0.46211
 Alpha  occ. eigenvalues --   -0.45762  -0.45236  -0.44797  -0.44045  -0.43932
 Alpha  occ. eigenvalues --   -0.43327  -0.43016  -0.42141  -0.41766  -0.41439
 Alpha  occ. eigenvalues --   -0.40964  -0.40777  -0.39912  -0.38187  -0.37592
 Alpha  occ. eigenvalues --   -0.35821  -0.35293  -0.34001  -0.33447  -0.33373
 Alpha  occ. eigenvalues --   -0.32818  -0.31903  -0.30772  -0.29115  -0.27080
 Alpha  occ. eigenvalues --   -0.24996
 Alpha virt. eigenvalues --   -0.00292   0.02872   0.03587   0.04481   0.06434
 Alpha virt. eigenvalues --    0.07259   0.08203   0.10371   0.13887   0.14812
 Alpha virt. eigenvalues --    0.15729   0.16386   0.17252   0.17441   0.18251
 Alpha virt. eigenvalues --    0.19198   0.19759   0.20073   0.20198   0.20629
 Alpha virt. eigenvalues --    0.21233   0.21900   0.22614   0.22767   0.23135
 Alpha virt. eigenvalues --    0.23343   0.23536   0.24192   0.24361   0.24839
 Alpha virt. eigenvalues --    0.25117   0.25125   0.26082   0.26488   0.26551
 Alpha virt. eigenvalues --    0.27068   0.27431   0.27681   0.27996   0.28429
 Alpha virt. eigenvalues --    0.28563   0.28865   0.29437   0.29708   0.30282
 Alpha virt. eigenvalues --    0.31015   0.31166   0.31764   0.32124   0.32246
 Alpha virt. eigenvalues --    0.32892   0.33214   0.33674   0.33956   0.34427
 Alpha virt. eigenvalues --    0.35002   0.36038   0.36538   0.37755   0.38123
 Alpha virt. eigenvalues --    0.38652   0.38809   0.39300   0.40137   0.40738
 Alpha virt. eigenvalues --    0.41234   0.41464   0.42063   0.42207   0.42713
 Alpha virt. eigenvalues --    0.43815   0.45045   0.46209   0.47058   0.47330
 Alpha virt. eigenvalues --    0.48356   0.49428   0.51940   0.53014   0.54230
 Alpha virt. eigenvalues --    0.55739   0.56536   0.57255   0.57912   0.58308
 Alpha virt. eigenvalues --    0.59048   0.59371   0.59612   0.60510   0.60897
 Alpha virt. eigenvalues --    0.61370   0.61486   0.61680   0.62222   0.62697
 Alpha virt. eigenvalues --    0.63200   0.63356   0.63863   0.64089   0.64889
 Alpha virt. eigenvalues --    0.64933   0.65337   0.65508   0.65529   0.65821
 Alpha virt. eigenvalues --    0.66021   0.66273   0.66897   0.66982   0.67472
 Alpha virt. eigenvalues --    0.67615   0.67788   0.68307   0.68614   0.69044
 Alpha virt. eigenvalues --    0.69766   0.70018   0.70551   0.71043   0.71240
 Alpha virt. eigenvalues --    0.71762   0.72092   0.72269   0.72585   0.73055
 Alpha virt. eigenvalues --    0.73335   0.73462   0.74256   0.75226   0.75350
 Alpha virt. eigenvalues --    0.75595   0.75946   0.76255   0.76931   0.77677
 Alpha virt. eigenvalues --    0.77802   0.79110   0.80381   0.80455   0.81761
 Alpha virt. eigenvalues --    0.81971   0.82304   0.83131   0.83264   0.84192
 Alpha virt. eigenvalues --    0.84651   0.85715   0.86629   0.86887   0.87418
 Alpha virt. eigenvalues --    0.88278   0.89044   0.89675   0.90200   0.90739
 Alpha virt. eigenvalues --    0.90924   0.91156   0.91469   0.92208   0.92297
 Alpha virt. eigenvalues --    0.92394   0.92544   0.93563   0.93885   0.94048
 Alpha virt. eigenvalues --    0.94344   0.94529   0.94678   0.95250   0.95607
 Alpha virt. eigenvalues --    0.95950   0.96539   0.97598   0.98198   0.98361
 Alpha virt. eigenvalues --    0.98517   0.99010   0.99060   0.99703   0.99825
 Alpha virt. eigenvalues --    1.00452   1.00623   1.01373   1.01928   1.02026
 Alpha virt. eigenvalues --    1.02501   1.02652   1.03218   1.03673   1.04407
 Alpha virt. eigenvalues --    1.05620   1.05880   1.06648   1.06767   1.07380
 Alpha virt. eigenvalues --    1.07619   1.08219   1.08749   1.08899   1.09057
 Alpha virt. eigenvalues --    1.10207   1.10698   1.11030   1.11714   1.12089
 Alpha virt. eigenvalues --    1.12635   1.13098   1.13795   1.14268   1.15632
 Alpha virt. eigenvalues --    1.16460   1.16988   1.17693   1.18300   1.19273
 Alpha virt. eigenvalues --    1.20085   1.21184   1.21736   1.23133   1.23421
 Alpha virt. eigenvalues --    1.24747   1.25516   1.26099   1.26964   1.27424
 Alpha virt. eigenvalues --    1.29015   1.29350   1.29699   1.30408   1.30869
 Alpha virt. eigenvalues --    1.31929   1.33067   1.33763   1.33903   1.34765
 Alpha virt. eigenvalues --    1.35489   1.36940   1.37299   1.37889   1.38642
 Alpha virt. eigenvalues --    1.39290   1.42344   1.43370   1.43718   1.44590
 Alpha virt. eigenvalues --    1.46491   1.47299   1.47753   1.48442   1.48547
 Alpha virt. eigenvalues --    1.48651   1.49179   1.49465   1.50258   1.51633
 Alpha virt. eigenvalues --    1.51973   1.52737   1.53661   1.54083   1.54530
 Alpha virt. eigenvalues --    1.55184   1.55558   1.56281   1.56874   1.56985
 Alpha virt. eigenvalues --    1.57523   1.57806   1.58456   1.59180   1.59306
 Alpha virt. eigenvalues --    1.59659   1.60104   1.60816   1.61978   1.62521
 Alpha virt. eigenvalues --    1.63919   1.64937   1.65124   1.65692   1.67670
 Alpha virt. eigenvalues --    1.68407   1.69748   1.72017   1.75167   1.76232
 Alpha virt. eigenvalues --    1.78749   1.80599   1.81507   1.82526   1.84280
 Alpha virt. eigenvalues --    1.84720   1.85643   1.86428   1.86959   1.87887
 Alpha virt. eigenvalues --    1.87958   1.88946   1.89940   1.90638   1.90826
 Alpha virt. eigenvalues --    1.91212   1.92461   1.92804   1.93433   1.94262
 Alpha virt. eigenvalues --    1.94426   1.94938   1.95571   1.96613   1.97937
 Alpha virt. eigenvalues --    1.98716   1.99605   2.00119   2.00240   2.01198
 Alpha virt. eigenvalues --    2.01309   2.01498   2.01784   2.02573   2.03680
 Alpha virt. eigenvalues --    2.05535   2.06500   2.06639   2.07329   2.08212
 Alpha virt. eigenvalues --    2.08610   2.08851   2.09737   2.10837   2.11393
 Alpha virt. eigenvalues --    2.12241   2.12581   2.13556   2.14169   2.14816
 Alpha virt. eigenvalues --    2.15877   2.16188   2.17690   2.19549   2.20431
 Alpha virt. eigenvalues --    2.21104   2.21283   2.21690   2.22407   2.22785
 Alpha virt. eigenvalues --    2.22978   2.23634   2.23943   2.24605   2.25136
 Alpha virt. eigenvalues --    2.25946   2.26148   2.26370   2.26889   2.28051
 Alpha virt. eigenvalues --    2.28545   2.29389   2.29955   2.31587   2.32594
 Alpha virt. eigenvalues --    2.34097   2.34929   2.36378   2.37132   2.37173
 Alpha virt. eigenvalues --    2.37913   2.38061   2.38211   2.39475   2.39885
 Alpha virt. eigenvalues --    2.40252   2.40814   2.42122   2.42798   2.43234
 Alpha virt. eigenvalues --    2.43391   2.44330   2.44781   2.44889   2.46222
 Alpha virt. eigenvalues --    2.46455   2.47883   2.48103   2.49419   2.49810
 Alpha virt. eigenvalues --    2.50304   2.50934   2.52049   2.53873   2.56002
 Alpha virt. eigenvalues --    2.58458   2.59878   2.60858   2.62125   2.63404
 Alpha virt. eigenvalues --    2.64707   2.65084   2.65955   2.66090   2.67625
 Alpha virt. eigenvalues --    2.68704   2.70009   2.71802   2.72053   2.72667
 Alpha virt. eigenvalues --    2.74010   2.74385   2.75465   2.76174   2.76862
 Alpha virt. eigenvalues --    2.77170   2.78480   2.78950   2.80940   2.81726
 Alpha virt. eigenvalues --    2.82743   2.83151   2.83725   2.84485   2.85528
 Alpha virt. eigenvalues --    2.86031   2.86478   2.87314   2.88412   2.89258
 Alpha virt. eigenvalues --    2.89964   2.91948   2.92699   2.93389   2.94566
 Alpha virt. eigenvalues --    2.94835   2.96132   2.97875   3.01371   3.02992
 Alpha virt. eigenvalues --    3.04140   3.06693   3.09290   3.10084   3.12016
 Alpha virt. eigenvalues --    3.18947   3.26894   3.29153   3.39167   3.41513
 Alpha virt. eigenvalues --    3.45038   3.53453   3.56407   3.57586   4.12661
 Alpha virt. eigenvalues --    4.13539   4.15201   4.16852   4.18260   4.19133
 Alpha virt. eigenvalues --    4.19561   4.20439   4.21989   4.23543   4.25283
 Alpha virt. eigenvalues --    4.26032   4.27468   4.28701   4.30759   4.31718
 Alpha virt. eigenvalues --    4.33380   4.34589   4.36932   4.40131   4.40368
 Alpha virt. eigenvalues --    4.41613   4.44510   4.46127   4.49151   4.49439
 Alpha virt. eigenvalues --    4.49748   4.52845   4.57341   4.60741   4.61921
 Alpha virt. eigenvalues --    4.64162   4.67475   4.69409   4.79024   4.85078
 Alpha virt. eigenvalues --    4.89514
          Condensed to atoms (all electrons):
 Mulliken atomic charges:
              1
     1  C   -0.197846
     2  C   -0.154401
     3  C    0.035490
     4  C    0.009579
     5  N   -0.437530
     6  C    0.035733
     7  C    0.295171
     8  C   -0.254767
     9  C    0.049025
    10  N   -0.493041
    11  C    0.714356
    12  N   -0.568410
    13  N   -0.802044
    14  C    0.291470
    15  C    0.119870
    16  C   -0.240381
    17  C   -0.191294
    18  C    0.358013
    19  C   -0.269614
    20  N   -0.757830
    21  C    0.585618
    22  C    0.015201
    23  C   -0.205335
    24  C   -0.217889
    25  C    0.155961
    26  C   -0.223074
    27  C   -0.178376
    28  C   -0.263559
    29  N   -0.382225
    30  C   -0.183907
    31  C   -0.181770
    32  N   -0.385718
    33  C   -0.349278
    34  C   -0.182639
    35  C   -0.186511
    36  O   -0.513247
    37  C   -0.607356
    38  H    0.186141
    39  H    0.186720
    40  H    0.198146
    41  H    0.179042
    42  H    0.180737
    43  H    0.189489
    44  H    0.369212
    45  H    0.160822
    46  H    0.213090
    47  H    0.199340
    48  H    0.361543
    49  H    0.185453
    50  H    0.172072
    51  H    0.163616
    52  H    0.195594
    53  H    0.170281
    54  H    0.168916
    55  H    0.148149
    56  H    0.158348
    57  H    0.141676
    58  H    0.174891
    59  H    0.135264
    60  H    0.164120
    61  H    0.167871
    62  H    0.153491
    63  H    0.172910
    64  H    0.159432
    65  H    0.154995
    66  H    0.178037
    67  H    0.182743
    68  H    0.190417
 Sum of Mulliken atomic charges =   0.00000
 Mulliken charges with hydrogens summed into heavy atoms:
              1
     1  C   -0.011705
     2  C    0.032320
     3  C    0.035490
     4  C    0.207725
     5  N   -0.437530
     6  C    0.214776
     7  C    0.295171
     8  C   -0.074030
     9  C    0.238514
    10  N   -0.493041
    11  C    0.714356
    12  N   -0.568410
    13  N   -0.432833
    14  C    0.291470
    15  C    0.119870
    16  C   -0.079559
    17  C    0.021796
    18  C    0.358013
    19  C   -0.070274
    20  N   -0.396287
    21  C    0.585618
    22  C    0.015201
    23  C   -0.019882
    24  C   -0.045817
    25  C    0.155961
    26  C   -0.059458
    27  C    0.017218
    28  C    0.075637
    29  N   -0.382225
    30  C    0.122590
    31  C    0.134797
    32  N   -0.385718
    33  C    0.117976
    34  C    0.143762
    35  C    0.127915
    36  O   -0.513247
    37  C   -0.056158
 Sum of Mulliken charges with hydrogens summed into heavy atoms =   0.00000
 Electronic spatial extent (au):  <R**2>=          21211.2757
 Charge=              0.0000 electrons
 Dipole moment (field-independent basis, Debye):
    X=              0.5795    Y=              6.5717    Z=              0.4343  Tot=              6.6114
 Quadrupole moment (field-independent basis, Debye-Ang):
   XX=           -193.2966   YY=           -202.5048   ZZ=           -220.4891
   XY=              3.1086   XZ=             -1.2825   YZ=             -5.2195
 Traceless Quadrupole moment (field-independent basis, Debye-Ang):
   XX=             12.1335   YY=              2.9254   ZZ=            -15.0589
   XY=              3.1086   XZ=             -1.2825   YZ=             -5.2195
 Octapole moment (field-independent basis, Debye-Ang**2):
  XXX=             80.0192  YYY=            204.3937  ZZZ=             11.3377  XYY=             33.3861
  XXY=            -43.1444  XXZ=             31.6237  XZZ=            -22.7123  YZZ=              1.3485
  YYZ=             17.7394  XYZ=              2.3029
 Hexadecapole moment (field-independent basis, Debye-Ang**3):
 XXXX=         -18569.2841 YYYY=          -7865.0335 ZZZZ=          -1607.2305 XXXY=            -51.0623
 XXXZ=           -103.1060 YYYX=            149.2379 YYYZ=            -76.2837 ZZZX=            -50.0019
 ZZZY=             15.0228 XXYY=          -4005.3914 XXZZ=          -3409.1138 YYZZ=          -1721.4426
 XXYZ=            -52.5351 YYXZ=            -15.9367 ZZXY=            -24.5642
 N-N= 3.895131523959D+03 E-N=-1.146185908170D+04  KE= 1.567156119602D+03
 No NMR shielding tensors so no spin-rotation constants.
 Leave Link  601 at Wed Mar 25 14:37:00 2020, MaxMem= 2684354560 cpu:       2.5
 (Enter /opt/g09gh/gaussian/g09/l9999.exe)
 1\1\GINC-NODE42\FOpt\RwB97XD\6-31G(d)\C29H31N7O1\BDW2292\25-Mar-2020\0
 \\#P opt=(,maxcycle=400) wB97XD/6-31G* MaxDisk=100GB\\MOLECULE0 Rotata
 ble Bond Optimization on node37.bme.utexas.edu\\0,1\C,-0.3546173358,4.
 3725277074,-1.1333799385\C,0.998329821,4.2709787182,-0.8329131904\C,1.
 5458448861,3.0114794516,-0.5947591061\C,0.686862777,1.9079390338,-0.68
 35798356\N,-0.6117272745,1.9902696256,-0.967623896\C,-1.1151334669,3.2
 093320569,-1.1826404634\C,2.9675270826,2.8052509571,-0.2190969953\C,3.
 993051711,3.6888929707,-0.543067035\C,5.265051952,3.3441489175,-0.0874
 330881\N,5.5276642851,2.2460122407,0.6077766256\C,4.4666260168,1.45068
 00482,0.8533636051\N,3.2115348938,1.6903596423,0.4739459432\N,4.754981
 6302,0.3143703912,1.5585961738\C,3.9257253848,-0.7628054362,1.92328505
 63\C,4.5333883275,-1.9666031609,2.3343630269\C,3.6997181792,-3.0300598
 406,2.669633949\C,2.3091765556,-2.965215302,2.6017563941\C,1.734101965
 5,-1.7645773342,2.1964498726\C,2.5398774054,-0.6687615649,1.8886406517
 \N,0.3564360827,-1.547060885,2.0294613122\C,-0.6886223971,-2.434349506
 8,2.0630490053\C,-1.9668668227,-1.829858748,1.5542025404\C,-1.97497513
 25,-0.9065704233,0.5044432479\C,-3.1654734205,-0.3305354335,0.08649667
 39\C,-4.3700671335,-0.6407223017,0.7175967851\C,-4.3614797048,-1.60639
 60005,1.7280351514\C,-3.1757904003,-2.2034830811,2.1400301746\C,-5.645
 180219,0.102976425,0.3550786645\N,-5.8707148202,1.3904485902,0.9944403
 888\C,-5.0864678527,2.5324613209,0.5365412303\C,-3.8099098273,2.796607
 2241,1.3557058311\N,-4.053271671,2.850178645,2.7945637634\C,-4.6941031
 153,4.076041771,3.2363088921\C,-4.7451417292,1.6365576015,3.2229244049
 \C,-6.0449322537,1.3787787636,2.4426780846\O,-0.6098528457,-3.58023602
 97,2.4729062167\C,6.0332358586,-2.1057028817,2.3978623694\H,-0.8154818
 438,5.3376658288,-1.314107593\H,1.6103809302,5.1651315378,-0.757091736
 9\H,1.0878970982,0.9110264757,-0.5192468792\H,-2.1799025449,3.25512917
 58,-1.4010801069\H,3.8328039329,4.5856373983,-1.1286461928\H,6.1169807
 444,3.9874116929,-0.29857304\H,5.7400933773,0.2266476244,1.7587535429\
 H,4.1578213356,-3.96325362,2.9876673652\H,1.689217324,-3.8165311538,2.
 8472638549\H,2.0851965054,0.2617993354,1.5844692261\H,0.1129807379,-0.
 6015866687,1.7735238742\H,-1.0601283824,-0.6380979336,-0.0157889211\H,
 -3.1409788226,0.3877746203,-0.7289996488\H,-5.2969644001,-1.8829056187
 ,2.2094390703\H,-3.1684559119,-2.9504741315,2.9275638178\H,-5.66982510
 7,0.2693359293,-0.7286925936\H,-6.5063939864,-0.5337169697,0.595012128
 7\H,-4.8358869113,2.3857593748,-0.5209470279\H,-5.7308886962,3.4231831
 74,0.5867770867\H,-3.3543320592,3.7442267607,1.0411889306\H,-3.0749472
 109,2.0052238711,1.1714353183\H,-5.7047286437,4.258357745,2.8301943461
 \H,-4.0662348488,4.9293970801,2.9569250351\H,-4.7742424963,4.062468002
 ,4.328764452\H,-4.9595440018,1.7131604531,4.2958145287\H,-4.0575620418
 ,0.7941511822,3.0837812588\H,-6.78322145,2.15109395,2.704647715\H,-6.4
 790261814,0.4169829184,2.737995197\H,6.4850561233,-1.4135103078,3.1215
 58413\H,6.5029231325,-1.9201312415,1.4231555533\H,6.3131909065,-3.1164
 116572,2.7052995392\\Version=EM64L-G09RevA.02\State=1-A\HF=-1581.76321
 61\RMSD=5.997e-09\RMSF=9.925e-06\Dipole=0.4744257,2.4248308,-0.813045\
 Quadrupole=9.0797395,-2.5690871,-6.5106524,0.2384533,-3.1117607,-7.182
 142\PG=C01 [X(C29H31N7O1)]\\@


 I WOULD TAKE COUNSEL OF MYSELF.
 I WOULD STOP AND LOOK WITHIN
 AND LOOKING WITHIN, LOOK BACK, ALSO
 THAT I MAY LOOK AHEAD WITH CLEARER UNDERSTANDING
 OF THE WAY I HAVE BEEN MOVING, AND IN WHAT DIRECTION.
 I NEED TO KNOW IF I AM GOING FORWARD OR RETREATING,
 WHETHER I HAVE BEEN WASTING, OR ENJOYING
 THE PRECIOUS MOMENTS OF LIFE.  THERE HAVE BEEN FRICTIONS,
 ANNOYANCES AND SOMETIMES WRATH,
 BUT WERE THEY BECAUSE I WAS RIGHT AND OTHERS WRONG.....
 HAVE I HAD MY THOUGHTS TOO SHARPLY FOCUSED
 ON THAT WHICH PLEASED ME, SERVED MY SELF-ESTEEM,
 UNDERGIRDED MY SECURITY,
 OF WHICH I DID NOT INQUIRE WHETHER IT SERVED OR HAMPERED OTHERS.....
 HAVE I BEEN TRYING TO STOP THE CLOCK
 TO HOLD THE WORLD
 IN PERPETUATION OF WHAT WAS AN IS ALREADY SLIPPING AWAY.....
 HAVE I BEEN CRITICAL OF OTHERS FOR WHAT REALLY NEEDED CHANGING IN ME...
 LET ME INDEED TAKE COUNSEL OF MYSELF
 AND SET MY DIRECTIONS STRAIGHT.

                          R.T. WESTON AS ADAPTED BY D. OSBORN 1967
 Job cpu time:  0 days  9 hours 52 minutes 39.1 seconds.
 File lengths (MBytes):  RWF=    244 Int=      0 D2E=      0 Chk=     25 Scr=      1
 Normal termination of Gaussian 09 at Wed Mar 25 14:37:01 2020.
