
    -----------------------------------------------------------------------
          Psi4: An Open-Source Ab Initio Electronic Structure Package
                               Psi4 1.3.2 release

                         Git: Rev {HEAD} ecbda83 


    R. M. Parrish, L. A. Burns, D. G. A. Smith, A. C. Simmonett,
    A. E. DePrince III, E. G. Hohenstein, U. Bozkaya, A. Yu. Sokolov,
    R. Di Remigio, R. M. Richard, J. F. Gonthier, A. M. James,
    H. R. McAlexander, A. Kumar, M. Saitow, X. Wang, B. P. Pritchard,
    P. Verma, H. F. Schaefer III, K. Patkowski, R. A. King, E. F. Valeev,
    F. A. Evangelista, J. M. Turney, T. D. Crawford, and C. D. Sherrill,
    J. Chem. Theory Comput. 13(7) pp 3185--3197 (2017).
    (doi: 10.1021/acs.jctc.7b00174)


                         Additional Contributions by
    P. Kraus, H. Kruse, M. H. Lechner, M. C. Schieber, R. A. Shaw,
    A. Alenaizan, R. Galvelis, Z. L. Glick, S. Lehtola, and J. P. Misiewicz

    -----------------------------------------------------------------------


    Psi4 started on: Friday, 24 April 2020 12:00PM

    Process ID: 28692
    Host:       node85.bme.utexas.edu
    PSIDATADIR: /home/bdw2292/miniconda3/envs/p4env/share/psi4
    Memory:     500.0 MiB
    Threads:    1
    
  ==> Input File <==

--------------------------------------------------------------------------
molecule { 
0 1
 C    0.284304    4.662777   -0.933322
 C    1.598535    4.518797   -0.467969
 C    2.164949    3.234495   -0.351234
 C    1.340920    2.157053   -0.760035
 N    0.084166    2.273639   -1.207870
 C   -0.429993    3.511143   -1.283793
 C    3.557649    2.971831    0.164512
 C    4.516811    3.954170    0.460579
 C    5.755192    3.480852    0.911972
 N    6.052885    2.193421    1.077719
 C    5.068400    1.320546    0.783106
 N    3.860128    1.673121    0.342363
 N    5.376180   -0.015806    0.968215
 C    4.671721   -1.236726    0.662357
 C    5.399747   -2.458422    0.535008
 C    4.668149   -3.613053    0.209898
 C    3.284196   -3.629236    0.000502
 C    2.576673   -2.431660    0.149854
 C    3.281508   -1.265969    0.489619
 N    1.165300   -2.264670   -0.036617
 C    0.197777   -3.122580   -0.508394
 C   -1.182922   -2.550516   -0.777361
 C   -1.423787   -1.213655   -1.137961
 C   -2.728791   -0.755605   -1.334550
 C   -3.844381   -1.602717   -1.187721
 C   -3.581168   -2.953485   -0.879958
 C   -2.280216   -3.422245   -0.679865
 C   -5.283126   -1.108105   -1.387824
 N   -5.793556    0.191035   -0.901940
 C   -5.056646    0.964726    0.124886
 C   -5.463742    0.575203    1.569590
 N   -6.920495    0.645425    1.844702
 C   -7.452114    1.966433    2.200390
 C   -7.652944   -0.096813    0.789962
 C   -7.249165    0.292955   -0.654789
 O    0.415872   -4.310264   -0.694372
 C    6.906191   -2.552882    0.710306
 H   -0.176254    5.642291   -1.022308
 H    2.150718    5.411461   -0.184359
 H    1.721464    1.140535   -0.746757
 H   -1.453942    3.570470   -1.649827
 H    4.360705    5.019524    0.343133
 H    6.572889    4.157732    1.158577
 H    6.338943   -0.100024    1.257916
 H    5.195661   -4.559233    0.096797
 H    2.761442   -4.537808   -0.270538
 H    2.738388   -0.345812    0.627376
 H    0.831603   -1.333239    0.166188
 H   -0.590665   -0.527230   -1.272485
 H   -2.865759    0.279597   -1.644489
 H   -4.405355   -3.659963   -0.783671
 H   -2.098410   -4.466510   -0.437282
 H   -5.465561   -1.056036   -2.472189
 H   -5.913555   -1.909738   -0.976765
 H   -4.162826    0.908740    0.000819
 H   -5.393203    2.384530   -0.063384
 H   -4.804639    1.386038    2.476239
 H   -5.030941   -0.845809    1.818894
 H   -7.365355    2.663116    1.358859
 H   -6.906163    2.376910    3.057668
 H   -8.507835    1.885477    2.484288
 H   -8.859121    0.045820    0.956233
 H   -7.344509   -1.531272    0.989779
 H   -7.645069    1.648488   -0.893832
 H   -7.919502   -0.472361   -1.549888
 H    7.234732   -2.263175    1.718841
 H    7.425775   -1.901822    0.001585
 H    7.287662   -3.563253    0.541141
}
memory 20GB
set_num_threads(6)
psi4_io.set_default_path("/scratch/bdw2292")
set freeze_core True
E, wfn = energy('mp2/6-311+G*',return_wfn=True)
oeprop(wfn,"WIBERG_LOWDIN_INDICES")
clean()
--------------------------------------------------------------------------

  Memory set to  18.626 GiB by Python driver.
  Threads set to 6 by Python driver.
    SCF Algorithm Type (re)set to DF.

*** tstart() called on node85.bme.utexas.edu
*** at Fri Apr 24 12:00:23 2020

   => Loading Basis Set <=

    Name: 6-311+G*
    Role: ORBITAL
    Keyword: BASIS
    atoms 1-4, 6-9, 11, 14-19, 21-28, 30-31, 33-35, 37 entry C          line   130 file /home/bdw2292/miniconda3/envs/p4env/share/psi4/basis/6-311pgs.gbs 
    atoms 5, 10, 12-13, 20, 29, 32                     entry N          line   151 file /home/bdw2292/miniconda3/envs/p4env/share/psi4/basis/6-311pgs.gbs 
    atoms 36                                           entry O          line   172 file /home/bdw2292/miniconda3/envs/p4env/share/psi4/basis/6-311pgs.gbs 
    atoms 38-68                                        entry H          line    47 file /home/bdw2292/miniconda3/envs/p4env/share/psi4/basis/6-311pgs.gbs 


         ---------------------------------------------------------
                                   SCF
               by Justin Turney, Rob Parrish, Andy Simmonett
                          and Daniel G. A. Smith
                              RHF Reference
                        6 Threads,  19073 MiB Core
         ---------------------------------------------------------

  ==> Geometry <==

    Molecular point group: c1
    Full point group: C1

    Geometry (in Angstrom), charge = 0, multiplicity = 1:

       Center              X                  Y                   Z               Mass       
    ------------   -----------------  -----------------  -----------------  -----------------
         C            0.208657661990     4.667893468562    -0.917613301124    12.000000000000
         C            1.522888661990     4.523913468562    -0.452260301124    12.000000000000
         C            2.089302661990     3.239611468562    -0.335525301124    12.000000000000
         C            1.265273661990     2.162169468562    -0.744326301124    12.000000000000
         N            0.008519661990     2.278755468562    -1.192161301124    14.003074004430
         C           -0.505639338010     3.516259468562    -1.268084301124    12.000000000000
         C            3.482002661990     2.976947468562     0.180220698876    12.000000000000
         C            4.441164661990     3.959286468562     0.476287698876    12.000000000000
         C            5.679545661990     3.485968468562     0.927680698876    12.000000000000
         N            5.977238661990     2.198537468562     1.093427698876    14.003074004430
         C            4.992753661990     1.325662468562     0.798814698876    12.000000000000
         N            3.784481661990     1.678237468562     0.358071698876    14.003074004430
         N            5.300533661990    -0.010689531438     0.983923698876    14.003074004430
         C            4.596074661990    -1.231609531438     0.678065698876    12.000000000000
         C            5.324100661990    -2.453305531438     0.550716698876    12.000000000000
         C            4.592502661990    -3.607936531438     0.225606698876    12.000000000000
         C            3.208549661990    -3.624119531438     0.016210698876    12.000000000000
         C            2.501026661990    -2.426543531438     0.165562698876    12.000000000000
         C            3.205861661990    -1.260852531438     0.505327698876    12.000000000000
         N            1.089653661990    -2.259553531438    -0.020908301124    14.003074004430
         C            0.122130661990    -3.117463531438    -0.492685301124    12.000000000000
         C           -1.258568338010    -2.545399531438    -0.761652301124    12.000000000000
         C           -1.499433338010    -1.208538531438    -1.122252301124    12.000000000000
         C           -2.804437338010    -0.750488531438    -1.318841301124    12.000000000000
         C           -3.920027338010    -1.597600531438    -1.172012301124    12.000000000000
         C           -3.656814338010    -2.948368531438    -0.864249301124    12.000000000000
         C           -2.355862338010    -3.417128531438    -0.664156301124    12.000000000000
         C           -5.358772338010    -1.102988531438    -1.372115301124    12.000000000000
         N           -5.869202338010     0.196151468562    -0.886231301124    14.003074004430
         C           -5.132292338010     0.969842468562     0.140594698876    12.000000000000
         C           -5.539388338010     0.580319468562     1.585298698876    12.000000000000
         N           -6.996141338010     0.650541468562     1.860410698876    14.003074004430
         C           -7.527760338010     1.971549468562     2.216098698876    12.000000000000
         C           -7.728590338010    -0.091696531438     0.805670698876    12.000000000000
         C           -7.324811338010     0.298071468562    -0.639080301124    12.000000000000
         O            0.340225661990    -4.305147531438    -0.678663301124    15.994914619570
         C            6.830544661990    -2.547765531438     0.726014698876    12.000000000000
         H           -0.251900338010     5.647407468562    -1.006599301124     1.007825032230
         H            2.075071661990     5.416577468562    -0.168650301124     1.007825032230
         H            1.645817661990     1.145651468562    -0.731048301124     1.007825032230
         H           -1.529588338010     3.575586468562    -1.634118301124     1.007825032230
         H            4.285058661990     5.024640468562     0.358841698876     1.007825032230
         H            6.497242661990     4.162848468562     1.174285698876     1.007825032230
         H            6.263296661990    -0.094907531438     1.273624698876     1.007825032230
         H            5.120014661990    -4.554116531438     0.112505698876     1.007825032230
         H            2.685795661990    -4.532691531438    -0.254829301124     1.007825032230
         H            2.662741661990    -0.340695531438     0.643084698876     1.007825032230
         H            0.755956661990    -1.328122531438     0.181896698876     1.007825032230
         H           -0.666311338010    -0.522113531438    -1.256776301124     1.007825032230
         H           -2.941405338010     0.284713468562    -1.628780301124     1.007825032230
         H           -4.481001338010    -3.654846531438    -0.767962301124     1.007825032230
         H           -2.174056338010    -4.461393531438    -0.421573301124     1.007825032230
         H           -5.541207338010    -1.050919531438    -2.456480301124     1.007825032230
         H           -5.989201338010    -1.904621531438    -0.961056301124     1.007825032230
         H           -4.238472338010     0.913856468562     0.016527698876     1.007825032230
         H           -5.468849338010     2.389646468562    -0.047675301124     1.007825032230
         H           -4.880285338010     1.391154468562     2.491947698876     1.007825032230
         H           -5.106587338010    -0.840692531438     1.834602698876     1.007825032230
         H           -7.441001338010     2.668232468562     1.374567698876     1.007825032230
         H           -6.981809338010     2.382026468562     3.073376698876     1.007825032230
         H           -8.583481338010     1.890593468562     2.499996698876     1.007825032230
         H           -8.934767338010     0.050936468562     0.971941698876     1.007825032230
         H           -7.420155338010    -1.526155531438     1.005487698876     1.007825032230
         H           -7.720715338010     1.653604468562    -0.878123301124     1.007825032230
         H           -7.995148338010    -0.467244531438    -1.534179301124     1.007825032230
         H            7.159085661990    -2.258058531438     1.734549698876     1.007825032230
         H            7.350128661990    -1.896705531438     0.017293698876     1.007825032230
         H            7.212015661990    -3.558136531438     0.556849698876     1.007825032230

  Running in c1 symmetry.

  Rotational constants: A =      0.00457  B =      0.00165  C =      0.00129 [cm^-1]
  Rotational constants: A =    136.88613  B =     49.52466  C =     38.81856 [MHz]
  Nuclear repulsion = 3675.665022809310813

  Charge       = 0
  Multiplicity = 1
  Electrons    = 262
  Nalpha       = 131
  Nbeta        = 131

  ==> Algorithm <==

  SCF Algorithm Type is DF.
  DIIS enabled.
  MOM disabled.
  Fractional occupation disabled.
  Guess Type is SAD.
  Energy threshold   = 1.00e-08
  Density threshold  = 1.00e-08
  Integral threshold = 0.00e+00

  ==> Primary Basis <==

  Basis Set: 6-311+G*
    Blend: 6-311+G*
    Number of shells: 463
    Number of basis function: 907
    Number of Cartesian functions: 944
    Spherical Harmonics?: true
    Max angular momentum: 2

   => Loading Basis Set <=

    Name: (6-311+G* AUX)
    Role: JKFIT
    Keyword: DF_BASIS_SCF
    atoms 1-4, 6-9, 11, 14-19, 21-28, 30-31, 33-35, 37 entry C          line   200 file /home/bdw2292/miniconda3/envs/p4env/share/psi4/basis/heavy-aug-cc-pvtz-jkfit.gbs 
    atoms 5, 10, 12-13, 20, 29, 32                     entry N          line   262 file /home/bdw2292/miniconda3/envs/p4env/share/psi4/basis/heavy-aug-cc-pvtz-jkfit.gbs 
    atoms 36                                           entry O          line   324 file /home/bdw2292/miniconda3/envs/p4env/share/psi4/basis/heavy-aug-cc-pvtz-jkfit.gbs 
    atoms 38-68                                        entry H          line   116 file /home/bdw2292/miniconda3/envs/p4env/share/psi4/basis/heavy-aug-cc-pvtz-jkfit.gbs 

  ==> Pre-Iterations <==

   -------------------------------------------------------
    Irrep   Nso     Nmo     Nalpha   Nbeta   Ndocc  Nsocc
   -------------------------------------------------------
     A        907     907       0       0       0       0
   -------------------------------------------------------
    Total     907     907     131     131     131       0
   -------------------------------------------------------

  ==> Integral Setup <==

  ==> DiskDFJK: Density-Fitted J/K Matrices <==

    J tasked:                  Yes
    K tasked:                  Yes
    wK tasked:                  No
    OpenMP threads:              6
    Integrals threads:           6
    Memory [MiB]:            14305
    Algorithm:                Core
    Integral Cache:           NONE
    Schwarz Cutoff:          1E-12
    Fitting Condition:       1E-10

   => Auxiliary Basis Set <=

  Basis Set: (6-311+G* AUX)
    Blend: HEAVY-AUG-CC-PVTZ-JKFIT
    Number of shells: 1420
    Number of basis function: 4778
    Number of Cartesian functions: 5932
    Spherical Harmonics?: true
    Max angular momentum: 4

  Minimum eigenvalue in the overlap matrix is 1.0048206469E-07.
  Using Symmetric Orthogonalization.

  SCF Guess: Superposition of Atomic Densities via on-the-fly atomic UHF.

  ==> Iterations <==

                           Total Energy        Delta E     RMS |[F,P]|

   @DF-RHF iter SAD: -1570.93244725533191   -1.57093e+03   0.00000e+00 
   @DF-RHF iter   1: -1571.23948311528898   -3.07036e-01   1.37721e-03 DIIS
   @DF-RHF iter   2: -1572.00880453260515   -7.69321e-01   7.22325e-04 DIIS
   @DF-RHF iter   3: -1572.19842385090374   -1.89619e-01   1.80736e-04 DIIS
   @DF-RHF iter   4: -1572.21458092933108   -1.61571e-02   7.14888e-05 DIIS
   @DF-RHF iter   5: -1572.21690178863264   -2.32086e-03   1.48520e-05 DIIS
   @DF-RHF iter   6: -1572.21704389910133   -1.42110e-04   6.74732e-06 DIIS
   @DF-RHF iter   7: -1572.21707753222859   -3.36331e-05   2.20421e-06 DIIS
   @DF-RHF iter   8: -1572.21708283032422   -5.29810e-06   8.70933e-07 DIIS
   @DF-RHF iter   9: -1572.21708372883631   -8.98512e-07   3.56178e-07 DIIS
   @DF-RHF iter  10: -1572.21708390643334   -1.77597e-07   1.57381e-07 DIIS
   @DF-RHF iter  11: -1572.21708394282996   -3.63966e-08   7.72051e-08 DIIS
   @DF-RHF iter  12: -1572.21708395249493   -9.66497e-09   3.01879e-08 DIIS
   @DF-RHF iter  13: -1572.21708395425890   -1.76396e-09   1.27126e-08 DIIS
   @DF-RHF iter  14: -1572.21708395442624   -1.67347e-10   6.11786e-09 DIIS
  Energy and wave function converged.


  ==> Post-Iterations <==

    Orbital Energies [Eh]
    ---------------------

    Doubly Occupied:                                                      

       1A    -20.520225     2A    -15.603930     3A    -15.602439  
       4A    -15.587052     5A    -15.573433     6A    -15.567888  
       7A    -15.566623     8A    -15.566347     9A    -11.374242  
      10A    -11.364616    11A    -11.334379    12A    -11.328410  
      13A    -11.328379    14A    -11.317955    15A    -11.314265  
      16A    -11.301752    17A    -11.301372    18A    -11.300801  
      19A    -11.293314    20A    -11.290229    21A    -11.284322  
      22A    -11.280321    23A    -11.275891    24A    -11.267057  
      25A    -11.266307    26A    -11.256523    27A    -11.255101  
      28A    -11.254135    29A    -11.253027    30A    -11.249862  
      31A    -11.247051    32A    -11.246986    33A    -11.245615  
      34A    -11.239952    35A    -11.234117    36A    -11.232005  
      37A    -11.225190    38A     -1.385855    39A     -1.345277  
      40A     -1.278887    41A     -1.250975    42A     -1.249317  
      43A     -1.241834    44A     -1.209597    45A     -1.203707  
      46A     -1.162396    47A     -1.140072    48A     -1.116372  
      49A     -1.075594    50A     -1.060657    51A     -1.048691  
      52A     -1.038440    53A     -1.023521    54A     -1.009443  
      55A     -1.008009    56A     -0.977325    57A     -0.947978  
      58A     -0.930461    59A     -0.926733    60A     -0.901167  
      61A     -0.874905    62A     -0.873008    63A     -0.858524  
      64A     -0.848224    65A     -0.840144    66A     -0.829142  
      67A     -0.824177    68A     -0.804852    69A     -0.778593  
      70A     -0.755190    71A     -0.740312    72A     -0.731372  
      73A     -0.722735    74A     -0.707205    75A     -0.698976  
      76A     -0.683211    77A     -0.679352    78A     -0.667221  
      79A     -0.662288    80A     -0.657169    81A     -0.652771  
      82A     -0.638388    83A     -0.637615    84A     -0.630746  
      85A     -0.623261    86A     -0.619658    87A     -0.615141  
      88A     -0.611733    89A     -0.607781    90A     -0.605273  
      91A     -0.603471    92A     -0.597803    93A     -0.596249  
      94A     -0.593785    95A     -0.591422    96A     -0.583603  
      97A     -0.581018    98A     -0.573420    99A     -0.561917  
     100A     -0.561615   101A     -0.550157   102A     -0.548413  
     103A     -0.545217   104A     -0.524415   105A     -0.520850  
     106A     -0.517318   107A     -0.514216   108A     -0.509349  
     109A     -0.507256   110A     -0.501656   111A     -0.497070  
     112A     -0.494387   113A     -0.485254   114A     -0.479122  
     115A     -0.465561   116A     -0.451742   117A     -0.443211  
     118A     -0.431927   119A     -0.427637   120A     -0.425609  
     121A     -0.414218   122A     -0.404237   123A     -0.400325  
     124A     -0.385515   125A     -0.373229   126A     -0.346050  
     127A     -0.344060   128A     -0.338568   129A     -0.320423  
     130A     -0.314015   131A     -0.290276  

    Virtual:                                                              

     132A      0.042641   133A      0.047826   134A      0.057309  
     135A      0.063707   136A      0.065623   137A      0.068371  
     138A      0.070944   139A      0.072659   140A      0.074564  
     141A      0.080248   142A      0.080701   143A      0.082563  
     144A      0.084388   145A      0.088725   146A      0.090765  
     147A      0.093825   148A      0.097345   149A      0.098338  
     150A      0.099322   151A      0.102011   152A      0.103577  
     153A      0.105260   154A      0.108280   155A      0.111016  
     156A      0.112664   157A      0.115311   158A      0.117331  
     159A      0.117816   160A      0.120637   161A      0.122634  
     162A      0.124397   163A      0.128432   164A      0.130767  
     165A      0.135041   166A      0.137414   167A      0.138986  
     168A      0.142213   169A      0.144987   170A      0.147316  
     171A      0.147902   172A      0.150482   173A      0.152314  
     174A      0.153399   175A      0.158887   176A      0.159416  
     177A      0.162181   178A      0.163678   179A      0.167118  
     180A      0.167993   181A      0.173481   182A      0.176732  
     183A      0.177962   184A      0.179588   185A      0.181409  
     186A      0.185029   187A      0.188547   188A      0.193534  
     189A      0.194337   190A      0.197155   191A      0.198898  
     192A      0.201504   193A      0.205371   194A      0.206374  
     195A      0.208048   196A      0.212610   197A      0.213684  
     198A      0.215707   199A      0.221811   200A      0.222757  
     201A      0.223533   202A      0.225889   203A      0.228488  
     204A      0.232499   205A      0.233098   206A      0.235962  
     207A      0.240742   208A      0.242225   209A      0.245217  
     210A      0.247196   211A      0.247982   212A      0.252630  
     213A      0.257286   214A      0.258104   215A      0.260484  
     216A      0.262211   217A      0.265086   218A      0.267158  
     219A      0.268728   220A      0.269497   221A      0.270755  
     222A      0.273814   223A      0.276474   224A      0.278838  
     225A      0.281270   226A      0.283243   227A      0.284002  
     228A      0.287970   229A      0.288474   230A      0.289821  
     231A      0.293189   232A      0.294161   233A      0.296270  
     234A      0.299644   235A      0.301454   236A      0.302386  
     237A      0.304041   238A      0.307765   239A      0.308710  
     240A      0.312779   241A      0.314227   242A      0.314469  
     243A      0.319216   244A      0.319748   245A      0.323075  
     246A      0.324922   247A      0.326648   248A      0.328706  
     249A      0.330651   250A      0.332127   251A      0.332586  
     252A      0.336499   253A      0.337793   254A      0.340379  
     255A      0.341805   256A      0.344905   257A      0.345633  
     258A      0.347416   259A      0.347709   260A      0.349480  
     261A      0.351553   262A      0.352409   263A      0.356030  
     264A      0.357399   265A      0.357911   266A      0.361637  
     267A      0.362181   268A      0.363114   269A      0.364952  
     270A      0.368296   271A      0.370654   272A      0.375020  
     273A      0.376966   274A      0.377221   275A      0.378141  
     276A      0.380232   277A      0.381526   278A      0.383100  
     279A      0.385716   280A      0.386965   281A      0.388281  
     282A      0.390817   283A      0.392775   284A      0.395222  
     285A      0.396915   286A      0.398456   287A      0.399639  
     288A      0.401947   289A      0.403282   290A      0.407711  
     291A      0.412153   292A      0.413514   293A      0.413875  
     294A      0.416312   295A      0.417108   296A      0.420330  
     297A      0.423498   298A      0.426470   299A      0.428306  
     300A      0.429047   301A      0.432353   302A      0.435561  
     303A      0.438019   304A      0.439755   305A      0.441778  
     306A      0.443225   307A      0.447302   308A      0.447724  
     309A      0.452345   310A      0.455726   311A      0.460016  
     312A      0.462846   313A      0.464375   314A      0.468176  
     315A      0.470317   316A      0.472979   317A      0.475132  
     318A      0.475782   319A      0.481080   320A      0.484786  
     321A      0.486002   322A      0.486633   323A      0.490006  
     324A      0.496063   325A      0.498473   326A      0.505484  
     327A      0.507463   328A      0.509889   329A      0.511167  
     330A      0.515743   331A      0.522171   332A      0.523272  
     333A      0.525652   334A      0.529598   335A      0.536802  
     336A      0.538048   337A      0.540706   338A      0.542836  
     339A      0.547830   340A      0.552809   341A      0.554636  
     342A      0.557892   343A      0.569273   344A      0.572800  
     345A      0.580210   346A      0.585282   347A      0.591281  
     348A      0.593014   349A      0.597371   350A      0.604164  
     351A      0.610055   352A      0.614089   353A      0.617318  
     354A      0.619537   355A      0.622799   356A      0.633683  
     357A      0.647180   358A      0.656423   359A      0.657290  
     360A      0.662413   361A      0.668414   362A      0.675898  
     363A      0.678641   364A      0.686930   365A      0.692505  
     366A      0.696469   367A      0.699462   368A      0.703768  
     369A      0.705114   370A      0.711630   371A      0.715983  
     372A      0.720158   373A      0.725134   374A      0.728702  
     375A      0.731046   376A      0.737033   377A      0.744039  
     378A      0.745883   379A      0.749243   380A      0.754872  
     381A      0.759220   382A      0.759543   383A      0.761462  
     384A      0.767119   385A      0.768064   386A      0.769002  
     387A      0.777648   388A      0.781078   389A      0.787732  
     390A      0.790711   391A      0.793593   392A      0.796183  
     393A      0.799609   394A      0.801974   395A      0.804226  
     396A      0.808124   397A      0.812191   398A      0.823270  
     399A      0.826014   400A      0.827440   401A      0.831203  
     402A      0.835341   403A      0.839385   404A      0.841828  
     405A      0.845544   406A      0.846182   407A      0.854201  
     408A      0.855794   409A      0.858616   410A      0.861627  
     411A      0.865680   412A      0.868835   413A      0.875477  
     414A      0.876496   415A      0.879042   416A      0.885516  
     417A      0.889270   418A      0.892609   419A      0.898048  
     420A      0.899759   421A      0.904685   422A      0.907942  
     423A      0.908336   424A      0.913382   425A      0.916314  
     426A      0.917991   427A      0.919568   428A      0.921021  
     429A      0.924129   430A      0.926858   431A      0.930437  
     432A      0.932346   433A      0.935553   434A      0.938233  
     435A      0.942919   436A      0.948392   437A      0.951066  
     438A      0.953753   439A      0.956951   440A      0.959593  
     441A      0.964330   442A      0.967822   443A      0.970542  
     444A      0.973702   445A      0.974012   446A      0.979733  
     447A      0.985345   448A      0.987498   449A      0.994131  
     450A      0.997377   451A      1.001855   452A      1.006175  
     453A      1.012082   454A      1.014167   455A      1.021092  
     456A      1.024981   457A      1.032709   458A      1.036710  
     459A      1.041059   460A      1.048926   461A      1.054298  
     462A      1.057016   463A      1.059642   464A      1.066821  
     465A      1.068465   466A      1.075345   467A      1.084341  
     468A      1.088555   469A      1.093639   470A      1.099201  
     471A      1.100059   472A      1.105749   473A      1.109807  
     474A      1.117520   475A      1.124698   476A      1.125470  
     477A      1.131173   478A      1.135590   479A      1.138334  
     480A      1.140241   481A      1.148789   482A      1.150158  
     483A      1.155339   484A      1.160021   485A      1.164096  
     486A      1.167830   487A      1.173929   488A      1.176883  
     489A      1.180007   490A      1.182412   491A      1.184839  
     492A      1.190025   493A      1.193082   494A      1.201565  
     495A      1.204105   496A      1.207829   497A      1.209944  
     498A      1.219699   499A      1.221369   500A      1.226203  
     501A      1.229016   502A      1.233147   503A      1.238285  
     504A      1.241037   505A      1.247055   506A      1.251657  
     507A      1.258263   508A      1.265496   509A      1.269841  
     510A      1.273122   511A      1.274538   512A      1.283782  
     513A      1.286537   514A      1.289613   515A      1.291717  
     516A      1.299674   517A      1.304037   518A      1.307087  
     519A      1.315006   520A      1.325841   521A      1.328135  
     522A      1.330298   523A      1.342549   524A      1.346402  
     525A      1.360736   526A      1.370678   527A      1.378414  
     528A      1.383911   529A      1.385812   530A      1.391373  
     531A      1.401042   532A      1.418101   533A      1.423790  
     534A      1.437719   535A      1.446372   536A      1.450178  
     537A      1.451399   538A      1.455023   539A      1.458167  
     540A      1.463369   541A      1.471550   542A      1.476570  
     543A      1.480792   544A      1.487579   545A      1.493655  
     546A      1.501013   547A      1.511482   548A      1.515248  
     549A      1.523436   550A      1.531243   551A      1.539537  
     552A      1.547331   553A      1.551944   554A      1.563917  
     555A      1.565071   556A      1.585909   557A      1.589319  
     558A      1.593886   559A      1.598615   560A      1.609464  
     561A      1.626043   562A      1.630886   563A      1.645172  
     564A      1.656365   565A      1.671998   566A      1.690460  
     567A      1.700528   568A      1.704027   569A      1.730784  
     570A      1.739546   571A      1.744882   572A      1.757806  
     573A      1.773445   574A      1.783053   575A      1.787066  
     576A      1.791093   577A      1.796650   578A      1.799458  
     579A      1.802017   580A      1.809900   581A      1.815696  
     582A      1.816872   583A      1.821537   584A      1.835037  
     585A      1.838215   586A      1.845507   587A      1.849001  
     588A      1.853491   589A      1.855120   590A      1.858924  
     591A      1.859220   592A      1.866043   593A      1.872783  
     594A      1.873881   595A      1.874961   596A      1.882568  
     597A      1.887160   598A      1.893669   599A      1.913204  
     600A      1.925367   601A      1.930222   602A      1.938035  
     603A      1.958043   604A      1.960248   605A      1.960825  
     606A      1.970987   607A      1.992943   608A      1.996045  
     609A      1.999249   610A      2.007944   611A      2.020431  
     612A      2.032278   613A      2.032834   614A      2.039069  
     615A      2.045102   616A      2.055092   617A      2.064494  
     618A      2.070344   619A      2.079239   620A      2.086526  
     621A      2.087727   622A      2.091176   623A      2.094759  
     624A      2.109607   625A      2.112627   626A      2.116354  
     627A      2.125870   628A      2.141070   629A      2.143847  
     630A      2.151407   631A      2.155172   632A      2.175551  
     633A      2.178947   634A      2.183415   635A      2.187946  
     636A      2.194484   637A      2.207440   638A      2.210563  
     639A      2.217903   640A      2.219108   641A      2.225701  
     642A      2.227147   643A      2.237748   644A      2.240422  
     645A      2.248409   646A      2.250942   647A      2.253360  
     648A      2.256375   649A      2.260864   650A      2.270766  
     651A      2.273010   652A      2.284141   653A      2.291503  
     654A      2.300258   655A      2.313020   656A      2.317435  
     657A      2.369299   658A      2.371751   659A      2.377490  
     660A      2.382506   661A      2.395063   662A      2.413249  
     663A      2.434525   664A      2.443227   665A      2.454072  
     666A      2.461303   667A      2.487286   668A      2.502086  
     669A      2.506270   670A      2.507115   671A      2.530390  
     672A      2.542512   673A      2.551308   674A      2.570242  
     675A      2.602916   676A      2.621668   677A      2.638379  
     678A      2.642696   679A      2.649447   680A      2.650933  
     681A      2.655615   682A      2.660667   683A      2.665071  
     684A      2.672614   685A      2.675020   686A      2.677394  
     687A      2.685626   688A      2.688917   689A      2.689999  
     690A      2.700359   691A      2.712031   692A      2.725620  
     693A      2.739680   694A      2.764247   695A      2.769856  
     696A      2.776615   697A      2.781418   698A      2.786095  
     699A      2.799286   700A      2.804530   701A      2.811820  
     702A      2.828425   703A      2.833564   704A      2.857062  
     705A      2.864024   706A      2.871656   707A      2.878726  
     708A      2.885368   709A      2.891401   710A      2.900888  
     711A      2.904333   712A      2.907007   713A      2.927171  
     714A      2.935820   715A      2.940099   716A      2.947103  
     717A      2.956766   718A      2.967561   719A      2.979485  
     720A      2.986681   721A      2.988806   722A      3.001827  
     723A      3.014663   724A      3.017383   725A      3.025264  
     726A      3.034735   727A      3.040616   728A      3.043189  
     729A      3.047264   730A      3.068742   731A      3.072878  
     732A      3.080129   733A      3.086721   734A      3.092247  
     735A      3.099582   736A      3.099860   737A      3.108996  
     738A      3.139127   739A      3.150635   740A      3.157851  
     741A      3.167384   742A      3.176307   743A      3.189222  
     744A      3.194498   745A      3.195605   746A      3.202087  
     747A      3.211457   748A      3.226397   749A      3.228908  
     750A      3.235180   751A      3.240154   752A      3.245607  
     753A      3.260540   754A      3.267352   755A      3.287643  
     756A      3.289124   757A      3.296901   758A      3.301362  
     759A      3.306916   760A      3.317665   761A      3.334530  
     762A      3.338890   763A      3.346054   764A      3.355675  
     765A      3.362261   766A      3.365211   767A      3.368509  
     768A      3.370834   769A      3.380910   770A      3.385057  
     771A      3.390941   772A      3.401935   773A      3.419935  
     774A      3.430976   775A      3.471102   776A      3.483137  
     777A      3.501665   778A      3.506108   779A      3.538148  
     780A      3.553398   781A      3.565886   782A      3.566999  
     783A      3.570492   784A      3.587978   785A      3.596424  
     786A      3.615653   787A      3.630770   788A      3.635457  
     789A      3.645273   790A      3.647291   791A      3.678656  
     792A      3.685792   793A      3.699402   794A      3.701948  
     795A      3.711055   796A      3.716088   797A      3.720850  
     798A      3.747245   799A      3.757747   800A      3.762056  
     801A      3.763319   802A      3.771938   803A      3.772747  
     804A      3.778895   805A      3.787994   806A      3.807480  
     807A      3.810005   808A      3.816717   809A      3.820782  
     810A      3.826694   811A      3.855757   812A      3.870467  
     813A      3.880921   814A      3.895737   815A      3.901568  
     816A      3.908023   817A      3.924308   818A      3.947112  
     819A      3.960647   820A      4.007835   821A      4.025731  
     822A      4.029295   823A      4.047905   824A      4.069292  
     825A      4.083769   826A      4.100526   827A      4.110940  
     828A      4.153629   829A      4.159562   830A      4.183949  
     831A      4.222780   832A      4.311500   833A      4.331227  
     834A      4.360323   835A      4.379400   836A      4.392797  
     837A      4.408470   838A      4.413130   839A      4.415112  
     840A      4.421031   841A      4.441138   842A      4.456034  
     843A      4.481088   844A      4.491123   845A      4.506264  
     846A      4.546340   847A      4.594201   848A      4.609309  
     849A      4.684414   850A      4.751402   851A      4.848036  
     852A      4.871052   853A      4.947421   854A      4.990008  
     855A      5.016616   856A      5.052930   857A      5.116203  
     858A      5.183229   859A      5.202990   860A      5.215444  
     861A      5.242056   862A      5.300599   863A      5.341784  
     864A      5.581214   865A      5.643014   866A      5.683755  
     867A      5.766764   868A      5.825950   869A      5.852246  
     870A      6.379132   871A     24.530310   872A     24.589882  
     873A     24.635892   874A     24.662936   875A     24.700279  
     876A     24.731334   877A     24.792172   878A     24.805500  
     879A     24.810654   880A     24.863656   881A     24.871009  
     882A     24.971836   883A     24.999617   884A     25.004106  
     885A     25.010540   886A     25.022255   887A     25.040428  
     888A     25.056819   889A     25.058648   890A     25.068896  
     891A     25.130755   892A     25.150344   893A     25.165967  
     894A     25.182527   895A     25.193510   896A     25.196347  
     897A     25.200697   898A     25.270813   899A     25.278092  
     900A     36.904541   901A     36.945098   902A     36.970468  
     903A     36.995684   904A     37.042369   905A     37.098102  
     906A     37.140887   907A     51.756246  

    Final Occupation by Irrep:
              A 
    DOCC [   131 ]

  @DF-RHF Final Energy: -1572.21708395442624

   => Energetics <=

    Nuclear Repulsion Energy =           3675.6650228093108126
    One-Electron Energy =               -9449.0082807668622991
    Two-Electron Energy =                4201.1261740031250156
    Total Energy =                      -1572.2170839544260161

Computation Completed


Properties will be evaluated at   0.000000,   0.000000,   0.000000 [a0]

Properties computed using the SCF density matrix

  Nuclear Dipole Moment: [e a0]
     X:   -41.8507      Y:     5.2211      Z:     5.2154

  Electronic Dipole Moment: [e a0]
     X:    41.9850      Y:    -2.3525      Z:    -5.0454

  Dipole Moment: [e a0]
     X:     0.1344      Y:     2.8686      Z:     0.1700     Total:     2.8768

  Dipole Moment: [D]
     X:     0.3415      Y:     7.2913      Z:     0.4320     Total:     7.3120


*** tstop() called on node85.bme.utexas.edu at Fri Apr 24 12:09:24 2020
Module time:
	user time   =    3077.62 seconds =      51.29 minutes
	system time =      18.61 seconds =       0.31 minutes
	total time  =        541 seconds =       9.02 minutes
Total time:
	user time   =    3077.62 seconds =      51.29 minutes
	system time =      18.61 seconds =       0.31 minutes
	total time  =        541 seconds =       9.02 minutes

*** tstart() called on node85.bme.utexas.edu
*** at Fri Apr 24 12:09:24 2020


  //>>>>>>>>>>>>>>>>>>>>>>>>>>>>>>>>>>>//
  //               DFMP2               //
  //<<<<<<<<<<<<<<<<<<<<<<<<<<<<<<<<<<<//

   => Loading Basis Set <=

    Name: (6-311+G* AUX)
    Role: RIFIT
    Keyword: DF_BASIS_MP2
    atoms 1-4, 6-9, 11, 14-19, 21-28, 30-31, 33-35, 37 entry C          line   148 file /home/bdw2292/miniconda3/envs/p4env/share/psi4/basis/heavy-aug-cc-pvtz-ri.gbs 
    atoms 5, 10, 12-13, 20, 29, 32                     entry N          line   206 file /home/bdw2292/miniconda3/envs/p4env/share/psi4/basis/heavy-aug-cc-pvtz-ri.gbs 
    atoms 36                                           entry O          line   264 file /home/bdw2292/miniconda3/envs/p4env/share/psi4/basis/heavy-aug-cc-pvtz-ri.gbs 
    atoms 38-68                                        entry H          line    44 file /home/bdw2292/miniconda3/envs/p4env/share/psi4/basis/heavy-aug-cc-pvtz-ri.gbs 

	 --------------------------------------------------------
	                          DF-MP2                         
	      2nd-Order Density-Fitted Moller-Plesset Theory     
	              RMP2 Wavefunction,   6 Threads             
	                                                         
	        Rob Parrish, Justin Turney, Andy Simmonett,      
	           Ed Hohenstein, and C. David Sherrill          
	 --------------------------------------------------------

   => Auxiliary Basis Set <=

  Basis Set: (6-311+G* AUX)
    Blend: HEAVY-AUG-CC-PVTZ-RI
    Number of shells: 1346
    Number of basis function: 4852
    Number of Cartesian functions: 6117
    Spherical Harmonics?: true
    Max angular momentum: 4

	 --------------------------------------------------------
	                 NBF =   907, NAUX =  4852
	 --------------------------------------------------------
	   CLASS    FOCC     OCC    AOCC    AVIR     VIR    FVIR
	   PAIRS      37     131      94     776     776       0
	 --------------------------------------------------------

	-----------------------------------------------------------
	 ==================> DF-MP2 Energies <==================== 
	-----------------------------------------------------------
	 Reference Energy          =   -1572.2170839544262435 [Eh]
	 Singles Energy            =      -0.0000000000000000 [Eh]
	 Same-Spin Energy          =      -1.4467129945860913 [Eh]
	 Opposite-Spin Energy      =      -3.8921721713109156 [Eh]
	 Correlation Energy        =      -5.3388851658970067 [Eh]
	 Total Energy              =   -1577.5559691203231978 [Eh]
	-----------------------------------------------------------
	 ================> DF-SCS-MP2 Energies <================== 
	-----------------------------------------------------------
	 SCS Same-Spin Scale       =       0.3333333333333333 [-]
	 SCS Opposite-Spin Scale   =       1.2000000000000000 [-]
	 SCS Same-Spin Energy      =      -0.4822376648620304 [Eh]
	 SCS Opposite-Spin Energy  =      -4.6706066055730986 [Eh]
	 SCS Correlation Energy    =      -5.1528442704351294 [Eh]
	 SCS Total Energy          =   -1577.3699282248612690 [Eh]
	-----------------------------------------------------------


*** tstop() called on node85.bme.utexas.edu at Fri Apr 24 12:14:49 2020
Module time:
	user time   =    1837.20 seconds =      30.62 minutes
	system time =      11.02 seconds =       0.18 minutes
	total time  =        325 seconds =       5.42 minutes
Total time:
	user time   =    4914.82 seconds =      81.91 minutes
	system time =      29.63 seconds =       0.49 minutes
	total time  =        866 seconds =      14.43 minutes


Properties will be evaluated at   0.000000,   0.000000,   0.000000 [a0]
OEProp: No title given, name of density matrix used for the following properties is 'SCF density'


  Wiberg Bond Indices using Orthogonal Lowdin Orbitals:

  Irrep: 1 Size: 68 x 68

                 1                   2                   3                   4                   5

    1     0.00000000000000     1.50984483412480     0.12966327079831     0.14769719277654     0.12895144419506
    2     1.50984483412480     0.00000000000000     1.42447957440024     0.13164033192936     0.12506587420391
    3     0.12966327079831     1.42447957440024     0.00000000000000     1.38240373655110     0.12250579454040
    4     0.14769719277654     0.13164033192936     1.38240373655110     0.00000000000000     1.68417379249170
    5     0.12895144419506     0.12506587420391     0.12250579454040     1.68417379249170     0.00000000000000
    6     1.51093275585798     0.14376018562066     0.13988207407154     0.15772847515210     1.64777277983580
    7     0.01547780612084     0.10556812339569     1.02717422029636     0.10693500527727     0.01453984422301
    8     0.00399086301127     0.04565204150086     0.10060978524863     0.02494616394625     0.00236879075366
    9     0.00044752571779     0.00512061531467     0.01545614561810     0.00435237232436     0.00074037868025
   10     0.00044986618447     0.00556601318731     0.00600337982027     0.00626054256661     0.00035031222671
   11     0.00095300860542     0.00353174098347     0.01846829305712     0.00745870784433     0.00050205007877
   12     0.00301272288126     0.02267702293049     0.12117865798562     0.06557949014919     0.00436520322718
   13     0.00018431723675     0.00053912391539     0.00173003719101     0.00098748330413     0.00009815552083
   14     0.00004484156677     0.00012484124159     0.00065561682340     0.00159641811158     0.00013031191413
   15     0.00001382474259     0.00003146754070     0.00009380942958     0.00019165768408     0.00002078376888
   16     0.00000387665632     0.00000955996458     0.00006160028291     0.00033255346129     0.00001614479891
   17     0.00001409964351     0.00002411344874     0.00007427757134     0.00033639192816     0.00004854403662
   18     0.00003928728756     0.00007289201491     0.00034958144388     0.00226037656772     0.00023487438863
   19     0.00021506535574     0.00030223761174     0.00229172165427     0.01202509846526     0.00063821558202
   20     0.00007050315819     0.00008533012189     0.00037864178466     0.00357474897937     0.00059954862455
   21     0.00001844683487     0.00001892220038     0.00006317193444     0.00047953086384     0.00023085774834
   22     0.00005798525072     0.00004210619438     0.00005757742278     0.00064742185499     0.00163719253423
   23     0.00055219870731     0.00035862919203     0.00048388935912     0.00717889996093     0.02357848338908
   24     0.00023183021748     0.00021570122736     0.00028779705392     0.00128533602109     0.01022649409781
   25     0.00001859704336     0.00001371895624     0.00002185207949     0.00012935826589     0.00052484225254
   26     0.00001243715455     0.00000622372958     0.00001547774127     0.00016760505261     0.00042782816059
   27     0.00001212485727     0.00000616579764     0.00001848154001     0.00018185435976     0.00050743325720
   28     0.00000652492196     0.00000296492669     0.00000357993249     0.00002582886986     0.00006738246330
   29     0.00001571637381     0.00000185020890     0.00000396901075     0.00000861345906     0.00006401206248
   30     0.00009619819755     0.00007863616107     0.00011549513835     0.00003504301585     0.00018051426215
   31     0.00001797135995     0.00001122902604     0.00001240686667     0.00001005280554     0.00003487020505
   32     0.00000248788856     0.00000083180900     0.00000111365606     0.00000158885002     0.00000594393855
   33     0.00000156681511     0.00000066430447     0.00000057958363     0.00000099171461     0.00000238361431
   34     0.00000344328915     0.00000101050441     0.00000068110383     0.00000324742658     0.00000737590073
   35     0.00000272917689     0.00000100634125     0.00000094086637     0.00000445903253     0.00000914362961
   36     0.00000246903159     0.00000326895340     0.00001706071551     0.00015650442399     0.00004840429504
   37     0.00000383603975     0.00001116508197     0.00004949948738     0.00005624494113     0.00000442428318
   38     0.84210658438451     0.05679355616007     0.00960435348455     0.00272592312265     0.00789769927073
   39     0.05350355335315     0.82973580947807     0.05227069609976     0.00961005619024     0.00126896398168
   40     0.00207649229751     0.00819538447707     0.04941727579537     0.80932516160906     0.06243383288538
   41     0.05484186652554     0.00969412661209     0.00258741848530     0.01284338915004     0.06477105110789
   42     0.00072175441947     0.01041910455818     0.01111508743739     0.00057023094294     0.00016323212793
   43     0.00003716382564     0.00020659744635     0.00109685657105     0.00026247727272     0.00006350324045
   44     0.00001374515798     0.00005045170266     0.00023632530359     0.00004380579963     0.00000609525637
   45     0.00000067843047     0.00000181811908     0.00000881389883     0.00001970512673     0.00000205349224
   46     0.00000120951957     0.00000227865161     0.00000704593565     0.00002270223327     0.00000772238221
   47     0.00005495926456     0.00007395657283     0.00133919953366     0.00529083740364     0.00027675972822
   48     0.00003659765891     0.00002899294925     0.00010910815722     0.00121364806752     0.00029525758852
   49     0.00021781062616     0.00006749245864     0.00013559913262     0.00368505710585     0.00821435216099
   50     0.00001663290575     0.00001272508754     0.00003167418030     0.00009311312441     0.00089850494030
   51     0.00000160595661     0.00000078952303     0.00000260166919     0.00001775713221     0.00002513830934
   52     0.00000184639532     0.00000089075583     0.00000282017972     0.00000744834599     0.00003605155146
   53     0.00000084769823     0.00000068115987     0.00000073747584     0.00000371028851     0.00001732917065
   54     0.00000085439020     0.00000030063441     0.00000063505873     0.00000720661827     0.00000568583602
   55     0.00000229999017     0.00000172398688     0.00000287837107     0.00000350745466     0.00003220280271
   56     0.00001249954252     0.00000142455688     0.00000199489943     0.00000125002422     0.00000566036586
   57     0.00000111231293     0.00000041550319     0.00000051430464     0.00000057990200     0.00000232522743
   58     0.00000575058446     0.00000089188365     0.00000150513448     0.00000187976310     0.00000429760852
   59     0.00000043872084     0.00000004982382     0.00000009980683     0.00000033332144     0.00000086739571
   60     0.00000008487107     0.00000004277528     0.00000002893509     0.00000006509269     0.00000032630429
   61     0.00000028822868     0.00000015593995     0.00000012317843     0.00000021895815     0.00000033286925
   62     0.00000035291155     0.00000009361678     0.00000009916605     0.00000034208901     0.00000186004857
   63     0.00000249943335     0.00000076958878     0.00000038450795     0.00000225880807     0.00000480365023
   64     0.00000143773717     0.00000066651873     0.00000027280720     0.00000335260961     0.00000529043265
   65     0.00000055915169     0.00000009172529     0.00000010299541     0.00000026183951     0.00000048437683
   66     0.00000079952981     0.00000157533076     0.00001074577161     0.00000856442417     0.00000064968875
   67     0.00000071915020     0.00000141860826     0.00000610401598     0.00000954432149     0.00000047125101
   68     0.00000033703471     0.00000074085133     0.00000398260236     0.00000881555962     0.00000043025693

                 6                   7                   8                   9                  10

    1     1.51093275585798     0.01547780612084     0.00399086301127     0.00044752571779     0.00044986618447
    2     0.14376018562066     0.10556812339569     0.04565204150086     0.00512061531467     0.00556601318731
    3     0.13988207407154     1.02717422029636     0.10060978524863     0.01545614561810     0.00600337982027
    4     0.15772847515210     0.10693500527727     0.02494616394625     0.00435237232436     0.00626054256661
    5     1.64777277983580     0.01453984422301     0.00236879075366     0.00074037868025     0.00035031222671
    6     0.00000000000000     0.01020193612458     0.00728607755964     0.00128526742379     0.00344403472443
    7     0.01020193612458     0.00000000000000     1.40957732946158     0.15007052056384     0.11304052398030
    8     0.00728607755964     1.40957732946158     0.00000000000000     1.47500186065099     0.13562178847160
    9     0.00128526742379     0.15007052056384     1.47500186065099     0.00000000000000     1.68187860041572
   10     0.00344403472443     0.11304052398030     0.13562178847160     1.68187860041572     0.00000000000000
   11     0.00091864452653     0.14261171771200     0.11668955704978     0.15489157262450     1.51505039829790
   12     0.00633520893376     1.53575919183087     0.12933902968150     0.11377315842799     0.11135004176356
   13     0.00008756962388     0.01998320768682     0.02222429389053     0.02529478248801     0.16551935896681
   14     0.00006189273093     0.00318952966012     0.00265424453161     0.00344585427105     0.01749246201935
   15     0.00000944199295     0.00056501811474     0.00152755754222     0.00100458495311     0.00332608200164
   16     0.00000608797660     0.00020238865381     0.00021525691541     0.00018615423399     0.00053308765918
   17     0.00000868940162     0.00028334186566     0.00135093580530     0.00046363554596     0.00131005924202
   18     0.00005729875090     0.00061916800372     0.00029491943424     0.00016979126755     0.00046956610791
   19     0.00024130713148     0.00626258465781     0.00336781795144     0.00168490619567     0.00459709194644
   20     0.00008177088836     0.00014236010028     0.00003383291609     0.00002339072625     0.00006883219328
   21     0.00003377076310     0.00002698977522     0.00001106536080     0.00000769264307     0.00001985636558
   22     0.00017754137813     0.00001117656797     0.00000469132325     0.00000247355506     0.00000479446920
   23     0.00225346077342     0.00008214920968     0.00002443152491     0.00000746395133     0.00000499781328
   24     0.00220868231868     0.00003486218041     0.00002039247140     0.00000339793257     0.00000251074542
   25     0.00023150562593     0.00000425754020     0.00000266856605     0.00000051894025     0.00000061220134
   26     0.00013759503328     0.00000277594963     0.00000097289506     0.00000039089299     0.00000054304006
   27     0.00010800836737     0.00000430154505     0.00000201695887     0.00000083932286     0.00000141888899
   28     0.00005390401943     0.00000123861857     0.00000044613901     0.00000011374427     0.00000008912501
   29     0.00027807339282     0.00000156891526     0.00000058696590     0.00000013732342     0.00000008719826
   30     0.00078480824777     0.00000687745462     0.00001212454008     0.00000164391880     0.00000575957027
   31     0.00020534400907     0.00000104287040     0.00000124371019     0.00000021936935     0.00000034160836
   32     0.00002997719247     0.00000026661791     0.00000010667537     0.00000002548488     0.00000002807930
   33     0.00001843085618     0.00000025360261     0.00000007719294     0.00000001571130     0.00000001435148
   34     0.00002946571647     0.00000018512850     0.00000013443028     0.00000002882387     0.00000001484433
   35     0.00004355207321     0.00000021347231     0.00000026152348     0.00000003463253     0.00000003405361
   36     0.00001124519857     0.00001443016819     0.00000953790158     0.00000538700510     0.00001301633403
   37     0.00000344126368     0.00018550633147     0.00017324918238     0.00016595195216     0.00087150944530
   38     0.05963085089840     0.00092417505760     0.00017236841216     0.00003373723317     0.00001760602996
   39     0.00969941608493     0.01299113123469     0.01087286357272     0.00074605297472     0.00018804212219
   40     0.01188551571946     0.01224232629787     0.00075016557057     0.00020114388083     0.00023615062865
   41     0.83964117203277     0.00033554456090     0.00007967867174     0.00002587597441     0.00001164262284
   42     0.00020848902455     0.05550739792012     0.82752316859668     0.05774255491003     0.00715605042940
   43     0.00003562305248     0.00944423743122     0.05382517838905     0.83801737911981     0.06623917145162
   44     0.00000445103270     0.00115073230579     0.00062447322809     0.00198833552291     0.01825897481266
   45     0.00000069499367     0.00001891179062     0.00000924673584     0.00002434720839     0.00005348227662
   46     0.00000161442827     0.00001754443960     0.00000632679647     0.00000518915581     0.00001278142208
   47     0.00008289784291     0.00272054074602     0.00040616312693     0.00023349138236     0.00021680060154
   48     0.00002847594066     0.00004286491216     0.00000952286665     0.00000277621185     0.00001150123670
   49     0.00085679320680     0.00001986668270     0.00000646916744     0.00000159407197     0.00000129052697
   50     0.00075616066562     0.00000322802900     0.00000141521124     0.00000024897545     0.00000015752547
   51     0.00000433008930     0.00000032345289     0.00000014607814     0.00000004740056     0.00000003933531
   52     0.00001244965095     0.00000102630538     0.00000023034288     0.00000010304705     0.00000014064036
   53     0.00000739238923     0.00000025175178     0.00000008584479     0.00000001120247     0.00000001407056
   54     0.00000315607756     0.00000013362522     0.00000008272133     0.00000002334040     0.00000001965046
   55     0.00006216191636     0.00000057929598     0.00000016709036     0.00000002746853     0.00000007416596
   56     0.00031628830410     0.00000042720586     0.00000022748366     0.00000004895252     0.00000008074881
   57     0.00000446119217     0.00000003033222     0.00000007510941     0.00000001047585     0.00000002405852
   58     0.00009630295777     0.00000047570968     0.00000020184700     0.00000004057506     0.00000001515649
   59     0.00000392618745     0.00000003404758     0.00000001051304     0.00000000262001     0.00000000183453
   60     0.00000137406518     0.00000001376074     0.00000000281810     0.00000000053642     0.00000000106193
   61     0.00000668334244     0.00000010425582     0.00000002025879     0.00000000198667     0.00000000157742
   62     0.00000817961657     0.00000001916381     0.00000001840189     0.00000000711727     0.00000000087340
   63     0.00002129391184     0.00000009157718     0.00000003217408     0.00000001310621     0.00000000733703
   64     0.00001384298983     0.00000005154047     0.00000005172754     0.00000001163168     0.00000000896624
   65     0.00000503334065     0.00000006865251     0.00000003839277     0.00000000298507     0.00000000231463
   66     0.00000031311714     0.00003417397683     0.00005757780605     0.00001886930557     0.00010321956864
   67     0.00000040667749     0.00002646603057     0.00009536433495     0.00001661750930     0.00015810465203
   68     0.00000020724421     0.00001443382925     0.00000584481280     0.00000355001688     0.00003358382721

                11                  12                  13                  14                  15

    1     0.00095300860542     0.00301272288126     0.00018431723675     0.00004484156677     0.00001382474259
    2     0.00353174098347     0.02267702293049     0.00053912391539     0.00012484124159     0.00003146754070
    3     0.01846829305712     0.12117865798562     0.00173003719101     0.00065561682340     0.00009380942958
    4     0.00745870784433     0.06557949014919     0.00098748330413     0.00159641811158     0.00019165768408
    5     0.00050205007877     0.00436520322718     0.00009815552083     0.00013031191413     0.00002078376888
    6     0.00091864452653     0.00633520893376     0.00008756962388     0.00006189273093     0.00000944199295
    7     0.14261171771200     1.53575919183087     0.01998320768682     0.00318952966012     0.00056501811474
    8     0.11668955704978     0.12933902968150     0.02222429389053     0.00265424453161     0.00152755754222
    9     0.15489157262450     0.11377315842799     0.02529478248801     0.00344585427105     0.00100458495311
   10     1.51505039829790     0.11135004176356     0.16551935896681     0.01749246201935     0.00332608200164
   11     0.00000000000000     1.53765089312425     1.30235498357761     0.08546170141708     0.01848013298029
   12     1.53765089312425     0.00000000000000     0.14514097827210     0.03118196119218     0.00379759216544
   13     1.30235498357761     0.14514097827210     0.00000000000000     1.14819058788890     0.10885401626349
   14     0.08546170141708     0.03118196119218     1.14819058788890     0.00000000000000     1.32710193872513
   15     0.01848013298029     0.00379759216544     0.10885401626349     1.32710193872513     0.00000000000000
   16     0.00257165572509     0.00133960796691     0.01511130453382     0.12892330236623     1.46731802546131
   17     0.00435170967622     0.00261347478208     0.01276170400628     0.12405288499232     0.12852315148724
   18     0.00269598238465     0.00525631234156     0.01374176236103     0.12577074270740     0.12162792418176
   19     0.03036818590283     0.05801683002016     0.11402679254437     1.42784311374297     0.12197623309651
   20     0.00038753916750     0.00108860813574     0.00139645380265     0.01586866702636     0.01194053057911
   21     0.00008162291273     0.00014524326516     0.00033783664671     0.00292751012470     0.00584758863854
   22     0.00001750635303     0.00002453066399     0.00006815302157     0.00041326288195     0.00034932251146
   23     0.00001727698698     0.00010069648945     0.00001870079357     0.00013787658961     0.00038303672547
   24     0.00000359167260     0.00001456776189     0.00000415151790     0.00001767778412     0.00004046038275
   25     0.00000121072764     0.00000279960096     0.00000236196373     0.00002771720581     0.00018066814896
   26     0.00000118170107     0.00000134131392     0.00000320615181     0.00002404902647     0.00003795878684
   27     0.00000536339167     0.00000599722053     0.00001655664199     0.00011909866369     0.00035305784234
   28     0.00000027031698     0.00000067239075     0.00000042731032     0.00000323639141     0.00001217034124
   29     0.00000016560850     0.00000033795043     0.00000012864026     0.00000104046911     0.00000447404573
   30     0.00000084270360     0.00000599584482     0.00000038618320     0.00000079593232     0.00000179554284
   31     0.00000011408754     0.00000058371642     0.00000006756046     0.00000037572909     0.00000100684865
   32     0.00000002475064     0.00000007109622     0.00000001919434     0.00000011551752     0.00000016048035
   33     0.00000002025671     0.00000002298133     0.00000001169344     0.00000006871388     0.00000006641206
   34     0.00000003190597     0.00000005288829     0.00000002092348     0.00000015893807     0.00000025803061
   35     0.00000005153884     0.00000007314596     0.00000006335212     0.00000033715251     0.00000091790452
   36     0.00005215362170     0.00006830224622     0.00017248050046     0.00109923453831     0.00349741679379
   37     0.00434181424090     0.00096524277876     0.04281710461669     0.10132473160780     1.11493673586770
   38     0.00007160806784     0.00024892043423     0.00001173073810     0.00000775159208     0.00000088256753
   39     0.00014542695004     0.00037187110553     0.00005113510457     0.00002296768850     0.00000457311667
   40     0.00185729798988     0.01807253489851     0.00022093403973     0.00082704382058     0.00008139583270
   41     0.00002580104336     0.00009257190045     0.00000421589220     0.00000385908445     0.00000073905657
   42     0.00285863708689     0.00760218159329     0.00030622578353     0.00004553495849     0.00001438515129
   43     0.01302980531648     0.00139273509611     0.00080581073374     0.00029484816749     0.00004456035907
   44     0.04495591942682     0.00620347724552     0.79206501799851     0.03748990013049     0.00972971186725
   45     0.00033189416142     0.00004228384619     0.00088542763346     0.00939004768181     0.05412143128623
   46     0.00003917146907     0.00009354979713     0.00014160048563     0.00216215008572     0.00827872296497
   47     0.00715043092262     0.02439268402318     0.01190213483723     0.05074303107901     0.00746004217301
   48     0.00006315212668     0.00043330662560     0.00007571538175     0.00121154771653     0.00033424380741
   49     0.00000281939101     0.00002164935940     0.00000260899432     0.00001406976622     0.00007626350000
   50     0.00000040841959     0.00000131627446     0.00000026891858     0.00000153308446     0.00000063700897
   51     0.00000016318179     0.00000008791626     0.00000056717825     0.00000318233440     0.00000247381889
   52     0.00000060493040     0.00000056657301     0.00000130930739     0.00001174477828     0.00000755971360
   53     0.00000006615772     0.00000010162496     0.00000008476925     0.00000115219335     0.00000859018073
   54     0.00000002511636     0.00000005762235     0.00000006727497     0.00000037998243     0.00000075389288
   55     0.00000004159331     0.00000012843171     0.00000002918280     0.00000015201044     0.00000026962372
   56     0.00000002978100     0.00000012678990     0.00000002098334     0.00000013546371     0.00000007884941
   57     0.00000000859062     0.00000001696576     0.00000000623760     0.00000002785136     0.00000015985419
   58     0.00000002889331     0.00000018335414     0.00000001838367     0.00000012407117     0.00000036929812
   59     0.00000000450291     0.00000000639404     0.00000000131618     0.00000000713331     0.00000001087851
   60     0.00000000199589     0.00000000188849     0.00000000062826     0.00000000399243     0.00000001143615
   61     0.00000000691965     0.00000000356888     0.00000000127300     0.00000001095372     0.00000000935226
   62     0.00000000314985     0.00000001126087     0.00000000202361     0.00000002511766     0.00000003035370
   63     0.00000001848047     0.00000002824478     0.00000000594027     0.00000005648419     0.00000004966508
   64     0.00000002383867     0.00000002438774     0.00000001112562     0.00000014330557     0.00000021502956
   65     0.00000000816676     0.00000000636917     0.00000000292146     0.00000001970134     0.00000006536201
   66     0.00065255550524     0.00019048193753     0.00726862691094     0.01385715230982     0.04145064322216
   67     0.00080328879577     0.00021775876673     0.00790871133894     0.01378561442798     0.04196404715029
   68     0.00019512861564     0.00006135199021     0.00164156628990     0.00680250688952     0.04511372578349

                16                  17                  18                  19                  20

    1     0.00000387665632     0.00001409964351     0.00003928728756     0.00021506535574     0.00007050315819
    2     0.00000955996458     0.00002411344874     0.00007289201491     0.00030223761174     0.00008533012189
    3     0.00006160028291     0.00007427757134     0.00034958144388     0.00229172165427     0.00037864178466
    4     0.00033255346129     0.00033639192816     0.00226037656772     0.01202509846526     0.00357474897937
    5     0.00001614479891     0.00004854403662     0.00023487438863     0.00063821558202     0.00059954862455
    6     0.00000608797660     0.00000868940162     0.00005729875090     0.00024130713148     0.00008177088836
    7     0.00020238865381     0.00028334186566     0.00061916800372     0.00626258465781     0.00014236010028
    8     0.00021525691541     0.00135093580530     0.00029491943424     0.00336781795144     0.00003383291609
    9     0.00018615423399     0.00046363554596     0.00016979126755     0.00168490619567     0.00002339072625
   10     0.00053308765918     0.00131005924202     0.00046956610791     0.00459709194644     0.00006883219328
   11     0.00257165572509     0.00435170967622     0.00269598238465     0.03036818590283     0.00038753916750
   12     0.00133960796691     0.00261347478208     0.00525631234156     0.05801683002016     0.00108860813574
   13     0.01511130453382     0.01276170400628     0.01374176236103     0.11402679254437     0.00139645380265
   14     0.12892330236623     0.12405288499232     0.12577074270740     1.42784311374297     0.01586866702636
   15     1.46731802546131     0.12852315148724     0.12162792418176     0.12197623309651     0.01194053057911
   16     0.00000000000000     1.49016931716733     0.13676368101260     0.13236564433008     0.01457947994667
   17     1.49016931716733     0.00000000000000     1.42363972286851     0.12545459791140     0.10795874201202
   18     0.13676368101260     1.42363972286851     0.00000000000000     1.38852662661515     1.15045846123655
   19     0.13236564433008     0.12545459791140     1.38852662661515     0.00000000000000     0.13048612363325
   20     0.01457947994667     0.10795874201202     1.15045846123655     0.13048612363325     0.00000000000000
   21     0.00304825125008     0.03327830829986     0.08880436087323     0.02357254795410     1.34260419472233
   22     0.00042378734983     0.00360663267406     0.01514890927880     0.00229921698117     0.10601828767528
   23     0.00018887156600     0.00139148519919     0.00431878936969     0.00141097876072     0.04598864807858
   24     0.00003070714374     0.00020143584839     0.00047431646930     0.00015321177378     0.00392803907874
   25     0.00003201780602     0.00030263019586     0.00044848008126     0.00026394430373     0.00369905408466
   26     0.00002823065519     0.00016706662549     0.00056505054002     0.00012703253504     0.00272441045466
   27     0.00013288898563     0.00103713061049     0.00246770857999     0.00078353174248     0.01867653951278
   28     0.00000378225143     0.00002917660390     0.00005093941720     0.00002353375185     0.00030492308179
   29     0.00000106155236     0.00000736539228     0.00001212430121     0.00000678731157     0.00008291309860
   30     0.00000072752488     0.00000523002980     0.00000961720688     0.00000409396655     0.00004936203207
   31     0.00000035182959     0.00000269475348     0.00000403395994     0.00000216088529     0.00002233046385
   32     0.00000011058889     0.00000052328569     0.00000098210229     0.00000064842218     0.00000303063398
   33     0.00000005886204     0.00000031054549     0.00000054465486     0.00000024749691     0.00000133426712
   34     0.00000016556438     0.00000086574474     0.00000237818548     0.00000074650602     0.00000575686580
   35     0.00000036532562     0.00000209600017     0.00000507866523     0.00000194026700     0.00001979870655
   36     0.00379283409867     0.05243204767697     0.03268698739173     0.00553946263561     0.19684976385088
   37     0.12256972404085     0.01589724715044     0.00765876186004     0.01534649460211     0.00081285678493
   38     0.00000056701193     0.00000090850385     0.00000733303834     0.00002473701386     0.00000656025929
   39     0.00000172288207     0.00000220478280     0.00000493803608     0.00002905057163     0.00000646606091
   40     0.00017115671524     0.00014186065520     0.00143994918040     0.00602925853257     0.00139775582440
   41     0.00000064805710     0.00000118197895     0.00000290686638     0.00001272532249     0.00000550884787
   42     0.00000601892656     0.00000553436608     0.00002425835600     0.00012318919303     0.00000782339359
   43     0.00001125806431     0.00000552347828     0.00001331984673     0.00007279426468     0.00000121327332
   44     0.00067043432468     0.00029993494949     0.00076172455455     0.00653632792551     0.00018377977126
   45     0.83147815141411     0.05598374239154     0.00974649888531     0.00228567290113     0.00072361044258
   46     0.05506086011941     0.81074497367464     0.05423214634565     0.00889147265888     0.01065380841793
   47     0.00222861789473     0.00809906006722     0.05142176830604     0.79080176865509     0.01918508258983
   48     0.00072515420004     0.00603817031815     0.03904788042924     0.01499986317590     0.79815068080581
   49     0.00002977519140     0.00023779053367     0.00112682130600     0.00041513985843     0.01227557524344
   50     0.00000185817813     0.00000953321998     0.00002151956298     0.00000667108251     0.00010610216958
   51     0.00000259355918     0.00001598831396     0.00005786233711     0.00001692614010     0.00023817883227
   52     0.00002215597395     0.00010575564420     0.00013001016113     0.00004574682774     0.00056130321100
   53     0.00000113356534     0.00001251712566     0.00001615459069     0.00001085353327     0.00011884079732
   54     0.00000066392727     0.00000265196670     0.00000987086483     0.00000269337991     0.00005788343815
   55     0.00000014762414     0.00000073679607     0.00000175700102     0.00000090280752     0.00000855332673
   56     0.00000003115275     0.00000043261334     0.00000042704447     0.00000038216834     0.00000199195158
   57     0.00000002894061     0.00000021289485     0.00000016714817     0.00000019063648     0.00000132331317
   58     0.00000012831426     0.00000103194818     0.00000116778388     0.00000068931369     0.00000745850353
   59     0.00000000920684     0.00000002292861     0.00000005346807     0.00000002076177     0.00000035064261
   60     0.00000000773981     0.00000006564137     0.00000006011694     0.00000000878993     0.00000013095725
   61     0.00000000337379     0.00000001880284     0.00000001291136     0.00000002908293     0.00000007623173
   62     0.00000001360248     0.00000002841837     0.00000015942785     0.00000006927011     0.00000036742003
   63     0.00000004677789     0.00000020407835     0.00000135965011     0.00000023191750     0.00000193686044
   64     0.00000008817077     0.00000054116770     0.00000207753727     0.00000053076789     0.00000371268968
   65     0.00000001655554     0.00000013917978     0.00000045175739     0.00000021290931     0.00000098040193
   66     0.01279823438989     0.00085036662855     0.00284921874420     0.00079479997210     0.00036942561145
   67     0.01269409096179     0.00082475470342     0.00268450988435     0.00086414770467     0.00032728007479
   68     0.01952424079710     0.00142603849091     0.00033867919059     0.00072761841663     0.00006830536677

                21                  22                  23                  24                  25

    1     0.00001844683487     0.00005798525072     0.00055219870731     0.00023183021748     0.00001859704336
    2     0.00001892220038     0.00004210619438     0.00035862919203     0.00021570122736     0.00001371895624
    3     0.00006317193444     0.00005757742278     0.00048388935912     0.00028779705392     0.00002185207949
    4     0.00047953086384     0.00064742185499     0.00717889996093     0.00128533602109     0.00012935826589
    5     0.00023085774834     0.00163719253423     0.02357848338908     0.01022649409781     0.00052484225254
    6     0.00003377076310     0.00017754137813     0.00225346077342     0.00220868231868     0.00023150562593
    7     0.00002698977522     0.00001117656797     0.00008214920968     0.00003486218041     0.00000425754020
    8     0.00001106536080     0.00000469132325     0.00002443152491     0.00002039247140     0.00000266856605
    9     0.00000769264307     0.00000247355506     0.00000746395133     0.00000339793257     0.00000051894025
   10     0.00001985636558     0.00000479446920     0.00000499781328     0.00000251074542     0.00000061220134
   11     0.00008162291273     0.00001750635303     0.00001727698698     0.00000359167260     0.00000121072764
   12     0.00014524326516     0.00002453066399     0.00010069648945     0.00001456776189     0.00000279960096
   13     0.00033783664671     0.00006815302157     0.00001870079357     0.00000415151790     0.00000236196373
   14     0.00292751012470     0.00041326288195     0.00013787658961     0.00001767778412     0.00002771720581
   15     0.00584758863854     0.00034932251146     0.00038303672547     0.00004046038275     0.00018066814896
   16     0.00304825125008     0.00042378734983     0.00018887156600     0.00003070714374     0.00003201780602
   17     0.03327830829986     0.00360663267406     0.00139148519919     0.00020143584839     0.00030263019586
   18     0.08880436087323     0.01514890927880     0.00431878936969     0.00047431646930     0.00044848008126
   19     0.02357254795410     0.00229921698117     0.00141097876072     0.00015321177378     0.00026394430373
   20     1.34260419472233     0.10601828767528     0.04598864807858     0.00392803907874     0.00369905408466
   21     0.00000000000000     0.98311629767671     0.10696700934243     0.01542722340763     0.01173244452923
   22     0.98311629767671     0.00000000000000     1.42484760955605     0.13216672492425     0.12543431680725
   23     0.10696700934243     1.42484760955605     0.00000000000000     1.50703210424675     0.13012189307425
   24     0.01542722340763     0.13216672492425     1.50703210424675     0.00000000000000     1.43130345470596
   25     0.01173244452923     0.12543431680725     0.13012189307425     1.43130345470596     0.00000000000000
   26     0.01576308447610     0.13025339844698     0.13787636833143     0.13009673578277     1.42750766943633
   27     0.11455981931127     1.40789978192136     0.12763508040980     0.13801117252009     0.13061963249552
   28     0.00082238203729     0.00845201057903     0.01565036670193     0.10684642668136     1.06100336069141
   29     0.00020981862716     0.00205656433478     0.00189733311367     0.02432566356002     0.07039405198187
   30     0.00015978895160     0.00140690856491     0.00541729358969     0.03375852140067     0.02867808134415
   31     0.00006218924655     0.00063384232529     0.00099658335695     0.00841288522904     0.01637648799208
   32     0.00000940374030     0.00006785033107     0.00015293724009     0.00112055265758     0.00244017787174
   33     0.00000534026786     0.00003990445881     0.00007234204426     0.00037903849659     0.00074290073700
   34     0.00001937345186     0.00011063157556     0.00016896129615     0.00114680267777     0.00440460170621
   35     0.00005319865434     0.00043883786019     0.00042830139260     0.00355892231494     0.01518373172552
   36     2.17595569723676     0.13829609652866     0.02620736237070     0.00350310898734     0.00663397936449
   37     0.00034481749188     0.00004560276069     0.00003055339486     0.00000412372108     0.00000953091161
   38     0.00000262960950     0.00000449418690     0.00002643462147     0.00000893397152     0.00000116866061
   39     0.00000120075445     0.00000256514353     0.00002049729093     0.00001411145266     0.00000165518000
   40     0.00019559478403     0.00009613321737     0.00076461206492     0.00006075932570     0.00001612550761
   41     0.00000133665188     0.00000691673450     0.00006404659438     0.00012669409688     0.00000831870005
   42     0.00000187812337     0.00000074307088     0.00000680220039     0.00000196635527     0.00000017519614
   43     0.00000085401264     0.00000036622746     0.00000184139485     0.00000084276978     0.00000002964396
   44     0.00004588467618     0.00001146367474     0.00000338760229     0.00000068021901     0.00000057943170
   45     0.00017546942999     0.00004154509680     0.00003749025183     0.00000527870336     0.00000186949457
   46     0.00716663497749     0.00042504194787     0.00011083995447     0.00003414402109     0.00001893055062
   47     0.00163078141341     0.00017440339756     0.00019343624582     0.00001250468631     0.00000767712708
   48     0.04562607589534     0.01103052177420     0.01000445916427     0.00097500548712     0.00034576911500
   49     0.01308228058049     0.05342216285478     0.81374501221220     0.05406926534459     0.00853459142080
   50     0.00090861232427     0.00900133968977     0.05515878701877     0.81802981758259     0.05278441998790
   51     0.00095052940803     0.00931694372041     0.00229969368454     0.00974039673088     0.05425608393660
   52     0.01596390507457     0.05243150574671     0.00906444585186     0.00211069639697     0.00878225807599
   53     0.00033817403350     0.00315092120835     0.00082058763052     0.01370958965084     0.04068463208081
   54     0.00011762423137     0.00071073989051     0.00073714299725     0.00661370054401     0.04306914416936
   55     0.00003171928370     0.00034220371746     0.00203510883729     0.01293106002823     0.00729794775696
   56     0.00000219173956     0.00002822991241     0.00010752001585     0.00095774815228     0.00098778416408
   57     0.00000348203775     0.00002554239233     0.00001986534918     0.00014694961135     0.00026453261806
   58     0.00001159908413     0.00025355951974     0.00040556834920     0.00304915936198     0.00844491436512
   59     0.00000165095731     0.00000989727334     0.00001635210337     0.00007353953284     0.00005735412945
   60     0.00000062553002     0.00000558425547     0.00000764218160     0.00002487405012     0.00005165021011
   61     0.00000024218148     0.00000226319703     0.00000192720610     0.00002082275397     0.00002032073695
[...]
   15     0.00000007884941     0.00000015985419     0.00000036929812     0.00000001087851     0.00000001143615
   16     0.00000003115275     0.00000002894061     0.00000012831426     0.00000000920684     0.00000000773981
   17     0.00000043261334     0.00000021289485     0.00000103194818     0.00000002292861     0.00000006564137
   18     0.00000042704447     0.00000016714817     0.00000116778388     0.00000005346807     0.00000006011694
   19     0.00000038216834     0.00000019063648     0.00000068931369     0.00000002076177     0.00000000878993
   20     0.00000199195158     0.00000132331317     0.00000745850353     0.00000035064261     0.00000013095725
   21     0.00000219173956     0.00000348203775     0.00001159908413     0.00000165095731     0.00000062553002
   22     0.00002822991241     0.00002554239233     0.00025355951974     0.00000989727334     0.00000558425547
   23     0.00010752001585     0.00001986534918     0.00040556834920     0.00001635210337     0.00000764218160
   24     0.00095774815228     0.00014694961135     0.00304915936198     0.00007353953284     0.00002487405012
   25     0.00098778416408     0.00026453261806     0.00844491436512     0.00005735412945     0.00005165021011
   26     0.00028150596157     0.00014815559465     0.00392492519624     0.00002142889361     0.00003265454285
   27     0.00018396076232     0.00004444147776     0.00065165658355     0.00000730265038     0.00000902438515
   28     0.01144549296930     0.00077309170993     0.00927426385661     0.00022150272999     0.00006798436109
   29     0.05659126550661     0.01174193495960     0.01247112847363     0.00103216889315     0.00015116983465
   30     0.78988080370320     0.04893527547631     0.04130874318897     0.00800596594400     0.00220730092214
   31     0.04123008111314     0.82502167735457     0.77386300298408     0.01316120845728     0.01525104072794
   32     0.01160512581619     0.04633923355094     0.05780604879193     0.04906546675223     0.04738535703480
   33     0.01250289028135     0.02038479948072     0.01192822889745     0.89148803275757     0.90372047740083
   34     0.00717442640694     0.01338690787973     0.01849983484871     0.01321779584044     0.01036456157172
   35     0.01986868830916     0.00127689884007     0.00669884815514     0.00784626484945     0.00095252928545
   36     0.00000238756942     0.00000214705565     0.00000827755818     0.00000069579355     0.00000035143475
   37     0.00000000705508     0.00000001132427     0.00000001919381     0.00000000256584     0.00000000067031
   38     0.00000007566650     0.00000013146514     0.00000007702409     0.00000003388811     0.00000001156015
   39     0.00000047657934     0.00000002447449     0.00000010369229     0.00000001559797     0.00000000705249
   40     0.00000009080098     0.00000001680594     0.00000027676563     0.00000001348960     0.00000000997366
   41     0.00000528976405     0.00000045886722     0.00000366388713     0.00000011309597     0.00000007808305
   42     0.00000001115384     0.00000000188251     0.00000000094577     0.00000000086973     0.00000000029515
   43     0.00000000198694     0.00000000048138     0.00000000304592     0.00000000011895     0.00000000005483
   44     0.00000000215540     0.00000000017089     0.00000000153895     0.00000000039219     0.00000000015273
   45     0.00000000562167     0.00000000437748     0.00000002336322     0.00000000024991     0.00000000007049
   46     0.00000002528814     0.00000002003262     0.00000000709341     0.00000000192407     0.00000000265281
   47     0.00000000111503     0.00000000584218     0.00000000941165     0.00000000071497     0.00000000012363
   48     0.00000046365918     0.00000003742374     0.00000217120058     0.00000010386788     0.00000001522426
   49     0.00000252465505     0.00000317082155     0.00000023658192     0.00000011513089     0.00000002874463
   50     0.00011004045051     0.00002878595066     0.00005763629540     0.00002758115907     0.00000337491883
   51     0.00002306538479     0.00000858637387     0.00020553586744     0.00000330857641     0.00000022737904
   52     0.00000056155685     0.00000242505567     0.00000123211111     0.00000013121378     0.00000001724560
   53     0.00019446200758     0.00029185831472     0.00004896288712     0.00003131149432     0.00000661181760
   54     0.00063967371476     0.00001271185905     0.00104621600459     0.00002676770156     0.00000423717535
   55     0.00843525025130     0.00184642117673     0.00343103216391     0.00015610984803     0.00001143351070
   56     0.00000000000000     0.00368636311639     0.02098961762161     0.00154120661807     0.00024121800819
   57     0.00368636311639     0.00000000000000     0.00780467029249     0.00119703993407     0.00210401507720
   58     0.02098961762161     0.00780467029249     0.00000000000000     0.00012008478380     0.00082454235593
   59     0.00154120661807     0.00119703993407     0.00012008478380     0.00000000000000     0.00737666249765
   60     0.00024121800819     0.00210401507720     0.00082454235593     0.00737666249765     0.00000000000000
   61     0.00008217304476     0.00061232584660     0.00017947232140     0.00742090675778     0.00941721471542
   62     0.00002719000605     0.00060706855230     0.00043931313600     0.00097610004150     0.00056999037161
   63     0.00011390384612     0.00072553763984     0.00090901916510     0.00011078137199     0.00017049892604
   64     0.00113133977041     0.00009825361740     0.00012690881053     0.00129050953900     0.00007107255873
   65     0.00095191242778     0.00065470224688     0.00006697779481     0.00009566783015     0.00020097196922
   66     0.00000000031184     0.00000000589181     0.00000000930965     0.00000000015999     0.00000000041193
   67     0.00000000072176     0.00000000520271     0.00000000923112     0.00000000048588     0.00000000018080
   68     0.00000000104413     0.00000000038980     0.00000000067513     0.00000000021702     0.00000000007762

                61                  62                  63                  64                  65

    1     0.00000028822868     0.00000035291155     0.00000249943335     0.00000143773717     0.00000055915169
    2     0.00000015593995     0.00000009361678     0.00000076958878     0.00000066651873     0.00000009172529
    3     0.00000012317843     0.00000009916605     0.00000038450795     0.00000027280720     0.00000010299541
    4     0.00000021895815     0.00000034208901     0.00000225880807     0.00000335260961     0.00000026183951
    5     0.00000033286925     0.00000186004857     0.00000480365023     0.00000529043265     0.00000048437683
    6     0.00000668334244     0.00000817961657     0.00002129391184     0.00001384298983     0.00000503334065
    7     0.00000010425582     0.00000001916381     0.00000009157718     0.00000005154047     0.00000006865251
    8     0.00000002025879     0.00000001840189     0.00000003217408     0.00000005172754     0.00000003839277
    9     0.00000000198667     0.00000000711727     0.00000001310621     0.00000001163168     0.00000000298507
   10     0.00000000157742     0.00000000087340     0.00000000733703     0.00000000896624     0.00000000231463
   11     0.00000000691965     0.00000000314985     0.00000001848047     0.00000002383867     0.00000000816676
   12     0.00000000356888     0.00000001126087     0.00000002824478     0.00000002438774     0.00000000636917
   13     0.00000000127300     0.00000000202361     0.00000000594027     0.00000001112562     0.00000000292146
   14     0.00000001095372     0.00000002511766     0.00000005648419     0.00000014330557     0.00000001970134
   15     0.00000000935226     0.00000003035370     0.00000004966508     0.00000021502956     0.00000006536201
   16     0.00000000337379     0.00000001360248     0.00000004677789     0.00000008817077     0.00000001655554
   17     0.00000001880284     0.00000002841837     0.00000020407835     0.00000054116770     0.00000013917978
   18     0.00000001291136     0.00000015942785     0.00000135965011     0.00000207753727     0.00000045175739
   19     0.00000002908293     0.00000006927011     0.00000023191750     0.00000053076789     0.00000021290931
   20     0.00000007623173     0.00000036742003     0.00000193686044     0.00000371268968     0.00000098040193
   21     0.00000024218148     0.00000074556815     0.00000821286308     0.00001011621875     0.00000503561485
   22     0.00000226319703     0.00000909278215     0.00003235214362     0.00009420283511     0.00003500299042
   23     0.00000192720610     0.00000852162860     0.00003121538767     0.00008659663577     0.00004874851210
   24     0.00002082275397     0.00004794556219     0.00018484116647     0.00029303630345     0.00030473412451
   25     0.00002032073695     0.00016454687616     0.00180654673492     0.00155514299951     0.00121631225468
   26     0.00000880096049     0.00005321285596     0.00083970610437     0.00052872912934     0.00013775549998
   27     0.00000126014852     0.00000947993473     0.00002306836098     0.00010531539968     0.00003520211162
   28     0.00008692655893     0.00090810788313     0.01214057892563     0.01109460477262     0.02166523922554
   29     0.00010887124610     0.00929340539196     0.01203033463171     0.05477201415608     0.04531405083321
   30     0.00104143683256     0.00143631616318     0.00705423912212     0.01934075679522     0.01264749475927
   31     0.01066459320768     0.01171760010407     0.01936179074651     0.00693502661659     0.00119761411448
   32     0.04778535368570     0.04377054799268     0.05739698056578     0.01086848102813     0.01043968787825
   33     0.90358119830068     0.01718973176647     0.01205579160307     0.01099875790175     0.00087384350895
   34     0.01461141188790     0.84472980573658     0.78996453970204     0.04026581162812     0.04620761465762
   35     0.00223506981675     0.04422044690279     0.04173711567623     0.79656280094912     0.82826016687955
   36     0.00000013867712     0.00000035641989     0.00000209331091     0.00000783075563     0.00000225839129
   37     0.00000000125096     0.00000000980572     0.00000004543398     0.00000005286003     0.00000001571167
   38     0.00000000405759     0.00000000075083     0.00000002173889     0.00000001190231     0.00000001103947
   39     0.00000000434471     0.00000000698456     0.00000002637560     0.00000001266271     0.00000000736953
   40     0.00000000090048     0.00000001342578     0.00000000285592     0.00000001137790     0.00000000831951
   41     0.00000005938183     0.00000016151544     0.00000010624061     0.00000006239149     0.00000035419839
   42     0.00000000082892     0.00000000016584     0.00000000027959     0.00000000136430     0.00000000028357
   43     0.00000000007879     0.00000000033852     0.00000000040651     0.00000000039131     0.00000000029974
   44     0.00000000021696     0.00000000012134     0.00000000263212     0.00000000335780     0.00000000018734
   45     0.00000000033438     0.00000000067031     0.00000000063953     0.00000000176798     0.00000000141179
   46     0.00000000666104     0.00000000266410     0.00000001255768     0.00000002608487     0.00000001156846
   47     0.00000000061310     0.00000001235337     0.00000000022370     0.00000000753679     0.00000001176081
   48     0.00000000413376     0.00000004245311     0.00000017227135     0.00000059101966     0.00000008262098
   49     0.00000006106896     0.00000009125295     0.00000078802150     0.00000270461612     0.00000436220889
   50     0.00000362653010     0.00000466983458     0.00005315976833     0.00008037179261     0.00006720057009
   51     0.00000009874201     0.00000199615944     0.00004388547229     0.00001818469184     0.00000406737930
   52     0.00000006717864     0.00000077584388     0.00000349390214     0.00001238819200     0.00000272862268
   53     0.00000297917180     0.00012749352738     0.00014394856403     0.00051348770090     0.00065398680596
   54     0.00002412320157     0.00033502321419     0.00129160602765     0.00008378800249     0.00202353044693
   55     0.00009471792061     0.00019720682472     0.00010274935017     0.00018537119554     0.00033239510944
   56     0.00008217304476     0.00002719000605     0.00011390384612     0.00113133977041     0.00095191242778
   57     0.00061232584660     0.00060706855230     0.00072553763984     0.00009825361740     0.00065470224688
   58     0.00017947232140     0.00043931313600     0.00090901916510     0.00012690881053     0.00006697779481
   59     0.00742090675778     0.00097610004150     0.00011078137199     0.00129050953900     0.00009566783015
   60     0.00941721471542     0.00056999037161     0.00017049892604     0.00007107255873     0.00020097196922
   61     0.00000000000000     0.00180184086190     0.00079960642725     0.00021580398283     0.00003786175951
   62     0.00180184086190     0.00000000000000     0.00660117656473     0.00331465663837     0.00173375728787
   63     0.00079960642725     0.00660117656473     0.00000000000000     0.01928067872378     0.00427024316401
   64     0.00021580398283     0.00331465663837     0.01928067872378     0.00000000000000     0.00703920886967
   65     0.00003786175951     0.00173375728787     0.00427024316401     0.00703920886967     0.00000000000000
   66     0.00000000007399     0.00000000052758     0.00000000166422     0.00000001139076     0.00000000132317
   67     0.00000000046641     0.00000000132002     0.00000000105858     0.00000000695545     0.00000000284379
   68     0.00000000004258     0.00000000018181     0.00000000139733     0.00000000090686     0.00000000121496

                66                  67                  68

    1     0.00000079952981     0.00000071915020     0.00000033703471
    2     0.00000157533076     0.00000141860826     0.00000074085133
    3     0.00001074577161     0.00000610401598     0.00000398260236
    4     0.00000856442417     0.00000954432149     0.00000881555962
    5     0.00000064968875     0.00000047125101     0.00000043025693
    6     0.00000031311714     0.00000040667749     0.00000020724421
    7     0.00003417397683     0.00002646603057     0.00001443382925
    8     0.00005757780605     0.00009536433495     0.00000584481280
    9     0.00001886930557     0.00001661750930     0.00000355001688
   10     0.00010321956864     0.00015810465203     0.00003358382721
   11     0.00065255550524     0.00080328879577     0.00019512861564
   12     0.00019048193753     0.00021775876673     0.00006135199021
   13     0.00726862691094     0.00790871133894     0.00164156628990
   14     0.01385715230982     0.01378561442798     0.00680250688952
   15     0.04145064322216     0.04196404715029     0.04511372578349
   16     0.01279823438989     0.01269409096179     0.01952424079710
   17     0.00085036662855     0.00082475470342     0.00142603849091
   18     0.00284921874420     0.00268450988435     0.00033867919059
   19     0.00079479997210     0.00086414770467     0.00072761841663
   20     0.00036942561145     0.00032728007479     0.00006830536677
   21     0.00021386357548     0.00019617048596     0.00002704488107
   22     0.00001007797187     0.00001369428890     0.00000768378944
   23     0.00001541821940     0.00001397611001     0.00000303753937
   24     0.00000145993439     0.00000176640328     0.00000038568120
   25     0.00000769900848     0.00000713017524     0.00000031070517
   26     0.00000139190082     0.00000140156997     0.00000039953695
   27     0.00001286443773     0.00001389857304     0.00000171507839
   28     0.00000049593889     0.00000044446480     0.00000006966148
   29     0.00000017242055     0.00000018909697     0.00000001536811
   30     0.00000007476992     0.00000008880905     0.00000001803268
   31     0.00000003702550     0.00000005568071     0.00000001024270
   32     0.00000000740007     0.00000000612962     0.00000000153734
   33     0.00000000274843     0.00000000252827     0.00000000401631
   34     0.00000000670298     0.00000000923805     0.00000000279434
   35     0.00000003142167     0.00000005020488     0.00000001133614
   36     0.00012283285628     0.00012234074010     0.00001387390762
   37     0.89903115210097     0.89796744731833     0.90347575326596
   38     0.00000007763594     0.00000008321287     0.00000001749043
   39     0.00000013879880     0.00000003261924     0.00000006642220
   40     0.00000122073807     0.00000643061933     0.00000324274365
   41     0.00000005322385     0.00000000972244     0.00000005223286
   42     0.00000025528578     0.00000090253597     0.00000008741262
   43     0.00000067859809     0.00000077847002     0.00000021649967
   44     0.00140571789573     0.00108980424743     0.00042650669169
   45     0.00010521784627     0.00009903599934     0.00219371377299
   46     0.00013157420461     0.00014030094678     0.00002992679097
   47     0.00007033280450     0.00007207783371     0.00025835940642
   48     0.00000633445580     0.00000995598827     0.00001745178656
   49     0.00000338640765     0.00000150473099     0.00000016660748
   50     0.00000003329680     0.00000005055175     0.00000003225186
   51     0.00000018431535     0.00000004009409     0.00000004453758
   52     0.00000058494395     0.00000016099746     0.00000019211515
   53     0.00000032110033     0.00000037228298     0.00000000998159
   54     0.00000003876118     0.00000002205795     0.00000000975458
   55     0.00000000490844     0.00000000829665     0.00000000141577
   56     0.00000000031184     0.00000000072176     0.00000000104413
   57     0.00000000589181     0.00000000520271     0.00000000038980
   58     0.00000000930965     0.00000000923112     0.00000000067513
   59     0.00000000015999     0.00000000048588     0.00000000021702
   60     0.00000000041193     0.00000000018080     0.00000000007762
   61     0.00000000007399     0.00000000046641     0.00000000004258
   62     0.00000000052758     0.00000000132002     0.00000000018181
   63     0.00000000166422     0.00000000105858     0.00000000139733
   64     0.00000001139076     0.00000000695545     0.00000000090686
   65     0.00000000132317     0.00000000284379     0.00000000121496
   66     0.00000000000000     0.00692897362888     0.00908623403223
   67     0.00692897362888     0.00000000000000     0.00920677760261
   68     0.00908623403223     0.00920677760261     0.00000000000000



  Atomic Valences: 

 #  #
 Irrep: 1
      1:  4.4067271
      2:  4.4401650
      3:  4.6226089
      4:  4.5966363
      5:  3.9171237
      6:  4.5601103
      7:  4.7580791
      8:  4.3774634
      9:  4.5345496
     10:  3.8659567
     11:  5.0221061
     12:  3.9602325
     13:  3.9649624
     14:  4.6865649
     15:  4.6507475
     16:  4.4563925
     17:  4.4166136
     18:  4.6896531
     19:  4.4429215
     20:  4.0054869
     21:  5.0134878
     22:  4.6269761
     23:  4.4698441
     24:  4.4800313
     25:  4.6988908
     26:  4.4552763
     27:  4.4402671
     28:  4.5323771
     29:  4.2354484
     30:  4.6201669
     31:  4.5796908
     32:  4.2653216
     33:  4.3048107
     34:  4.6094147
     35:  4.5936452
     36:  2.7544525
     37:  4.1579112
     38:  0.9887302
     39:  0.9887445
     40:  0.9909681
     41:  0.9893338
     42:  0.9880137
     43:  0.9887664
     44:  0.9342019
     45:  0.9903893
     46:  0.9826132
     47:  0.9926878
     48:  0.9454562
     49:  0.9911901
     50:  0.9876096
     51:  0.9893296
     52:  0.9822419
     53:  0.9902967
     54:  0.9988667
     55:  1.0292978
     56:  0.9913706
     57:  0.9882113
     58:  0.9849802
     59:  1.0046075
     60:  1.0012373
     61:  1.0008717
     62:  0.9903102
     63:  0.9893270
     64:  0.9870171
     65:  0.9865394
     66:  0.9984770
     67:  0.9982854
     68:  1.0007245


    Psi4 stopped on: Friday, 24 April 2020 12:14PM
    Psi4 wall time for execution: 0:14:25.99

*** Psi4 exiting successfully. Buy a developer a beer!
