
    -----------------------------------------------------------------------
          Psi4: An Open-Source Ab Initio Electronic Structure Package
                               Psi4 1.3.2 release

                         Git: Rev {HEAD} ecbda83 


    R. M. Parrish, L. A. Burns, D. G. A. Smith, A. C. Simmonett,
    A. E. DePrince III, E. G. Hohenstein, U. Bozkaya, A. Yu. Sokolov,
    R. Di Remigio, R. M. Richard, J. F. Gonthier, A. M. James,
    H. R. McAlexander, A. Kumar, M. Saitow, X. Wang, B. P. Pritchard,
    P. Verma, H. F. Schaefer III, K. Patkowski, R. A. King, E. F. Valeev,
    F. A. Evangelista, J. M. Turney, T. D. Crawford, and C. D. Sherrill,
    J. Chem. Theory Comput. 13(7) pp 3185--3197 (2017).
    (doi: 10.1021/acs.jctc.7b00174)


                         Additional Contributions by
    P. Kraus, H. Kruse, M. H. Lechner, M. C. Schieber, R. A. Shaw,
    A. Alenaizan, R. Galvelis, Z. L. Glick, S. Lehtola, and J. P. Misiewicz

    -----------------------------------------------------------------------


    Psi4 started on: Friday, 24 April 2020 11:50AM

    Process ID: 101149
    Host:       node70.bme.utexas.edu
    PSIDATADIR: /home/bdw2292/miniconda3/envs/p4env/share/psi4
    Memory:     500.0 MiB
    Threads:    1
    
  ==> Input File <==

--------------------------------------------------------------------------
molecule { 
0 1
 C    0.947084    4.816741   -1.313497
 C    2.241410    4.569559   -0.836225
 C    2.676446    3.244128   -0.642270
 C    1.746967    2.232167   -0.987596
 N    0.506846    2.447652   -1.445182
 C    0.120120    3.723846   -1.597807
 C    4.038050    2.875712   -0.108732
 C    5.094764    3.772152    0.121210
 C    6.281980    3.205486    0.601693
 N    6.447530    1.908433    0.853852
 C    5.375873    1.124264    0.620868
 N    4.206932    1.568133    0.157419
 N    5.544939   -0.220355    0.897620
 C    4.717181   -1.378604    0.671153
 C    5.313982   -2.674762    0.622236
 C    4.465416   -3.764890    0.365733
 C    3.085788   -3.650431    0.157868
 C    2.505762   -2.379881    0.239063
 C    3.330267   -1.274222    0.500892
 N    1.115476   -2.081020    0.056436
 C    0.064835   -2.854336   -0.382194
 C   -1.255801   -2.160528   -0.667169
 C   -1.375577   -0.816155   -1.060559
 C   -2.634883   -0.246407   -1.266797
 C   -3.819573   -0.994576   -1.119381
 C   -3.680209   -2.352187   -0.770804
 C   -2.426866   -2.928237   -0.551102
 C   -5.195674   -0.362735   -1.358695
 N   -6.358471   -0.617855   -0.485984
 C   -7.523817    0.284353   -0.618386
 C   -7.452545    1.519431    0.315270
 N   -7.238083    1.188233    1.745103
 C   -8.436025    0.838067    2.517709
 C   -6.086034    0.260212    1.863855
 C   -6.155429   -0.980242    0.936265
 O    0.165735   -4.063352   -0.527845
 C    6.802618   -2.913552    0.812052
 H    0.586448    5.830528   -1.460368
 H    2.880970    5.417420   -0.602741
 H    2.023431    1.185099   -0.912747
 H   -0.893261    3.863937   -1.971236
 H    5.047546    4.838029   -0.065499
 H    7.166412    3.809755    0.801853
 H    6.495683   -0.384350    1.192345
 H    4.891337   -4.766059    0.312849
 H    2.470144   -4.515198   -0.055345
 H    2.885270   -0.296088    0.580544
 H    0.877106   -1.114929    0.229231
 H   -0.483661   -0.210221   -1.205520
 H   -2.683502    0.804601   -1.552062
 H   -4.565735   -2.980518   -0.683615
 H   -2.340018   -3.979232   -0.286059
 H   -5.030215    0.722636   -1.414648
 H   -5.532399   -0.700257   -2.350495
 H   -7.656739    0.655722   -1.852017
 H   -8.711520   -0.476004   -0.284345
 H   -8.463172    2.202649    0.205587
 H   -6.306493    2.355211   -0.105053
 H   -8.878974   -0.095204    2.151239
 H   -9.182616    1.637104    2.441865
 H   -8.182285    0.717176    3.577126
 H   -5.979722   -0.141056    3.166099
 H   -4.854475    1.036295    1.520420
 H   -7.301320   -1.785155    1.353089
 H   -5.374761   -1.554835    1.046859
 H    7.158565   -2.598130    1.803462
 H    7.387759   -2.364077    0.069209
 H    7.077873   -3.966377    0.708371
}
memory 20GB
set_num_threads(6)
psi4_io.set_default_path("/scratch/bdw2292")
set freeze_core True
E, wfn = energy('mp2/6-311+G*',return_wfn=True)
oeprop(wfn,"WIBERG_LOWDIN_INDICES")
clean()
--------------------------------------------------------------------------

  Memory set to  18.626 GiB by Python driver.
  Threads set to 6 by Python driver.
    SCF Algorithm Type (re)set to DF.

*** tstart() called on node70.bme.utexas.edu
*** at Fri Apr 24 11:50:14 2020

   => Loading Basis Set <=

    Name: 6-311+G*
    Role: ORBITAL
    Keyword: BASIS
    atoms 1-4, 6-9, 11, 14-19, 21-28, 30-31, 33-35, 37 entry C          line   130 file /home/bdw2292/miniconda3/envs/p4env/share/psi4/basis/6-311pgs.gbs 
    atoms 5, 10, 12-13, 20, 29, 32                     entry N          line   151 file /home/bdw2292/miniconda3/envs/p4env/share/psi4/basis/6-311pgs.gbs 
    atoms 36                                           entry O          line   172 file /home/bdw2292/miniconda3/envs/p4env/share/psi4/basis/6-311pgs.gbs 
    atoms 38-68                                        entry H          line    47 file /home/bdw2292/miniconda3/envs/p4env/share/psi4/basis/6-311pgs.gbs 


         ---------------------------------------------------------
                                   SCF
               by Justin Turney, Rob Parrish, Andy Simmonett
                          and Daniel G. A. Smith
                              RHF Reference
                        6 Threads,  19073 MiB Core
         ---------------------------------------------------------

  ==> Geometry <==

    Molecular point group: c1
    Full point group: C1

    Geometry (in Angstrom), charge = 0, multiplicity = 1:

       Center              X                  Y                   Z               Mass       
    ------------   -----------------  -----------------  -----------------  -----------------
         C            0.847376860142     4.805163714101    -1.288472253657    12.000000000000
         C            2.141702860142     4.557981714101    -0.811200253657    12.000000000000
         C            2.576738860142     3.232550714101    -0.617245253657    12.000000000000
         C            1.647259860142     2.220589714101    -0.962571253657    12.000000000000
         N            0.407138860142     2.436074714101    -1.420157253657    14.003074004430
         C            0.020412860142     3.712268714101    -1.572782253657    12.000000000000
         C            3.938342860142     2.864134714101    -0.083707253657    12.000000000000
         C            4.995056860142     3.760574714101     0.146234746343    12.000000000000
         C            6.182272860142     3.193908714101     0.626717746343    12.000000000000
         N            6.347822860142     1.896855714101     0.878876746343    14.003074004430
         C            5.276165860142     1.112686714101     0.645892746343    12.000000000000
         N            4.107224860142     1.556555714101     0.182443746343    14.003074004430
         N            5.445231860142    -0.231932285899     0.922644746343    14.003074004430
         C            4.617473860142    -1.390181285899     0.696177746343    12.000000000000
         C            5.214274860142    -2.686339285899     0.647260746343    12.000000000000
         C            4.365708860142    -3.776467285899     0.390757746343    12.000000000000
         C            2.986080860142    -3.662008285899     0.182892746343    12.000000000000
         C            2.406054860142    -2.391458285899     0.264087746343    12.000000000000
         C            3.230559860142    -1.285799285899     0.525916746343    12.000000000000
         N            1.015768860142    -2.092597285899     0.081460746343    14.003074004430
         C           -0.034872139858    -2.865913285899    -0.357169253657    12.000000000000
         C           -1.355508139858    -2.172105285899    -0.642144253657    12.000000000000
         C           -1.475284139858    -0.827732285899    -1.035534253657    12.000000000000
         C           -2.734590139858    -0.257984285899    -1.241772253657    12.000000000000
         C           -3.919280139858    -1.006153285899    -1.094356253657    12.000000000000
         C           -3.779916139858    -2.363764285899    -0.745779253657    12.000000000000
         C           -2.526573139858    -2.939814285899    -0.526077253657    12.000000000000
         C           -5.295381139858    -0.374312285899    -1.333670253657    12.000000000000
         N           -6.458178139858    -0.629432285899    -0.460959253657    14.003074004430
         C           -7.623524139858     0.272775714101    -0.593361253657    12.000000000000
         C           -7.552252139858     1.507853714101     0.340294746343    12.000000000000
         N           -7.337790139858     1.176655714101     1.770127746343    14.003074004430
         C           -8.535732139858     0.826489714101     2.542733746343    12.000000000000
         C           -6.185741139858     0.248634714101     1.888879746343    12.000000000000
         C           -6.255136139858    -0.991819285899     0.961289746343    12.000000000000
         O            0.066027860142    -4.074929285899    -0.502820253657    15.994914619570
         C            6.702910860142    -2.925129285899     0.837076746343    12.000000000000
         H            0.486740860142     5.818950714101    -1.435343253657     1.007825032230
         H            2.781262860142     5.405842714101    -0.577716253657     1.007825032230
         H            1.923723860142     1.173521714101    -0.887722253657     1.007825032230
         H           -0.992968139858     3.852359714101    -1.946211253657     1.007825032230
         H            4.947838860142     4.826451714101    -0.040474253657     1.007825032230
         H            7.066704860142     3.798177714101     0.826877746343     1.007825032230
         H            6.395975860142    -0.395927285899     1.217369746343     1.007825032230
         H            4.791629860142    -4.777636285899     0.337873746343     1.007825032230
         H            2.370436860142    -4.526775285899    -0.030320253657     1.007825032230
         H            2.785562860142    -0.307665285899     0.605568746343     1.007825032230
         H            0.777398860142    -1.126506285899     0.254255746343     1.007825032230
         H           -0.583368139858    -0.221798285899    -1.180495253657     1.007825032230
         H           -2.783209139858     0.793023714101    -1.527037253657     1.007825032230
         H           -4.665442139858    -2.992095285899    -0.658590253657     1.007825032230
         H           -2.439725139858    -3.990809285899    -0.261034253657     1.007825032230
         H           -5.129922139858     0.711058714101    -1.389623253657     1.007825032230
         H           -5.632106139858    -0.711834285899    -2.325470253657     1.007825032230
         H           -7.756446139858     0.644144714101    -1.826992253657     1.007825032230
         H           -8.811227139858    -0.487581285899    -0.259320253657     1.007825032230
         H           -8.562879139858     2.191071714101     0.230611746343     1.007825032230
         H           -6.406200139858     2.343633714101    -0.080028253657     1.007825032230
         H           -8.978681139858    -0.106781285899     2.176263746343     1.007825032230
         H           -9.282323139858     1.625526714101     2.466889746343     1.007825032230
         H           -8.281992139858     0.705598714101     3.602150746343     1.007825032230
         H           -6.079429139858    -0.152633285899     3.191123746343     1.007825032230
         H           -4.954182139858     1.024717714101     1.545444746343     1.007825032230
         H           -7.401027139858    -1.796732285899     1.378113746343     1.007825032230
         H           -5.474468139858    -1.566412285899     1.071883746343     1.007825032230
         H            7.058857860142    -2.609707285899     1.828486746343     1.007825032230
         H            7.288051860142    -2.375654285899     0.094233746343     1.007825032230
         H            6.978165860142    -3.977954285899     0.733395746343     1.007825032230

  Running in c1 symmetry.

  Rotational constants: A =      0.00473  B =      0.00149  C =      0.00121 [cm^-1]
  Rotational constants: A =    141.91040  B =     44.63771  C =     36.35178 [MHz]
  Nuclear repulsion = 3638.572083516649400

  Charge       = 0
  Multiplicity = 1
  Electrons    = 262
  Nalpha       = 131
  Nbeta        = 131

  ==> Algorithm <==

  SCF Algorithm Type is DF.
  DIIS enabled.
  MOM disabled.
  Fractional occupation disabled.
  Guess Type is SAD.
  Energy threshold   = 1.00e-08
  Density threshold  = 1.00e-08
  Integral threshold = 0.00e+00

  ==> Primary Basis <==

  Basis Set: 6-311+G*
    Blend: 6-311+G*
    Number of shells: 463
    Number of basis function: 907
    Number of Cartesian functions: 944
    Spherical Harmonics?: true
    Max angular momentum: 2

   => Loading Basis Set <=

    Name: (6-311+G* AUX)
    Role: JKFIT
    Keyword: DF_BASIS_SCF
    atoms 1-4, 6-9, 11, 14-19, 21-28, 30-31, 33-35, 37 entry C          line   200 file /home/bdw2292/miniconda3/envs/p4env/share/psi4/basis/heavy-aug-cc-pvtz-jkfit.gbs 
    atoms 5, 10, 12-13, 20, 29, 32                     entry N          line   262 file /home/bdw2292/miniconda3/envs/p4env/share/psi4/basis/heavy-aug-cc-pvtz-jkfit.gbs 
    atoms 36                                           entry O          line   324 file /home/bdw2292/miniconda3/envs/p4env/share/psi4/basis/heavy-aug-cc-pvtz-jkfit.gbs 
    atoms 38-68                                        entry H          line   116 file /home/bdw2292/miniconda3/envs/p4env/share/psi4/basis/heavy-aug-cc-pvtz-jkfit.gbs 

  ==> Pre-Iterations <==

   -------------------------------------------------------
    Irrep   Nso     Nmo     Nalpha   Nbeta   Ndocc  Nsocc
   -------------------------------------------------------
     A        907     907       0       0       0       0
   -------------------------------------------------------
    Total     907     907     131     131     131       0
   -------------------------------------------------------

  ==> Integral Setup <==

  ==> DiskDFJK: Density-Fitted J/K Matrices <==

    J tasked:                  Yes
    K tasked:                  Yes
    wK tasked:                  No
    OpenMP threads:              6
    Integrals threads:           6
    Memory [MiB]:            14305
    Algorithm:                Core
    Integral Cache:           NONE
    Schwarz Cutoff:          1E-12
    Fitting Condition:       1E-10

   => Auxiliary Basis Set <=

  Basis Set: (6-311+G* AUX)
    Blend: HEAVY-AUG-CC-PVTZ-JKFIT
    Number of shells: 1420
    Number of basis function: 4778
    Number of Cartesian functions: 5932
    Spherical Harmonics?: true
    Max angular momentum: 4

  Minimum eigenvalue in the overlap matrix is 9.6955888380E-08.
  Using Canonical Orthogonalization with cutoff of 1.0000000000E-07.
  Overall, 1 of 907 possible MOs eliminated.

  SCF Guess: Superposition of Atomic Densities via on-the-fly atomic UHF.

  ==> Iterations <==

                           Total Energy        Delta E     RMS |[F,P]|

   @DF-RHF iter SAD: -1570.95291552000936   -1.57095e+03   0.00000e+00 
   @DF-RHF iter   1: -1571.28428165887976   -3.31366e-01   1.37598e-03 DIIS
   @DF-RHF iter   2: -1572.04956946078642   -7.65288e-01   7.20822e-04 DIIS
   @DF-RHF iter   3: -1572.23773043257393   -1.88161e-01   1.81439e-04 DIIS
   @DF-RHF iter   4: -1572.25381400363108   -1.60836e-02   7.20773e-05 DIIS
   @DF-RHF iter   5: -1572.25615108800343   -2.33708e-03   1.50256e-05 DIIS
   @DF-RHF iter   6: -1572.25629384022886   -1.42752e-04   6.70695e-06 DIIS
   @DF-RHF iter   7: -1572.25632749547594   -3.36552e-05   2.18454e-06 DIIS
   @DF-RHF iter   8: -1572.25633274650272   -5.25103e-06   8.59498e-07 DIIS
   @DF-RHF iter   9: -1572.25633363476936   -8.88267e-07   3.55708e-07 DIIS
   @DF-RHF iter  10: -1572.25633381185094   -1.77082e-07   1.55614e-07 DIIS
   @DF-RHF iter  11: -1572.25633384726325   -3.54123e-08   7.63469e-08 DIIS
   @DF-RHF iter  12: -1572.25633385681363   -9.55038e-09   2.96471e-08 DIIS
   @DF-RHF iter  13: -1572.25633385853689   -1.72327e-09   1.26097e-08 DIIS
   @DF-RHF iter  14: -1572.25633385876154   -2.24645e-10   6.09004e-09 DIIS
  Energy and wave function converged.


  ==> Post-Iterations <==

    Orbital Energies [Eh]
    ---------------------

    Doubly Occupied:                                                      

       1A    -20.519895     2A    -15.603694     3A    -15.602126  
       4A    -15.586760     5A    -15.573200     6A    -15.567594  
       7A    -15.565363     8A    -15.565273     9A    -11.373909  
      10A    -11.364437    11A    -11.334105    12A    -11.325746  
      13A    -11.324099    14A    -11.317702    15A    -11.313998  
      16A    -11.301615    17A    -11.301083    18A    -11.300484  
      19A    -11.293074    20A    -11.289875    21A    -11.287747  
      22A    -11.280006    23A    -11.275257    24A    -11.266027  
      25A    -11.265548    26A    -11.256417    27A    -11.254215  
      28A    -11.253907    29A    -11.252769    30A    -11.248539  
      31A    -11.247618    32A    -11.246932    33A    -11.243537  
      34A    -11.239852    35A    -11.234074    36A    -11.231809  
      37A    -11.225113    38A     -1.385620    39A     -1.345267  
      40A     -1.278598    41A     -1.250727    42A     -1.248059  
      43A     -1.241769    44A     -1.209514    45A     -1.202888  
      46A     -1.161704    47A     -1.139887    48A     -1.116121  
      49A     -1.075312    50A     -1.059949    51A     -1.048405  
      52A     -1.038296    53A     -1.022449    54A     -1.007839  
      55A     -1.002726    56A     -0.976658    57A     -0.947427  
      58A     -0.929975    59A     -0.926535    60A     -0.900927  
      61A     -0.872874    62A     -0.870755    63A     -0.858283  
      64A     -0.844387    65A     -0.840790    66A     -0.827875  
      67A     -0.821960    68A     -0.806183    69A     -0.778242  
      70A     -0.754946    71A     -0.740019    72A     -0.730858  
      73A     -0.722620    74A     -0.703281    75A     -0.696821  
      76A     -0.683247    77A     -0.679571    78A     -0.668725  
      79A     -0.658058    80A     -0.652864    81A     -0.651834  
      82A     -0.644445    83A     -0.635004    84A     -0.629366  
      85A     -0.621965    86A     -0.621198    87A     -0.613960  
      88A     -0.609580    89A     -0.607290    90A     -0.602981  
      91A     -0.602726    92A     -0.598941    93A     -0.596591  
      94A     -0.591821    95A     -0.587307    96A     -0.585466  
      97A     -0.580663    98A     -0.576367    99A     -0.561403  
     100A     -0.558046   101A     -0.550864   102A     -0.548560  
     103A     -0.544961   104A     -0.523976   105A     -0.522457  
     106A     -0.518905   107A     -0.514469   108A     -0.509789  
     109A     -0.507685   110A     -0.501357   111A     -0.496727  
     112A     -0.494166   113A     -0.484980   114A     -0.478584  
     115A     -0.465263   116A     -0.451536   117A     -0.442899  
     118A     -0.433201   119A     -0.427691   120A     -0.425312  
     121A     -0.414048   122A     -0.403819   123A     -0.400021  
     124A     -0.384782   125A     -0.372972   126A     -0.345805  
     127A     -0.343326   128A     -0.338710   129A     -0.319231  
     130A     -0.313883   131A     -0.290170  

    Virtual:                                                              

     132A      0.042936   133A      0.048230   134A      0.056231  
     135A      0.063515   136A      0.068075   137A      0.068750  
     138A      0.071231   139A      0.072738   140A      0.074673  
     141A      0.080020   142A      0.080476   143A      0.081654  
     144A      0.084456   145A      0.088595   146A      0.089719  
     147A      0.092802   148A      0.097429   149A      0.098634  
     150A      0.100198   151A      0.101807   152A      0.104973  
     153A      0.105389   154A      0.108072   155A      0.109613  
     156A      0.112881   157A      0.114543   158A      0.116357  
     159A      0.117121   160A      0.121798   161A      0.124516  
     162A      0.124854   163A      0.128415   164A      0.132131  
     165A      0.135613   166A      0.136573   167A      0.139702  
     168A      0.141143   169A      0.142084   170A      0.143879  
     171A      0.149350   172A      0.150816   173A      0.152285  
     174A      0.155145   175A      0.156304   176A      0.156409  
     177A      0.161016   178A      0.164264   179A      0.167822  
     180A      0.170263   181A      0.171654   182A      0.174094  
     183A      0.177420   184A      0.178515   185A      0.181894  
     186A      0.186302   187A      0.187696   188A      0.190629  
     189A      0.192724   190A      0.194321   191A      0.198145  
     192A      0.203492   193A      0.204877   194A      0.207519  
     195A      0.210974   196A      0.211244   197A      0.212547  
     198A      0.216308   199A      0.218285   200A      0.222022  
     201A      0.223911   202A      0.225145   203A      0.226808  
     204A      0.228717   205A      0.232694   206A      0.234675  
     207A      0.238629   208A      0.240399   209A      0.242246  
     210A      0.246574   211A      0.249923   212A      0.252218  
     213A      0.254636   214A      0.256845   215A      0.259185  
     216A      0.260627   217A      0.262740   218A      0.265596  
     219A      0.268441   220A      0.270719   221A      0.273071  
     222A      0.274480   223A      0.275719   224A      0.277200  
     225A      0.282262   226A      0.283982   227A      0.284973  
     228A      0.287298   229A      0.288905   230A      0.290826  
     231A      0.293850   232A      0.294806   233A      0.299212  
     234A      0.300570   235A      0.302086   236A      0.303615  
     237A      0.305869   238A      0.306758   239A      0.308265  
     240A      0.310435   241A      0.313333   242A      0.315004  
     243A      0.317300   244A      0.318594   245A      0.322616  
     246A      0.324304   247A      0.326516   248A      0.328490  
     249A      0.329003   250A      0.331286   251A      0.333394  
     252A      0.335982   253A      0.336564   254A      0.338065  
     255A      0.341237   256A      0.343202   257A      0.344915  
     258A      0.347301   259A      0.348517   260A      0.350348  
     261A      0.353698   262A      0.355571   263A      0.357743  
     264A      0.358446   265A      0.359830   266A      0.361083  
     267A      0.362589   268A      0.364773   269A      0.366064  
     270A      0.368382   271A      0.370123   272A      0.370801  
     273A      0.374626   274A      0.376889   275A      0.378673  
     276A      0.378915   277A      0.382401   278A      0.384895  
     279A      0.385822   280A      0.387566   281A      0.389594  
     282A      0.390252   283A      0.392093   284A      0.393975  
     285A      0.396287   286A      0.397558   287A      0.398848  
     288A      0.401642   289A      0.403020   290A      0.405905  
     291A      0.407959   292A      0.411231   293A      0.413666  
     294A      0.415038   295A      0.418095   296A      0.418864  
     297A      0.421474   298A      0.423280   299A      0.426340  
     300A      0.428580   301A      0.430052   302A      0.434438  
     303A      0.434939   304A      0.437882   305A      0.441898  
     306A      0.443679   307A      0.447179   308A      0.450838  
     309A      0.450968   310A      0.452130   311A      0.455171  
     312A      0.459951   313A      0.460226   314A      0.466744  
     315A      0.468917   316A      0.474290   317A      0.475949  
     318A      0.477615   319A      0.478843   320A      0.481778  
     321A      0.483779   322A      0.488605   323A      0.495611  
     324A      0.498459   325A      0.499658   326A      0.502364  
     327A      0.507344   328A      0.508904   329A      0.512693  
     330A      0.516551   331A      0.518856   332A      0.522143  
     333A      0.525907   334A      0.528782   335A      0.530442  
     336A      0.537542   337A      0.540899   338A      0.547235  
     339A      0.550859   340A      0.554891   341A      0.559501  
     342A      0.566201   343A      0.572917   344A      0.577185  
     345A      0.583369   346A      0.588704   347A      0.591557  
     348A      0.596640   349A      0.601794   350A      0.605809  
     351A      0.611497   352A      0.613255   353A      0.614051  
     354A      0.622857   355A      0.632075   356A      0.643450  
     357A      0.654203   358A      0.656953   359A      0.661320  
     360A      0.666444   361A      0.674918   362A      0.679819  
     363A      0.687371   364A      0.689633   365A      0.693244  
     366A      0.697032   367A      0.699996   368A      0.703516  
     369A      0.713219   370A      0.720113   371A      0.725142  
     372A      0.727146   373A      0.729562   374A      0.732759  
     375A      0.736821   376A      0.741062   377A      0.748437  
     378A      0.751673   379A      0.755775   380A      0.757622  
     381A      0.760330   382A      0.761465   383A      0.766414  
     384A      0.767377   385A      0.769028   386A      0.770237  
     387A      0.779158   388A      0.779975   389A      0.792661  
     390A      0.793468   391A      0.795083   392A      0.796064  
     393A      0.799610   394A      0.803524   395A      0.807546  
     396A      0.813579   397A      0.817871   398A      0.824886  
     399A      0.827332   400A      0.831284   401A      0.833127  
     402A      0.840246   403A      0.841477   404A      0.845863  
     405A      0.846865   406A      0.852938   407A      0.853744  
     408A      0.857577   409A      0.860706   410A      0.866108  
     411A      0.867384   412A      0.871475   413A      0.875353  
     414A      0.880759   415A      0.885205   416A      0.886936  
     417A      0.888841   418A      0.893795   419A      0.896373  
     420A      0.904252   421A      0.906238   422A      0.908685  
     423A      0.913193   424A      0.916859   425A      0.917654  
     426A      0.919448   427A      0.919693   428A      0.921402  
     429A      0.924682   430A      0.927079   431A      0.929071  
     432A      0.934733   433A      0.938487   434A      0.943077  
     435A      0.945963   436A      0.951310   437A      0.953294  
     438A      0.955120   439A      0.958929   440A      0.962726  
     441A      0.963585   442A      0.968983   443A      0.969437  
     444A      0.975324   445A      0.977713   446A      0.980810  
     447A      0.987550   448A      0.990058   449A      0.993665  
     450A      0.996379   451A      1.000788   452A      1.010354  
     453A      1.013106   454A      1.021619   455A      1.024132  
     456A      1.033461   457A      1.035975   458A      1.042789  
     459A      1.050829   460A      1.052984   461A      1.055763  
     462A      1.058579   463A      1.063749   464A      1.066449  
     465A      1.070427   466A      1.080277   467A      1.085000  
     468A      1.091664   469A      1.094647   470A      1.100310  
     471A      1.104210   472A      1.105801   473A      1.111209  
     474A      1.121150   475A      1.124595   476A      1.126490  
     477A      1.131118   478A      1.136050   479A      1.139666  
     480A      1.143573   481A      1.151258   482A      1.155984  
     483A      1.157801   484A      1.162327   485A      1.165539  
     486A      1.169883   487A      1.172609   488A      1.177920  
     489A      1.179723   490A      1.184518   491A      1.189310  
     492A      1.191891   493A      1.200333   494A      1.201185  
     495A      1.204219   496A      1.207424   497A      1.218803  
     498A      1.220559   499A      1.224441   500A      1.228765  
     501A      1.231900   502A      1.234980   503A      1.240502  
     504A      1.241371   505A      1.245323   506A      1.255682  
     507A      1.259474   508A      1.264463   509A      1.271272  
     510A      1.274941   511A      1.277402   512A      1.283426  
     513A      1.286222   514A      1.288179   515A      1.297767  
     516A      1.302466   517A      1.304621   518A      1.316879  
     519A      1.327513   520A      1.329397   521A      1.334991  
     522A      1.342314   523A      1.350628   524A      1.359629  
     525A      1.372015   526A      1.375587   527A      1.381302  
     528A      1.382960   529A      1.393469   530A      1.400564  
     531A      1.411469   532A      1.424422   533A      1.436777  
     534A      1.443121   535A      1.445719   536A      1.453430  
     537A      1.455129   538A      1.455990   539A      1.466085  
     540A      1.470769   541A      1.475022   542A      1.479712  
     543A      1.488041   544A      1.495651   545A      1.500325  
     546A      1.509876   547A      1.512544   548A      1.520547  
     549A      1.530220   550A      1.545413   551A      1.548683  
     552A      1.557201   553A      1.562091   554A      1.565489  
     555A      1.586695   556A      1.590716   557A      1.593343  
     558A      1.599962   559A      1.612370   560A      1.620990  
     561A      1.631899   562A      1.645289   563A      1.653964  
     564A      1.672292   565A      1.690448   566A      1.701713  
     567A      1.702790   568A      1.729724   569A      1.743014  
     570A      1.749102   571A      1.754740   572A      1.770937  
     573A      1.775670   574A      1.787224   575A      1.791906  
     576A      1.796244   577A      1.801966   578A      1.807940  
     579A      1.809436   580A      1.814352   581A      1.820982  
     582A      1.828723   583A      1.831114   584A      1.835152  
     585A      1.845336   586A      1.849208   587A      1.849919  
     588A      1.853245   589A      1.856597   590A      1.857162  
     591A      1.865680   592A      1.868335   593A      1.872961  
     594A      1.876233   595A      1.880592   596A      1.884492  
     597A      1.890371   598A      1.912374   599A      1.923652  
     600A      1.931462   601A      1.938081   602A      1.950914  
     603A      1.955667   604A      1.962105   605A      1.970181  
     606A      1.984409   607A      1.992888   608A      1.996004  
     609A      2.009124   610A      2.026875   611A      2.030330  
     612A      2.033412   613A      2.039409   614A      2.045511  
     615A      2.054431   616A      2.056915   617A      2.068082  
     618A      2.075896   619A      2.081248   620A      2.086653  
     621A      2.091076   622A      2.096789   623A      2.104899  
     624A      2.113088   625A      2.118810   626A      2.125478  
     627A      2.140109   628A      2.143761   629A      2.151099  
     630A      2.153821   631A      2.173653   632A      2.179880  
     633A      2.184629   634A      2.191556   635A      2.192087  
     636A      2.199680   637A      2.212464   638A      2.215701  
     639A      2.217938   640A      2.220659   641A      2.235779  
     642A      2.238705   643A      2.239320   644A      2.245966  
     645A      2.250688   646A      2.253251   647A      2.256818  
     648A      2.262430   649A      2.265431   650A      2.272035  
     651A      2.285279   652A      2.289627   653A      2.301325  
     654A      2.310491   655A      2.313938   656A      2.367559  
     657A      2.376719   658A      2.378548   659A      2.389037  
     660A      2.396278   661A      2.405962   662A      2.432137  
     663A      2.443691   664A      2.453210   665A      2.460256  
     666A      2.489614   667A      2.497406   668A      2.506623  
     669A      2.507594   670A      2.536685   671A      2.546120  
     672A      2.552869   673A      2.570183   674A      2.603337  
     675A      2.625479   676A      2.638045   677A      2.644831  
     678A      2.647807   679A      2.651398   680A      2.654588  
     681A      2.660942   682A      2.661827   683A      2.666894  
     684A      2.669357   685A      2.676795   686A      2.686146  
     687A      2.688337   688A      2.690917   689A      2.698611  
     690A      2.706992   691A      2.725307   692A      2.739428  
     693A      2.766242   694A      2.767930   695A      2.771349  
     696A      2.782488   697A      2.784284   698A      2.795307  
     699A      2.803165   700A      2.819768   701A      2.828796  
     702A      2.830811   703A      2.858282   704A      2.866123  
     705A      2.867573   706A      2.876714   707A      2.885299  
     708A      2.890101   709A      2.894380   710A      2.901394  
     711A      2.905094   712A      2.929766   713A      2.935729  
     714A      2.937510   715A      2.946664   716A      2.956580  
     717A      2.960475   718A      2.968129   719A      2.985445  
     720A      2.989172   721A      2.990242   722A      3.008017  
     723A      3.014770   724A      3.030388   725A      3.035049  
     726A      3.041406   727A      3.042562   728A      3.046198  
     729A      3.065905   730A      3.073431   731A      3.080504  
     732A      3.085409   733A      3.088445   734A      3.093297  
     735A      3.099822   736A      3.102291   737A      3.134583  
     738A      3.150003   739A      3.157337   740A      3.164764  
     741A      3.171440   742A      3.177584   743A      3.188638  
     744A      3.198790   745A      3.204507   746A      3.207818  
     747A      3.219486   748A      3.226181   749A      3.233610  
     750A      3.238350   751A      3.240276   752A      3.256281  
     753A      3.266993   754A      3.275648   755A      3.292644  
     756A      3.295630   757A      3.299402   758A      3.306568  
     759A      3.318417   760A      3.335222   761A      3.343112  
     762A      3.344182   763A      3.350500   764A      3.358821  
     765A      3.363554   766A      3.366203   767A      3.372318  
     768A      3.381901   769A      3.385138   770A      3.387726  
     771A      3.394122   772A      3.419686   773A      3.431555  
     774A      3.471125   775A      3.487305   776A      3.499805  
     777A      3.506541   778A      3.541688   779A      3.554248  
     780A      3.565855   781A      3.566597   782A      3.572212  
     783A      3.592121   784A      3.596534   785A      3.611615  
     786A      3.630918   787A      3.638620   788A      3.644556  
     789A      3.645218   790A      3.685024   791A      3.686267  
     792A      3.696742   793A      3.700316   794A      3.702500  
     795A      3.719564   796A      3.721643   797A      3.743781  
     798A      3.758168   799A      3.762346   800A      3.765755  
     801A      3.770939   802A      3.772468   803A      3.781153  
     804A      3.787756   805A      3.806838   806A      3.808981  
     807A      3.816914   808A      3.823129   809A      3.824920  
     810A      3.855394   811A      3.869524   812A      3.879547  
     813A      3.888818   814A      3.895248   815A      3.906377  
     816A      3.923291   817A      3.948150   818A      3.959525  
     819A      3.995963   820A      4.023376   821A      4.026475  
     822A      4.047449   823A      4.066864   824A      4.082751  
     825A      4.103165   826A      4.116127   827A      4.142811  
     828A      4.158931   829A      4.183329   830A      4.223764  
     831A      4.309113   832A      4.328300   833A      4.360634  
     834A      4.380905   835A      4.394584   836A      4.408580  
     837A      4.410233   838A      4.414327   839A      4.421391  
     840A      4.441935   841A      4.458377   842A      4.481178  
     843A      4.489497   844A      4.509624   845A      4.544943  
     846A      4.593759   847A      4.609107   848A      4.683229  
     849A      4.753182   850A      4.847247   851A      4.870796  
     852A      4.945675   853A      4.988897   854A      5.015008  
     855A      5.052388   856A      5.112776   857A      5.178720  
     858A      5.203211   859A      5.217491   860A      5.241888  
     861A      5.297330   862A      5.342813   863A      5.580861  
     864A      5.642660   865A      5.683730   866A      5.766801  
     867A      5.825684   868A      5.853394   869A      6.378827  
     870A     24.530823   871A     24.589796   872A     24.633671  
     873A     24.657923   874A     24.705472   875A     24.718308  
     876A     24.785962   877A     24.805565   878A     24.809451  
     879A     24.863740   880A     24.871193   881A     24.970609  
     882A     24.998550   883A     25.005877   884A     25.010919  
     885A     25.022272   886A     25.040300   887A     25.056025  
     888A     25.058731   889A     25.069690   890A     25.130757  
     891A     25.150207   892A     25.165947   893A     25.182339  
     894A     25.193730   895A     25.197292   896A     25.200809  
     897A     25.271336   898A     25.278041   899A     36.904314  
     900A     36.943456   901A     36.970530   902A     36.995588  
     903A     37.042169   904A     37.098357   905A     37.141089  
     906A     51.756080  

    Final Occupation by Irrep:
              A 
    DOCC [   131 ]

  @DF-RHF Final Energy: -1572.25633385876154

   => Energetics <=

    Nuclear Repulsion Energy =           3638.5720835166493998
    One-Electron Energy =               -9375.0378215600758267
    Two-Electron Energy =                4164.2094041846648906
    Total Energy =                      -1572.2563338587615362

Computation Completed


Properties will be evaluated at   0.000000,   0.000000,   0.000000 [a0]

Properties computed using the SCF density matrix

  Nuclear Dipole Moment: [e a0]
     X:   -45.5365      Y:     2.5836      Z:     6.6800

  Electronic Dipole Moment: [e a0]
     X:    45.8847      Y:     0.1051      Z:    -6.6112

  Dipole Moment: [e a0]
     X:     0.3482      Y:     2.6887      Z:     0.0688     Total:     2.7121

  Dipole Moment: [D]
     X:     0.8852      Y:     6.8341      Z:     0.1749     Total:     6.8934


*** tstop() called on node70.bme.utexas.edu at Fri Apr 24 12:01:05 2020
Module time:
	user time   =    3570.15 seconds =      59.50 minutes
	system time =      68.53 seconds =       1.14 minutes
	total time  =        651 seconds =      10.85 minutes
Total time:
	user time   =    3570.15 seconds =      59.50 minutes
	system time =      68.53 seconds =       1.14 minutes
	total time  =        651 seconds =      10.85 minutes

*** tstart() called on node70.bme.utexas.edu
*** at Fri Apr 24 12:01:05 2020


  //>>>>>>>>>>>>>>>>>>>>>>>>>>>>>>>>>>>//
  //               DFMP2               //
  //<<<<<<<<<<<<<<<<<<<<<<<<<<<<<<<<<<<//

   => Loading Basis Set <=

    Name: (6-311+G* AUX)
    Role: RIFIT
    Keyword: DF_BASIS_MP2
    atoms 1-4, 6-9, 11, 14-19, 21-28, 30-31, 33-35, 37 entry C          line   148 file /home/bdw2292/miniconda3/envs/p4env/share/psi4/basis/heavy-aug-cc-pvtz-ri.gbs 
    atoms 5, 10, 12-13, 20, 29, 32                     entry N          line   206 file /home/bdw2292/miniconda3/envs/p4env/share/psi4/basis/heavy-aug-cc-pvtz-ri.gbs 
    atoms 36                                           entry O          line   264 file /home/bdw2292/miniconda3/envs/p4env/share/psi4/basis/heavy-aug-cc-pvtz-ri.gbs 
    atoms 38-68                                        entry H          line    44 file /home/bdw2292/miniconda3/envs/p4env/share/psi4/basis/heavy-aug-cc-pvtz-ri.gbs 

	 --------------------------------------------------------
	                          DF-MP2                         
	      2nd-Order Density-Fitted Moller-Plesset Theory     
	              RMP2 Wavefunction,   6 Threads             
	                                                         
	        Rob Parrish, Justin Turney, Andy Simmonett,      
	           Ed Hohenstein, and C. David Sherrill          
	 --------------------------------------------------------

   => Auxiliary Basis Set <=

  Basis Set: (6-311+G* AUX)
    Blend: HEAVY-AUG-CC-PVTZ-RI
    Number of shells: 1346
    Number of basis function: 4852
    Number of Cartesian functions: 6117
    Spherical Harmonics?: true
    Max angular momentum: 4

	 --------------------------------------------------------
	                 NBF =   907, NAUX =  4852
	 --------------------------------------------------------
	   CLASS    FOCC     OCC    AOCC    AVIR     VIR    FVIR
	   PAIRS      37     131      94     775     775       0
	 --------------------------------------------------------

	-----------------------------------------------------------
	 ==================> DF-MP2 Energies <==================== 
	-----------------------------------------------------------
	 Reference Energy          =   -1572.2563338587615362 [Eh]
	 Singles Energy            =      -0.0000000000000000 [Eh]
	 Same-Spin Energy          =      -1.4462236916881004 [Eh]
	 Opposite-Spin Energy      =      -3.8907567965474015 [Eh]
	 Correlation Energy        =      -5.3369804882355023 [Eh]
	 Total Energy              =   -1577.5933143469969764 [Eh]
	-----------------------------------------------------------
	 ================> DF-SCS-MP2 Energies <================== 
	-----------------------------------------------------------
	 SCS Same-Spin Scale       =       0.3333333333333333 [-]
	 SCS Opposite-Spin Scale   =       1.2000000000000000 [-]
	 SCS Same-Spin Energy      =      -0.4820745638960334 [Eh]
	 SCS Opposite-Spin Energy  =      -4.6689081558568812 [Eh]
	 SCS Correlation Energy    =      -5.1509827197529150 [Eh]
	 SCS Total Energy          =   -1577.4073165785143829 [Eh]
	-----------------------------------------------------------


*** tstop() called on node70.bme.utexas.edu at Fri Apr 24 12:06:43 2020
Module time:
	user time   =    1858.41 seconds =      30.97 minutes
	system time =      25.93 seconds =       0.43 minutes
	total time  =        338 seconds =       5.63 minutes
Total time:
	user time   =    5428.56 seconds =      90.48 minutes
	system time =      94.46 seconds =       1.57 minutes
	total time  =        989 seconds =      16.48 minutes


Properties will be evaluated at   0.000000,   0.000000,   0.000000 [a0]
OEProp: No title given, name of density matrix used for the following properties is 'SCF density'


  Wiberg Bond Indices using Orthogonal Lowdin Orbitals:

  Irrep: 1 Size: 68 x 68

                 1                   2                   3                   4                   5

    1     0.00000000000000     1.50977919824755     0.12970104804786     0.14763918659604     0.12886666998838
    2     1.50977919824755     0.00000000000000     1.42464312202089     0.13160386393330     0.12503585519206
    3     0.12970104804786     1.42464312202089     0.00000000000000     1.38234238750746     0.12250064879864
    4     0.14763918659604     0.13160386393330     1.38234238750746     0.00000000000000     1.68402169989109
    5     0.12886666998838     0.12503585519206     0.12250064879864     1.68402169989109     0.00000000000000
    6     1.51114373347491     0.14368512072699     0.13990730023587     0.15761823542692     1.64740259207041
    7     0.01549770343942     0.10570722854452     1.02718107178683     0.10686076240975     0.01453463325511
    8     0.00399960398744     0.04569107419441     0.10058142886024     0.02491451252603     0.00236567001649
    9     0.00044795926296     0.00512819212130     0.01544715610958     0.00434504026685     0.00073742649346
   10     0.00044993342880     0.00556193902186     0.00600440108938     0.00624926582385     0.00034949015649
   11     0.00095072054664     0.00353690972156     0.01847144804414     0.00744103699750     0.00050117108195
   12     0.00301432175804     0.02270493512566     0.12126329429768     0.06537793115261     0.00435114067646
   13     0.00018335758022     0.00053996476578     0.00173129870225     0.00098587073027     0.00009727346325
   14     0.00004448721136     0.00012535115469     0.00066054956456     0.00160640063430     0.00013032329980
   15     0.00001372496049     0.00003157200507     0.00009436719270     0.00019125888033     0.00002065478347
   16     0.00000390435571     0.00000984275511     0.00006244639953     0.00033832529300     0.00001651730246
   17     0.00001417478669     0.00002402280871     0.00007498996956     0.00033602380902     0.00004888984282
   18     0.00004058165768     0.00007340926179     0.00035422518347     0.00228885212601     0.00023508517334
   19     0.00021769854689     0.00030292286182     0.00231549788438     0.01200538464563     0.00064448805236
   20     0.00007236340645     0.00008466121930     0.00037824444614     0.00360876477441     0.00060793601954
   21     0.00001872571812     0.00001944199128     0.00006470675757     0.00048987684281     0.00023192724599
   22     0.00005812079630     0.00004375397735     0.00006010885716     0.00064841862998     0.00166277233487
   23     0.00056543413947     0.00038417444584     0.00049861337749     0.00736328214419     0.02409972976086
   24     0.00023570559056     0.00023695733440     0.00029786237278     0.00124487077854     0.00965828722762
   25     0.00001993346276     0.00001450413215     0.00002141279866     0.00013049182354     0.00047484133485
   26     0.00001364066320     0.00000623637858     0.00001387129330     0.00015808057106     0.00038972987275
   27     0.00001314723054     0.00000663242983     0.00001773170758     0.00018366770076     0.00049747657918
   28     0.00000646606738     0.00000357837339     0.00000390712465     0.00002697113200     0.00008625094635
   29     0.00000107224540     0.00000045007274     0.00000104731055     0.00000610452847     0.00002275692377
   30     0.00000028819456     0.00000020348144     0.00000029477435     0.00000202328181     0.00000373956133
   31     0.00000033469274     0.00000015573906     0.00000021497563     0.00000086999794     0.00000192195017
   32     0.00000038746961     0.00000004754970     0.00000017354041     0.00000058045329     0.00000115599108
   33     0.00000012044235     0.00000002675458     0.00000005271696     0.00000019978715     0.00000043146150
   34     0.00000075456941     0.00000052947635     0.00000057571673     0.00000166742442     0.00000763614130
   35     0.00000112097886     0.00000072388908     0.00000091692329     0.00000592072423     0.00001445379793
   36     0.00000235276375     0.00000341987326     0.00001671347661     0.00016404359354     0.00004888211743
   37     0.00000383801753     0.00001125994069     0.00004966257519     0.00005575070890     0.00000447101734
   38     0.84211314422211     0.05680656524309     0.00960952099102     0.00272007727859     0.00789289083203
   39     0.05349521649169     0.82967044203717     0.05227515969826     0.00960294734791     0.00126688637492
   40     0.00207756563636     0.00819219561730     0.04941809959234     0.80927558366056     0.06239355786042
   41     0.05483155664814     0.00971540656168     0.00259516795019     0.01284033492823     0.06466867810530
   42     0.00072264441554     0.01041618334000     0.01109962712275     0.00056917739282     0.00016313878566
   43     0.00003717063794     0.00020689443741     0.00109682475453     0.00026224765664     0.00006335787094
   44     0.00001382042022     0.00005057447383     0.00023678692137     0.00004401704675     0.00000607078649
   45     0.00000070443926     0.00000183004403     0.00000883389902     0.00001931884270     0.00000198697744
   46     0.00000124576497     0.00000226904151     0.00000697069160     0.00002232261331     0.00000748913544
   47     0.00005661472973     0.00007381000533     0.00134425225550     0.00524501115741     0.00026967837040
   48     0.00003520197215     0.00002607290621     0.00009877851592     0.00115552596398     0.00028436509471
   49     0.00024015051575     0.00007635642613     0.00014903270557     0.00388568635780     0.00895837868024
   50     0.00002162809339     0.00001650956913     0.00003217854119     0.00009990343082     0.00092427526663
   51     0.00000175602126     0.00000081096208     0.00000281393802     0.00001714942098     0.00002253748655
   52     0.00000197622321     0.00000106004843     0.00000290278123     0.00000772026822     0.00003698028416
   53     0.00000110100061     0.00000015947557     0.00000046225479     0.00000335747285     0.00000927015009
   54     0.00000069713914     0.00000044586363     0.00000066858677     0.00000660329044     0.00002101893795
   55     0.00000003667429     0.00000003357001     0.00000002041062     0.00000025427019     0.00000061113908
   56     0.00000012229675     0.00000007872945     0.00000006526801     0.00000094693748     0.00000095576574
   57     0.00000002386921     0.00000000531756     0.00000001336747     0.00000003008232     0.00000005173360
   58     0.00000006997069     0.00000003643576     0.00000008268432     0.00000030547242     0.00000067994775
   59     0.00000001708603     0.00000000414751     0.00000000986522     0.00000001526586     0.00000003631213
   60     0.00000004313206     0.00000000473611     0.00000001353342     0.00000000739168     0.00000004080601
   61     0.00000001365669     0.00000000296519     0.00000000470201     0.00000004314669     0.00000003300020
   62     0.00000008785305     0.00000001754101     0.00000001176075     0.00000006519561     0.00000052092675
   63     0.00000036957732     0.00000018360229     0.00000025239834     0.00000032746838     0.00000187634932
   64     0.00000009232434     0.00000014499302     0.00000010395100     0.00000047277128     0.00000128492948
   65     0.00000029659168     0.00000017646845     0.00000025491293     0.00000109308431     0.00000375910769
   66     0.00000079154535     0.00000155809404     0.00001074950197     0.00000856728468     0.00000065157504
   67     0.00000073204284     0.00000146498425     0.00000614818592     0.00000954258895     0.00000046761401
   68     0.00000033642403     0.00000073997269     0.00000399967525     0.00000880242081     0.00000042378004

                 6                   7                   8                   9                  10

    1     1.51114373347491     0.01549770343942     0.00399960398744     0.00044795926296     0.00044993342880
    2     0.14368512072699     0.10570722854452     0.04569107419441     0.00512819212130     0.00556193902186
    3     0.13990730023587     1.02718107178683     0.10058142886024     0.01544715610958     0.00600440108938
    4     0.15761823542692     0.10686076240975     0.02491451252603     0.00434504026685     0.00624926582385
    5     1.64740259207041     0.01453463325511     0.00236567001649     0.00073742649346     0.00034949015649
    6     0.00000000000000     0.01018906113416     0.00727743689471     0.00128564410121     0.00343896864370
    7     0.01018906113416     0.00000000000000     1.40914879284414     0.15001236251026     0.11298472964020
    8     0.00727743689471     1.40914879284414     0.00000000000000     1.47522287699052     0.13564210211814
    9     0.00128564410121     0.15001236251026     1.47522287699052     0.00000000000000     1.68173776470237
   10     0.00343896864370     0.11298472964020     0.13564210211814     1.68173776470237     0.00000000000000
   11     0.00091917683774     0.14268553315307     0.11674185431077     0.15498082408189     1.51516587430663
   12     0.00633597781528     1.53614565512155     0.12939379423321     0.11373260376440     0.11127666379405
   13     0.00008750548863     0.02000133147301     0.02224007594638     0.02529430337087     0.16558583163115
   14     0.00006088159363     0.00321032791192     0.00266556255772     0.00345004841494     0.01752021598992
   15     0.00000927340260     0.00056751511142     0.00153309326550     0.00100682401524     0.00333184287174
   16     0.00000608001831     0.00020403456848     0.00021589545609     0.00018661494650     0.00053314189132
   17     0.00000813016215     0.00028549837351     0.00135454082979     0.00046473646701     0.00131320556608
   18     0.00005806299945     0.00062683190845     0.00029651893141     0.00017072730496     0.00047180043578
   19     0.00024210240588     0.00632351225833     0.00337922417031     0.00169146959672     0.00461051104733
   20     0.00008231567240     0.00014278606297     0.00003439390928     0.00002365119575     0.00006950475095
   21     0.00003579699921     0.00002747985128     0.00001128861620     0.00000776153188     0.00001980374820
   22     0.00018643349991     0.00001154903591     0.00000453602344     0.00000249727908     0.00000480403070
   23     0.00235799386032     0.00008284538073     0.00002480748099     0.00000752466519     0.00000496277686
   24     0.00241954143861     0.00003406034724     0.00002155594869     0.00000357571591     0.00000351319260
   25     0.00024653350533     0.00000428153376     0.00000268657114     0.00000051300926     0.00000070550434
   26     0.00014264697338     0.00000288813215     0.00000086989815     0.00000042112655     0.00000054706692
   27     0.00012629991161     0.00000445694374     0.00000186991938     0.00000090157686     0.00000147079087
   28     0.00004382550827     0.00000138548309     0.00000043934264     0.00000012977063     0.00000009306341
   29     0.00000629152836     0.00000039377138     0.00000014479402     0.00000002289228     0.00000001924359
   30     0.00000725115666     0.00000013360881     0.00000005582542     0.00000001092045     0.00000001211264
   31     0.00000252497872     0.00000010175892     0.00000006759388     0.00000000538541     0.00000000672146
   32     0.00001072370962     0.00000011618989     0.00000006121609     0.00000000674617     0.00000000613648
   33     0.00000095345839     0.00000003700557     0.00000001541790     0.00000000342775     0.00000000277185
   34     0.00000435516486     0.00000019115688     0.00000007771600     0.00000001325125     0.00000002204805
   35     0.00000870502635     0.00000029621910     0.00000015322317     0.00000002251665     0.00000003850085
   36     0.00001101030855     0.00001443768721     0.00000951335683     0.00000552947883     0.00001333715851
   37     0.00000337962513     0.00018589375036     0.00017303610780     0.00016620983448     0.00087400066266
   38     0.05963977386250     0.00092691244791     0.00017234857275     0.00003364549516     0.00001766655648
   39     0.00970938407282     0.01301802744925     0.01089320470891     0.00074818165080     0.00018828076687
   40     0.01186676964527     0.01221529013571     0.00074928067502     0.00020132105861     0.00023364962130
   41     0.84005594880124     0.00033533278825     0.00007978723112     0.00002597623869     0.00001166584695
   42     0.00020792760994     0.05548086387216     0.82753800131771     0.05776190107628     0.00715632234560
   43     0.00003589312617     0.00944011883721     0.05382232034612     0.83801845158548     0.06625084709131
   44     0.00000447945889     0.00115251408879     0.00062571675375     0.00198997999249     0.01826586141672
   45     0.00000065082376     0.00001894273718     0.00000934007093     0.00002433082287     0.00005350575449
   46     0.00000152537997     0.00001765821693     0.00000629399075     0.00000523253269     0.00001279355909
   47     0.00008130340825     0.00273955014399     0.00040896346570     0.00023515207270     0.00021732423677
   48     0.00002732254177     0.00004170154321     0.00000950980680     0.00000277133827     0.00001138705146
   49     0.00094611971457     0.00002102662283     0.00000676264535     0.00000163901745     0.00000127765614
   50     0.00093124992920     0.00000317827053     0.00000174078506     0.00000029484726     0.00000036140702
   51     0.00000410966744     0.00000036632292     0.00000014709511     0.00000004965594     0.00000004700286
   52     0.00001407115188     0.00000108245123     0.00000025021661     0.00000010802371     0.00000014190162
   53     0.00000511963906     0.00000005232788     0.00000003212117     0.00000000859878     0.00000000938005
   54     0.00000693138904     0.00000026255545     0.00000008613248     0.00000001117110     0.00000001236645
   55     0.00000044174775     0.00000000949837     0.00000000905195     0.00000000151919     0.00000000041970
   56     0.00000496461417     0.00000007342372     0.00000002523676     0.00000000148536     0.00000000304910
   57     0.00000006506263     0.00000000625684     0.00000000486411     0.00000000014905     0.00000000056875
   58     0.00000184536573     0.00000002487070     0.00000003656665     0.00000000086995     0.00000000099269
   59     0.00000028536566     0.00000000374914     0.00000000092861     0.00000000122609     0.00000000056262
   60     0.00000033186041     0.00000001153531     0.00000000088746     0.00000000020259     0.00000000013993
   61     0.00000010422945     0.00000000237974     0.00000000081137     0.00000000088179     0.00000000025169
   62     0.00000008392929     0.00000001218547     0.00000000387464     0.00000000031087     0.00000000123429
   63     0.00000059881182     0.00000004411514     0.00000002031501     0.00000000325003     0.00000001193037
   64     0.00000301574703     0.00000005266063     0.00000004863453     0.00000000148842     0.00000000801631
   65     0.00000157284510     0.00000005187863     0.00000002554169     0.00000000459671     0.00000000713195
   66     0.00000030852575     0.00003401786669     0.00005726602273     0.00001881850203     0.00010286268374
   67     0.00000040480165     0.00002677481533     0.00009639137994     0.00001682299867     0.00016053736516
   68     0.00000021040240     0.00001449521154     0.00000566408494     0.00000357032203     0.00003359103065

                11                  12                  13                  14                  15

    1     0.00095072054664     0.00301432175804     0.00018335758022     0.00004448721136     0.00001372496049
    2     0.00353690972156     0.02270493512566     0.00053996476578     0.00012535115469     0.00003157200507
    3     0.01847144804414     0.12126329429768     0.00173129870225     0.00066054956456     0.00009436719270
    4     0.00744103699750     0.06537793115261     0.00098587073027     0.00160640063430     0.00019125888033
    5     0.00050117108195     0.00435114067646     0.00009727346325     0.00013032329980     0.00002065478347
    6     0.00091917683774     0.00633597781528     0.00008750548863     0.00006088159363     0.00000927340260
    7     0.14268553315307     1.53614565512155     0.02000133147301     0.00321032791192     0.00056751511142
    8     0.11674185431077     0.12939379423321     0.02224007594638     0.00266556255772     0.00153309326550
    9     0.15498082408189     0.11373260376440     0.02529430337087     0.00345004841494     0.00100682401524
   10     1.51516587430663     0.11127666379405     0.16558583163115     0.01752021598992     0.00333184287174
   11     0.00000000000000     1.53730884075363     1.30266099153617     0.08561651383256     0.01852502898930
   12     1.53730884075363     0.00000000000000     0.14519947312024     0.03132907004757     0.00381710017209
   13     1.30266099153617     0.14519947312024     0.00000000000000     1.14875858235426     0.10888032087906
   14     0.08561651383256     0.03132907004757     1.14875858235426     0.00000000000000     1.32717778196268
   15     0.01852502898930     0.00381710017209     0.10888032087906     1.32717778196268     0.00000000000000
   16     0.00257438774038     0.00134925285317     0.01511067031437     0.12895169711332     1.46725113250138
   17     0.00436631232674     0.00262431374851     0.01277763772539     0.12409077184857     0.12851673242638
   18     0.00271058064386     0.00532688362434     0.01374684154520     0.12577589766583     0.12163491372308
   19     0.03048070666267     0.05841356922671     0.11412281182943     1.42731710536149     0.12195150317497
   20     0.00038953713673     0.00109446061445     0.00139772174822     0.01586382527667     0.01191081285682
   21     0.00008196851895     0.00014848370601     0.00033793863649     0.00292901324940     0.00583305590035
   22     0.00001745970273     0.00002544897367     0.00006690172430     0.00041086577260     0.00034903800643
   23     0.00001742359366     0.00010035697800     0.00001854063416     0.00013931560243     0.00038140590077
   24     0.00000365840447     0.00001423381092     0.00000405965562     0.00001788387800     0.00003932721987
   25     0.00000123423216     0.00000281072199     0.00000236759612     0.00002820518897     0.00018026124035
   26     0.00000125361840     0.00000128150607     0.00000311476072     0.00002409133299     0.00003930803403
   27     0.00000536026480     0.00000637183445     0.00001688717408     0.00012067955990     0.00034996835440
   28     0.00000028534903     0.00000063091200     0.00000045620680     0.00000320358084     0.00001149602561
   29     0.00000006719121     0.00000021746509     0.00000011471267     0.00000097206649     0.00000341802115
   30     0.00000003748491     0.00000008176316     0.00000003806703     0.00000022535585     0.00000084019120
   31     0.00000001899487     0.00000002124784     0.00000001858108     0.00000009316925     0.00000020235604
   32     0.00000001626349     0.00000002202708     0.00000001398238     0.00000011456796     0.00000012435262
   33     0.00000000639603     0.00000001052033     0.00000000541448     0.00000002571689     0.00000004188690
   34     0.00000003152230     0.00000008536206     0.00000004443580     0.00000018489434     0.00000059796644
   35     0.00000006317345     0.00000011389875     0.00000011622490     0.00000067420586     0.00000200099266
   36     0.00005274354085     0.00006938822141     0.00017381741741     0.00110947124425     0.00347983354655
   37     0.00435073015820     0.00096693419555     0.04281582692868     0.10135128927824     1.11491845754573
   38     0.00007176274982     0.00024923858728     0.00001172073692     0.00000771587311     0.00000088879562
   39     0.00014632797604     0.00037413073579     0.00005149165192     0.00002296407238     0.00000459011086
   40     0.00184578615775     0.01794850174100     0.00022173918115     0.00082034572604     0.00007981564801
   41     0.00002598200222     0.00009267151656     0.00000422021915     0.00000381367859     0.00000073398749
   42     0.00286183010299     0.00760222979908     0.00030554876959     0.00004576788942     0.00001444506202
   43     0.01303116713902     0.00139234620695     0.00080678699229     0.00029505069959     0.00004465960692
   44     0.04498002428366     0.00621317476753     0.79198319453631     0.03753784303418     0.00972912776874
   45     0.00033148198522     0.00004240910167     0.00088538745813     0.00939222454159     0.05413916119935
   46     0.00003921284120     0.00009412693517     0.00014130375659     0.00216081495507     0.00828126325135
   47     0.00716905301974     0.02451872439443     0.01191115563339     0.05067909365559     0.00745613775955
   48     0.00006283229811     0.00042480537990     0.00007606306166     0.00121336209160     0.00033760797633
   49     0.00000284887684     0.00002249101744     0.00000269852933     0.00001369969749     0.00007236652282
   50     0.00000048470230     0.00000167428931     0.00000028855695     0.00000174706959     0.00000074966941
   51     0.00000016763034     0.00000009126390     0.00000052994293     0.00000307610747     0.00000270093596
   52     0.00000061887457     0.00000055561136     0.00000134278825     0.00001265151490     0.00000798779308
   53     0.00000002935982     0.00000005833046     0.00000004639132     0.00000035725935     0.00000127346833
   54     0.00000005593672     0.00000006254078     0.00000008173005     0.00000116559792     0.00000922892614
   55     0.00000000884583     0.00000000238087     0.00000000252875     0.00000001904328     0.00000007328041
   56     0.00000000191344     0.00000001035346     0.00000000572991     0.00000002547808     0.00000016909474
   57     0.00000000219954     0.00000000090347     0.00000000113015     0.00000000500486     0.00000001109558
   58     0.00000000257922     0.00000000478338     0.00000000306606     0.00000001039423     0.00000005938167
   59     0.00000000153450     0.00000000173980     0.00000000077071     0.00000000304233     0.00000001061550
   60     0.00000000089139     0.00000000142241     0.00000000034444     0.00000000127415     0.00000000374782
   61     0.00000000130661     0.00000000123968     0.00000000044114     0.00000000678060     0.00000000787534
   62     0.00000000073166     0.00000000209805     0.00000000481080     0.00000001360825     0.00000006963016
   63     0.00000001021841     0.00000002670452     0.00000001805308     0.00000006385134     0.00000023049992
   64     0.00000000715497     0.00000000970633     0.00000000544743     0.00000002511582     0.00000006479621
   65     0.00000001400351     0.00000001534439     0.00000001908159     0.00000015142240     0.00000078550448
   66     0.00064608708965     0.00018935991977     0.00722555288345     0.01390873500094     0.04143926345792
   67     0.00081260827159     0.00022018762019     0.00797469729088     0.01374979847804     0.04195739442213
   68     0.00019516953155     0.00006148769803     0.00164118455329     0.00680633248834     0.04510654731113

                16                  17                  18                  19                  20

    1     0.00000390435571     0.00001417478669     0.00004058165768     0.00021769854689     0.00007236340645
    2     0.00000984275511     0.00002402280871     0.00007340926179     0.00030292286182     0.00008466121930
    3     0.00006244639953     0.00007498996956     0.00035422518347     0.00231549788438     0.00037824444614
    4     0.00033832529300     0.00033602380902     0.00228885212601     0.01200538464563     0.00360876477441
    5     0.00001651730246     0.00004888984282     0.00023508517334     0.00064448805236     0.00060793601954
    6     0.00000608001831     0.00000813016215     0.00005806299945     0.00024210240588     0.00008231567240
    7     0.00020403456848     0.00028549837351     0.00062683190845     0.00632351225833     0.00014278606297
    8     0.00021589545609     0.00135454082979     0.00029651893141     0.00337922417031     0.00003439390928
    9     0.00018661494650     0.00046473646701     0.00017072730496     0.00169146959672     0.00002365119575
   10     0.00053314189132     0.00131320556608     0.00047180043578     0.00461051104733     0.00006950475095
   11     0.00257438774038     0.00436631232674     0.00271058064386     0.03048070666267     0.00038953713673
   12     0.00134925285317     0.00262431374851     0.00532688362434     0.05841356922671     0.00109446061445
   13     0.01511067031437     0.01277763772539     0.01374684154520     0.11412281182943     0.00139772174822
   14     0.12895169711332     0.12409077184857     0.12577589766583     1.42731710536149     0.01586382527667
   15     1.46725113250138     0.12851673242638     0.12163491372308     0.12195150317497     0.01191081285682
   16     0.00000000000000     1.49029811076888     0.13673185262176     0.13237578879225     0.01456120900125
   17     1.49029811076888     0.00000000000000     1.42351369876407     0.12549429639478     0.10791191907948
   18     0.13673185262176     1.42351369876407     0.00000000000000     1.38906110433432     1.14988137154189
   19     0.13237578879225     0.12549429639478     1.38906110433432     0.00000000000000     0.13054529149442
   20     0.01456120900125     0.10791191907948     1.14988137154189     0.13054529149442     0.00000000000000
   21     0.00306144867051     0.03324994424535     0.08884508577469     0.02358575720147     1.34310837831036
   22     0.00041519805128     0.00357310996335     0.01515158524354     0.00229672383612     0.10576145623201
   23     0.00018754732170     0.00138340493736     0.00426440765342     0.00141271833266     0.04562696255447
   24     0.00002998924848     0.00020231225968     0.00046164616100     0.00015050218005     0.00382789908587
   25     0.00003148520527     0.00030328422266     0.00044422303845     0.00026416456748     0.00366973259691
   26     0.00002825669085     0.00016804203995     0.00056609593684     0.00013001576368     0.00272029780845
   27     0.00012756876540     0.00103821808932     0.00245803078058     0.00078274825176     0.01859655616252
   28     0.00000388189968     0.00002749246232     0.00004985426529     0.00002343773843     0.00028561478668
   29     0.00000122325199     0.00000760538059     0.00001507668730     0.00000617526276     0.00009359350734
   30     0.00000040552751     0.00000230406849     0.00000407886272     0.00000184242949     0.00001893564188
   31     0.00000015239585     0.00000090386519     0.00000154379515     0.00000060315759     0.00000502049899
   32     0.00000009843222     0.00000040967476     0.00000108061156     0.00000064755447     0.00000411331138
   33     0.00000006447271     0.00000022274447     0.00000040962428     0.00000018552061     0.00000115488062
   34     0.00000032223824     0.00000189025068     0.00000274885482     0.00000116551565     0.00001683936293
   35     0.00000095017592     0.00000575596156     0.00001231884400     0.00000425627818     0.00006790872971
   36     0.00380706165580     0.05248135503116     0.03285618139547     0.00554429956318     0.19698081463391
   37     0.12240790035485     0.01590357108049     0.00766476260315     0.01534147270741     0.00081092337413
   38     0.00000055478550     0.00000095747421     0.00000750306486     0.00002474304963     0.00000673800157
   39     0.00000181764524     0.00000220509440     0.00000496725129     0.00002901586102     0.00000630817313
   40     0.00017570411083     0.00014386625010     0.00143708482611     0.00598529278629     0.00137526059628
   41     0.00000061327082     0.00000121515613     0.00000297275666     0.00001265759604     0.00000558256346
   42     0.00000613345041     0.00000555821317     0.00002443517775     0.00012423320160     0.00000782070280
   43     0.00001131537223     0.00000558909879     0.00001343675017     0.00007323324232     0.00000121399093
   44     0.00066956475822     0.00029878470326     0.00076307250572     0.00655611441115     0.00018432989853
   45     0.83145825516235     0.05600688560228     0.00974970046884     0.00228433242321     0.00072335632211
   46     0.05508948263530     0.81083914578430     0.05420485987062     0.00889087684578     0.01065462566691
   47     0.00222555105153     0.00809414608518     0.05141426022932     0.79065705033696     0.01924085099777
   48     0.00072864716309     0.00605332627054     0.03901687956275     0.01500049486434     0.79832279644139
   49     0.00002873776047     0.00023097997764     0.00109877209528     0.00040979963732     0.01214582992228
   50     0.00000155698751     0.00001074686885     0.00002269649966     0.00000666569915     0.00010956875891
   51     0.00000186821118     0.00001446677353     0.00005580857418     0.00001730743748     0.00023134875440
   52     0.00001930203365     0.00010833678299     0.00013380157494     0.00004636854842     0.00056021078216
   53     0.00000060113529     0.00000387440202     0.00000600675881     0.00000294504173     0.00003518351812
   54     0.00000118534157     0.00001335063268     0.00001540524021     0.00001182093461     0.00012177101754
   55     0.00000004749499     0.00000017615435     0.00000059444879     0.00000024952567     0.00000144943687
   56     0.00000003651233     0.00000040864815     0.00000122977261     0.00000061812076     0.00000364624144
   57     0.00000000853925     0.00000001735684     0.00000010085321     0.00000005876644     0.00000038529377
   58     0.00000001565932     0.00000021406228     0.00000054781499     0.00000016761091     0.00000134718888
   59     0.00000000565569     0.00000001675273     0.00000006660525     0.00000001200340     0.00000052603358
   60     0.00000000379653     0.00000000924291     0.00000001357563     0.00000000678922     0.00000007189226
   61     0.00000000640931     0.00000003979874     0.00000007889155     0.00000002010933     0.00000012360966
   62     0.00000002160274     0.00000015303863     0.00000012584787     0.00000010972030     0.00000082092336
   63     0.00000015573720     0.00000073715947     0.00000062828544     0.00000034643372     0.00000368652958
   64     0.00000005218282     0.00000025649283     0.00000010704918     0.00000006216399     0.00000114379026
   65     0.00000027846140     0.00000192440558     0.00000298629072     0.00000100352809     0.00002404372835
   66     0.01282151625495     0.00085352749664     0.00285086205195     0.00079814244614     0.00036829192560
   67     0.01265739750379     0.00082169956215     0.00268505592663     0.00085936717006     0.00032616302308
   68     0.01948032710592     0.00142081667811     0.00033793527856     0.00072856307948     0.00006849875492

                21                  22                  23                  24                  25

    1     0.00001872571812     0.00005812079630     0.00056543413947     0.00023570559056     0.00001993346276
    2     0.00001944199128     0.00004375397735     0.00038417444584     0.00023695733440     0.00001450413215
    3     0.00006470675757     0.00006010885716     0.00049861337749     0.00029786237278     0.00002141279866
    4     0.00048987684281     0.00064841862998     0.00736328214419     0.00124487077854     0.00013049182354
    5     0.00023192724599     0.00166277233487     0.02409972976086     0.00965828722762     0.00047484133485
    6     0.00003579699921     0.00018643349991     0.00235799386032     0.00241954143861     0.00024653350533
    7     0.00002747985128     0.00001154903591     0.00008284538073     0.00003406034724     0.00000428153376
    8     0.00001128861620     0.00000453602344     0.00002480748099     0.00002155594869     0.00000268657114
    9     0.00000776153188     0.00000249727908     0.00000752466519     0.00000357571591     0.00000051300926
   10     0.00001980374820     0.00000480403070     0.00000496277686     0.00000351319260     0.00000070550434
   11     0.00008196851895     0.00001745970273     0.00001742359366     0.00000365840447     0.00000123423216
   12     0.00014848370601     0.00002544897367     0.00010035697800     0.00001423381092     0.00000281072199
   13     0.00033793863649     0.00006690172430     0.00001854063416     0.00000405965562     0.00000236759612
   14     0.00292901324940     0.00041086577260     0.00013931560243     0.00001788387800     0.00002820518897
   15     0.00583305590035     0.00034903800643     0.00038140590077     0.00003932721987     0.00018026124035
   16     0.00306144867051     0.00041519805128     0.00018754732170     0.00002998924848     0.00003148520527
   17     0.03324994424535     0.00357310996335     0.00138340493736     0.00020231225968     0.00030328422266
   18     0.08884508577469     0.01515158524354     0.00426440765342     0.00046164616100     0.00044422303845
   19     0.02358575720147     0.00229672383612     0.00141271833266     0.00015050218005     0.00026416456748
   20     1.34310837831036     0.10576145623201     0.04562696255447     0.00382789908587     0.00366973259691
   21     0.00000000000000     0.98324130988358     0.10689046193428     0.01538268802107     0.01171247183819
   22     0.98324130988358     0.00000000000000     1.42966790772285     0.13144415245440     0.12552775862014
   23     0.10689046193428     1.42966790772285     0.00000000000000     1.50432198842958     0.13029851204770
   24     0.01538268802107     0.13144415245440     1.50432198842958     0.00000000000000     1.44087317482249
   25     0.01171247183819     0.12552775862014     0.13029851204770     1.44087317482249     0.00000000000000
   26     0.01580685465127     0.13082025032934     0.13738928967542     0.12997899111712     1.41944022574516
   27     0.11451293706808     1.40321667255679     0.12762988267216     0.13854130410355     0.13097060144920
   28     0.00082375725719     0.00855905977730     0.01546140705093     0.11887807707824     1.06061790655262
   29     0.00023920246922     0.00227535873299     0.00175361070024     0.01409676301795     0.07192231850364
   30     0.00005511008603     0.00044062841443     0.00046610758385     0.00271589034455     0.01521875953936
   31     0.00001831800543     0.00009800943824     0.00010095881218     0.00095216163716     0.00371826751036
   32     0.00000888727608     0.00005431205946     0.00013608350944     0.00109318608584     0.00201793464882
   33     0.00000461287589     0.00003033323291     0.00006284515892     0.00029388538912     0.00063474591990
   34     0.00005168802590     0.00045832164795     0.00072737006945     0.00553688321477     0.01341020597833
   35     0.00015924973337     0.00147323576594     0.00183901003041     0.00639431560849     0.03096189547582
   36     2.17494369095906     0.13794543037091     0.02643903236510     0.00349771276199     0.00663252465892
   37     0.00034189720532     0.00004721041170     0.00003084487815     0.00000399934437     0.00000957375328
   38     0.00000263457679     0.00000466458162     0.00002827302258     0.00000878759421     0.00000117840684
   39     0.00000126913414     0.00000251240996     0.00002063621390     0.00001361374642     0.00000183089271
   40     0.00019877694279     0.00009760907738     0.00076737764169     0.00005968692893     0.00001564341931
   41     0.00000150508227     0.00000753253855     0.00006889387049     0.00012923010085     0.00000887355999
   42     0.00000197880741     0.00000075732754     0.00000687591764     0.00000195112339     0.00000014090445
   43     0.00000090989020     0.00000030979909     0.00000178485512     0.00000084060563     0.00000003161201
   44     0.00004611091830     0.00001158447830     0.00000347400676     0.00000062495043     0.00000063773896
   45     0.00017413087189     0.00004339586218     0.00003815286192     0.00000491840257     0.00000185748453
   46     0.00712843398567     0.00041699821746     0.00010998638232     0.00003516365072     0.00001837289721
   47     0.00164122635279     0.00017184580929     0.00019863683465     0.00001187062833     0.00000724559824
   48     0.04565963265792     0.01098748766237     0.00993220624208     0.00095064208303     0.00034346304255
   49     0.01288350291317     0.05341679192235     0.81339731673935     0.05394639851836     0.00862441922781
   50     0.00091808773925     0.00937146338313     0.05654415680215     0.82696951377485     0.05450342632151
   51     0.00092143508041     0.00894074802435     0.00215490880255     0.00912821291724     0.05303783756216
   52     0.01592255994023     0.05256771448622     0.00912361446698     0.00201020491651     0.00869390191403
   53     0.00010785276214     0.00064529680723     0.00134195424325     0.01835296205853     0.04281885134257
   54     0.00032344557368     0.00307740816103     0.00085413951905     0.01265675461794     0.04038305690699
   55     0.00000588630025     0.00004486643991     0.00003973085485     0.00014348903648     0.00115946013188
   56     0.00000907062296     0.00007776965815     0.00009947659773     0.00046925105974     0.00133491199846
   57     0.00000088919226     0.00000890747607     0.00000995003175     0.00004676799374     0.00017964914223
   58     0.00000686440886     0.00003144667345     0.00001227345804     0.00046086392682     0.00121705458811
   59     0.00000123345353     0.00001123957368     0.00000772039829     0.00002296898616     0.00005954517840
   60     0.00000020881535     0.00000126910794     0.00000163635813     0.00000541072019     0.00002042709881
   61     0.00000049066227     0.00000412796484     0.00000767525049     0.00003589148847     0.00004532135972
[...]
   15     0.00000016909474     0.00000001109558     0.00000005938167     0.00000001061550     0.00000000374782
   16     0.00000003651233     0.00000000853925     0.00000001565932     0.00000000565569     0.00000000379653
   17     0.00000040864815     0.00000001735684     0.00000021406228     0.00000001675273     0.00000000924291
   18     0.00000122977261     0.00000010085321     0.00000054781499     0.00000006660525     0.00000001357563
   19     0.00000061812076     0.00000005876644     0.00000016761091     0.00000001200340     0.00000000678922
   20     0.00000364624144     0.00000038529377     0.00000134718888     0.00000052603358     0.00000007189226
   21     0.00000907062296     0.00000088919226     0.00000686440886     0.00000123345353     0.00000020881535
   22     0.00007776965815     0.00000890747607     0.00003144667345     0.00001123957368     0.00000126910794
   23     0.00009947659773     0.00000995003175     0.00001227345804     0.00000772039829     0.00000163635813
   24     0.00046925105974     0.00004676799374     0.00046086392682     0.00002296898616     0.00000541072019
   25     0.00133491199846     0.00017964914223     0.00121705458811     0.00005954517840     0.00002042709881
   26     0.00027369901654     0.00005287347876     0.00017077857255     0.00005947147288     0.00002320467724
   27     0.00009518687040     0.00001263365155     0.00004779740885     0.00001155674125     0.00000301470340
   28     0.01106200973147     0.00089123915652     0.01229621055513     0.00022937436237     0.00008413009829
   29     0.05626980413310     0.00917113582957     0.01204267184260     0.00109298115911     0.00010759052751
   30     0.79440648191549     0.04426083620261     0.04170793874597     0.00792270414447     0.00228394791152
   31     0.04071194062251     0.84517507122948     0.79104636492440     0.01322145237481     0.01460223290578
   32     0.01101244233168     0.04374077028157     0.05745264325445     0.04892495543146     0.04781878570766
   33     0.01156664578933     0.01712928816484     0.01210307024798     0.89137314345175     0.90363971456283
   34     0.00696230812404     0.01163448275788     0.01950112670014     0.01313653070117     0.01064783710445
   35     0.01915362430759     0.00135871826703     0.00699427790417     0.00805750939320     0.00101754455621
   36     0.00000515906531     0.00000042309178     0.00000188828490     0.00000057610182     0.00000010527948
   37     0.00000000980816     0.00000000330309     0.00000000603180     0.00000000113254     0.00000000074817
   38     0.00000000918738     0.00000000078999     0.00000000330248     0.00000000082572     0.00000000026050
   39     0.00000000970593     0.00000000016915     0.00000001112037     0.00000000041903     0.00000000091075
   40     0.00000013469028     0.00000000196373     0.00000001447886     0.00000000175145     0.00000000017172
   41     0.00000002956903     0.00000001148901     0.00000004519233     0.00000002627927     0.00000000684051
   42     0.00000000045644     0.00000000002659     0.00000000064761     0.00000000001778     0.00000000001039
   43     0.00000000020894     0.00000000004466     0.00000000023278     0.00000000015357     0.00000000003130
   44     0.00000000016377     0.00000000007447     0.00000000052022     0.00000000005995     0.00000000004593
   45     0.00000000348451     0.00000000108462     0.00000000115441     0.00000000127512     0.00000000042011
   46     0.00000000717652     0.00000000332196     0.00000001998739     0.00000000544214     0.00000000254962
   47     0.00000000813621     0.00000000581665     0.00000000037398     0.00000000084293     0.00000000094952
   48     0.00000174909087     0.00000002926882     0.00000032459510     0.00000003275289     0.00000000491485
   49     0.00001019951285     0.00000084938091     0.00000247741913     0.00000011572527     0.00000007153728
   50     0.00002101024706     0.00000157274808     0.00003025670958     0.00000292412241     0.00000016202448
   51     0.00003912455101     0.00000626817493     0.00005673980687     0.00002240720127     0.00000320398209
   52     0.00000188764790     0.00000015496714     0.00000122195668     0.00000008235867     0.00000003187441
   53     0.00002568708318     0.00029778972415     0.00145681099150     0.00002303276736     0.00002677631992
   54     0.00066175923166     0.00009834001395     0.00016465885167     0.00003647359745     0.00000241033798
   55     0.00677012606943     0.00173040548641     0.00405841987576     0.00010707005249     0.00003160575258
   56     0.00000000000000     0.00342570095096     0.01998124187686     0.00138450376295     0.00022478758129
   57     0.00342570095096     0.00000000000000     0.00669872083969     0.00097533199758     0.00179465492721
   58     0.01998124187686     0.00669872083969     0.00000000000000     0.00011107182109     0.00079765162457
   59     0.00138450376295     0.00097533199758     0.00011107182109     0.00000000000000     0.00741977155106
   60     0.00022478758129     0.00179465492721     0.00079765162457     0.00741977155106     0.00000000000000
   61     0.00007409589855     0.00056604847550     0.00017139084019     0.00737926508306     0.00939982135358
   62     0.00008837342606     0.00059694049658     0.00070268631369     0.00117626630868     0.00059832910448
   63     0.00013442730095     0.00045359614674     0.00095805517486     0.00011443408122     0.00017977873731
   64     0.00105568738967     0.00002777236447     0.00011095373412     0.00156217540049     0.00008046636697
   65     0.00020641672816     0.00021686688990     0.00007004003639     0.00014995485019     0.00010112153924
   66     0.00000000748806     0.00000000011047     0.00000000228700     0.00000000014017     0.00000000003768
   67     0.00000000328420     0.00000000054557     0.00000000083682     0.00000000032365     0.00000000025143
   68     0.00000000037453     0.00000000016721     0.00000000086453     0.00000000011649     0.00000000004479

                61                  62                  63                  64                  65

    1     0.00000001365669     0.00000008785305     0.00000036957732     0.00000009232434     0.00000029659168
    2     0.00000000296519     0.00000001754101     0.00000018360229     0.00000014499302     0.00000017646845
    3     0.00000000470201     0.00000001176075     0.00000025239834     0.00000010395100     0.00000025491293
    4     0.00000004314669     0.00000006519561     0.00000032746838     0.00000047277128     0.00000109308431
    5     0.00000003300020     0.00000052092675     0.00000187634932     0.00000128492948     0.00000375910769
    6     0.00000010422945     0.00000008392929     0.00000059881182     0.00000301574703     0.00000157284510
    7     0.00000000237974     0.00000001218547     0.00000004411514     0.00000005266063     0.00000005187863
    8     0.00000000081137     0.00000000387464     0.00000002031501     0.00000004863453     0.00000002554169
    9     0.00000000088179     0.00000000031087     0.00000000325003     0.00000000148842     0.00000000459671
   10     0.00000000025169     0.00000000123429     0.00000001193037     0.00000000801631     0.00000000713195
   11     0.00000000130661     0.00000000073166     0.00000001021841     0.00000000715497     0.00000001400351
   12     0.00000000123968     0.00000000209805     0.00000002670452     0.00000000970633     0.00000001534439
   13     0.00000000044114     0.00000000481080     0.00000001805308     0.00000000544743     0.00000001908159
   14     0.00000000678060     0.00000001360825     0.00000006385134     0.00000002511582     0.00000015142240
   15     0.00000000787534     0.00000006963016     0.00000023049992     0.00000006479621     0.00000078550448
   16     0.00000000640931     0.00000002160274     0.00000015573720     0.00000005218282     0.00000027846140
   17     0.00000003979874     0.00000015303863     0.00000073715947     0.00000025649283     0.00000192440558
   18     0.00000007889155     0.00000012584787     0.00000062828544     0.00000010704918     0.00000298629072
   19     0.00000002010933     0.00000010972030     0.00000034643372     0.00000006216399     0.00000100352809
   20     0.00000012360966     0.00000082092336     0.00000368652958     0.00000114379026     0.00002404372835
   21     0.00000049066227     0.00000204370296     0.00000985743014     0.00000416350682     0.00002798078813
   22     0.00000412796484     0.00001620629821     0.00010228311901     0.00002443848438     0.00042767153541
   23     0.00000767525049     0.00003390789323     0.00041864147380     0.00010261114639     0.00084295131518
   24     0.00003589148847     0.00013526000743     0.00362160662152     0.00021591881695     0.00109843663228
   25     0.00004532135972     0.00020710979780     0.00636465151906     0.00101255521001     0.00870292286095
   26     0.00001762314700     0.00012696947771     0.00150674829651     0.00104865432140     0.01227912701864
   27     0.00000610326771     0.00001264368286     0.00015791599413     0.00007479186237     0.00211342954969
   28     0.00006944623874     0.00077039039946     0.00992021310995     0.01147946344654     0.01104966486163
   29     0.00014439757050     0.01139387932199     0.01253077965526     0.05687460651907     0.04137323257604
   30     0.00096833649006     0.00122605387940     0.00681565823990     0.01941340049967     0.00817820859678
   31     0.01041981867034     0.01321508293848     0.01884045834283     0.00700771938945     0.00133044090333
   32     0.04743457878456     0.04611271500198     0.05783499312597     0.01150180148700     0.00621325056615
   33     0.90361188400828     0.01983086442442     0.01199480954604     0.01240978592055     0.00087862473304
   34     0.01512381836972     0.82751221238115     0.77916760029714     0.04092710328422     0.04188611491983
   35     0.00223703530589     0.04820204694898     0.04169545646712     0.79177757432613     0.86347477244880
   36     0.00000025510801     0.00000160201613     0.00000643194843     0.00000149371217     0.00002161820102
   37     0.00000000143015     0.00000000487049     0.00000001318916     0.00000001207915     0.00000004710013
   38     0.00000000019111     0.00000000139936     0.00000000521982     0.00000000204534     0.00000000935733
   39     0.00000000035898     0.00000000057197     0.00000002065552     0.00000000257342     0.00000000736491
   40     0.00000000104458     0.00000000160691     0.00000001286482     0.00000000141937     0.00000000760511
   41     0.00000000752495     0.00000000608258     0.00000003774576     0.00000010628194     0.00000009220316
   42     0.00000000002982     0.00000000010523     0.00000000129502     0.00000000090603     0.00000000163855
   43     0.00000000001126     0.00000000008442     0.00000000014788     0.00000000004360     0.00000000174899
   44     0.00000000014900     0.00000000010891     0.00000000111019     0.00000000008920     0.00000000244278
   45     0.00000000028493     0.00000000063019     0.00000001475904     0.00000000145214     0.00000005929310
   46     0.00000000164674     0.00000001475731     0.00000001182333     0.00000000475933     0.00000006709970
   47     0.00000000047024     0.00000000151754     0.00000000783779     0.00000000327819     0.00000005265297
   48     0.00000002546991     0.00000003284908     0.00000034884373     0.00000027572853     0.00000384922539
   49     0.00000002598100     0.00000177174983     0.00000047624517     0.00000068330531     0.00000645831240
   50     0.00000040952966     0.00000953647525     0.00019215514268     0.00001369587890     0.00000893576526
   51     0.00000310770868     0.00003376548916     0.00000555721326     0.00008344658586     0.00134197446880
   52     0.00000004541223     0.00000191388283     0.00000081956979     0.00000303263919     0.00001985616681
   53     0.00000355779408     0.00000353055657     0.00103110378814     0.00057809779757     0.00009861575621
   54     0.00000654965222     0.00029031837061     0.00003540001086     0.00012492873322     0.00018464925584
   55     0.00018472119925     0.00057578853798     0.00004687664762     0.00074666952210     0.00033371783275
   56     0.00007409589855     0.00008837342606     0.00013442730095     0.00105568738967     0.00020641672816
   57     0.00056604847550     0.00059694049658     0.00045359614674     0.00002777236447     0.00021686688990
   58     0.00017139084019     0.00070268631369     0.00095805517486     0.00011095373412     0.00007004003639
   59     0.00737926508306     0.00117626630868     0.00011443408122     0.00156217540049     0.00014995485019
   60     0.00939982135358     0.00059832910448     0.00017977873731     0.00008046636697     0.00010112153924
   61     0.00000000000000     0.00203994622805     0.00081934780272     0.00024118284526     0.00001174685739
   62     0.00203994622805     0.00000000000000     0.00762661510633     0.00364761425258     0.00180553574994
   63     0.00081934780272     0.00762661510633     0.00000000000000     0.02073235317052     0.00354824852291
   64     0.00024118284526     0.00364761425258     0.02073235317052     0.00000000000000     0.00750563302128
   65     0.00001174685739     0.00180553574994     0.00354824852291     0.00750563302128     0.00000000000000
   66     0.00000000032997     0.00000000300166     0.00000000675796     0.00000000167473     0.00000000683201
   67     0.00000000022402     0.00000000287860     0.00000000511078     0.00000000186471     0.00000001540246
   68     0.00000000006045     0.00000000007362     0.00000000011678     0.00000000054505     0.00000000163525

                66                  67                  68

    1     0.00000079154535     0.00000073204284     0.00000033642403
    2     0.00000155809404     0.00000146498425     0.00000073997269
    3     0.00001074950197     0.00000614818592     0.00000399967525
    4     0.00000856728468     0.00000954258895     0.00000880242081
    5     0.00000065157504     0.00000046761401     0.00000042378004
    6     0.00000030852575     0.00000040480165     0.00000021040240
    7     0.00003401786669     0.00002677481533     0.00001449521154
    8     0.00005726602273     0.00009639137994     0.00000566408494
    9     0.00001881850203     0.00001682299867     0.00000357032203
   10     0.00010286268374     0.00016053736516     0.00003359103065
   11     0.00064608708965     0.00081260827159     0.00019516953155
   12     0.00018935991977     0.00022018762019     0.00006148769803
   13     0.00722555288345     0.00797469729088     0.00164118455329
   14     0.01390873500094     0.01374979847804     0.00680633248834
   15     0.04143926345792     0.04195739442213     0.04510654731113
   16     0.01282151625495     0.01265739750379     0.01948032710592
   17     0.00085352749664     0.00082169956215     0.00142081667811
   18     0.00285086205195     0.00268505592663     0.00033793527856
   19     0.00079814244614     0.00085936717006     0.00072856307948
   20     0.00036829192560     0.00032616302308     0.00006849875492
   21     0.00021303425361     0.00019530034972     0.00002754227624
   22     0.00001006625438     0.00001434370345     0.00000734531121
   23     0.00001529466854     0.00001391353876     0.00000301258866
   24     0.00000141286819     0.00000165676010     0.00000039441180
   25     0.00000768597493     0.00000703416289     0.00000032817537
   26     0.00000138624127     0.00000140228387     0.00000039775565
   27     0.00001270936530     0.00001366246735     0.00000178959678
   28     0.00000049661006     0.00000049705210     0.00000005201673
   29     0.00000013077721     0.00000012239869     0.00000001353643
   30     0.00000002472543     0.00000003271710     0.00000000613793
   31     0.00000000649335     0.00000000919781     0.00000000303572
   32     0.00000000728207     0.00000000395476     0.00000000119452
   33     0.00000000160320     0.00000000280694     0.00000000148887
   34     0.00000002103341     0.00000002955186     0.00000000811528
   35     0.00000007431293     0.00000008490923     0.00000001753908
   36     0.00012120577794     0.00012218848564     0.00001387671830
   37     0.89900080156803     0.89800238779259     0.90351131755592
   38     0.00000007735192     0.00000008380804     0.00000001752506
   39     0.00000014127685     0.00000003147043     0.00000006323425
   40     0.00000118783216     0.00000648248964     0.00000312482698
   41     0.00000005123572     0.00000000837684     0.00000005302820
   42     0.00000025323806     0.00000092361442     0.00000008733230
   43     0.00000068096367     0.00000077626015     0.00000021684441
   44     0.00138094019672     0.00111104236853     0.00042690530371
   45     0.00010472716214     0.00009925500899     0.00217955756171
   46     0.00013262158096     0.00013946374605     0.00003001076142
   47     0.00006999474885     0.00007243420151     0.00025867212259
   48     0.00000610713000     0.00001045272244     0.00001730743996
   49     0.00000320516261     0.00000135701246     0.00000017408028
   50     0.00000003565696     0.00000004103785     0.00000004175792
   51     0.00000021045037     0.00000003692157     0.00000004326108
   52     0.00000058563511     0.00000016213606     0.00000020512379
   53     0.00000007217108     0.00000004213728     0.00000000846577
   54     0.00000035375391     0.00000038963562     0.00000001076376
   55     0.00000000235505     0.00000000325067     0.00000000179215
   56     0.00000000748806     0.00000000328420     0.00000000037453
   57     0.00000000011047     0.00000000054557     0.00000000016721
   58     0.00000000228700     0.00000000083682     0.00000000086453
   59     0.00000000014017     0.00000000032365     0.00000000011649
   60     0.00000000003768     0.00000000025143     0.00000000004479
   61     0.00000000032997     0.00000000022402     0.00000000006045
   62     0.00000000300166     0.00000000287860     0.00000000007362
   63     0.00000000675796     0.00000000511078     0.00000000011678
   64     0.00000000167473     0.00000000186471     0.00000000054505
   65     0.00000000683201     0.00000001540246     0.00000000163525
   66     0.00000000000000     0.00692574948272     0.00908082912089
   67     0.00692574948272     0.00000000000000     0.00921420995434
   68     0.00908082912089     0.00921420995434     0.00000000000000



  Atomic Valences: 

 #  #
 Irrep: 1
      1:  4.4066770
      2:  4.4402633
      3:  4.6227626
      4:  4.5960651
      5:  3.9166766
      6:  4.5589247
      7:  4.7581684
      8:  4.3774329
      9:  4.5346497
     10:  3.8659387
     11:  5.0227834
     12:  3.9608442
     13:  3.9660872
     14:  4.6871686
     15:  4.6507423
     16:  4.4562652
     17:  4.4168013
     18:  4.6896504
     19:  4.4435634
     20:  4.0047900
     21:  5.0127391
     22:  4.6265968
     23:  4.4683379
     24:  4.4634533
     25:  4.6985900
     26:  4.4669582
     27:  4.4420458
     28:  4.5353882
     29:  4.2453794
     30:  4.5904698
     31:  4.6069716
     32:  4.2634927
     33:  4.3042026
     34:  4.5823301
     35:  4.6186625
     36:  2.7551068
     37:  4.1577918
     38:  0.9887560
     39:  0.9887234
     40:  0.9905616
     41:  0.9895054
     42:  0.9880069
     43:  0.9887790
     44:  0.9342345
     45:  0.9903745
     46:  0.9826498
     47:  0.9926023
     48:  0.9454623
     49:  0.9914945
     50:  0.9886074
     51:  0.9856675
     52:  0.9824297
     53:  0.9988187
     54:  0.9906563
     55:  0.9873531
     56:  0.9876302
     57:  0.9905655
     58:  0.9904716
     59:  1.0045989
     60:  1.0009183
     61:  1.0010286
     62:  0.9880001
     63:  0.9868774
     64:  0.9903978
     65:  1.0155509
     66:  0.9984291
     67:  0.9983393
     68:  1.0006963


    Psi4 stopped on: Friday, 24 April 2020 12:06PM
    Psi4 wall time for execution: 0:16:29.47

*** Psi4 exiting successfully. Buy a developer a beer!
