68
MOLECULE0-opt-25-28-29-35-244.log	Energy: -992571.3958249
C         -0.47369        4.27484       -0.77262
C          0.87080        4.19232       -0.43112
C          1.54727        2.99025       -0.63170
C          0.82091        1.92595       -1.18236
N         -0.46801        1.98954       -1.51164
C         -1.09695        3.14967       -1.30120
C          2.96907        2.78924       -0.25374
C          3.90005        3.81925       -0.15458
C          5.18592        3.44680        0.23561
N          5.54524        2.19754        0.49726
C          4.57186        1.27507        0.35514
N          3.31187        1.52364       -0.00163
N          4.96058       -0.01086        0.61407
C          4.24498       -1.21700        0.49506
C          4.96891       -2.42656        0.47910
C          4.24843       -3.60943        0.33741
C          2.86263       -3.65080        0.19506
C          2.17119       -2.44335        0.21772
C          2.85938       -1.24340        0.39477
N          0.78457       -2.30552        0.04045
C         -0.15531       -3.23261       -0.33056
C         -1.47472       -2.60110       -0.67494
C         -1.54971       -1.35802       -1.31025
C         -2.78198       -0.77864       -1.57409
C         -3.96544       -1.40989       -1.19135
C         -3.88387       -2.67746       -0.60807
C         -2.65382       -3.27448       -0.35779
C         -5.30243       -0.70405       -1.34847
N         -5.69256        0.22610       -0.29972
C         -5.02579        1.52285       -0.24765
C         -3.81567        1.57797        0.70265
N         -4.11275        1.06898        2.03871
C         -4.90151        1.97792        2.85127
C         -4.67875       -0.27448        1.93976
C         -5.91401       -0.34020        1.02622
O          0.03679       -4.43643       -0.36476
C          6.47175       -2.44217        0.59813
H         -1.03314        5.19154       -0.62028
H          1.37582        5.04558        0.01247
H          1.32509        0.98052       -1.36584
H         -2.15186        3.17639       -1.56575
H          3.66108        4.85098       -0.38078
H          5.96746        4.19698        0.33842
H          5.94182       -0.07695        0.83992
H          4.79679       -4.54803        0.32348
H          2.33378       -4.58486        0.06392
H          2.31419       -0.31213        0.42091
H          0.44595       -1.35913        0.13195
H         -0.65322       -0.83291       -1.62685
H         -2.80974        0.19085       -2.06494
H         -4.79866       -3.19736       -0.33200
H         -2.59023       -4.25713        0.09895
H         -5.30806       -0.14876       -2.29423
H         -6.09480       -1.45985       -1.42299
H         -4.72436        1.80440       -1.26374
H         -5.76714        2.26781        0.07859
H         -3.45859        2.61194        0.79222
H         -2.99077        0.98297        0.29530
H         -5.91169        2.20542        2.46748
H         -4.36391        2.92737        2.95140
H         -5.01694        1.55092        3.85346
H         -4.93707       -0.62312        2.94707
H         -3.89686       -0.93790        1.55206
H         -6.74269        0.20823        1.49843
H         -6.24775       -1.37801        0.91532
H          6.81756       -2.03144        1.55663
H          6.95157       -1.86489       -0.20288
H          6.85220       -3.46466        0.53325
