
    -----------------------------------------------------------------------
          Psi4: An Open-Source Ab Initio Electronic Structure Package
                               Psi4 1.3.2 release

                         Git: Rev {HEAD} ecbda83 


    R. M. Parrish, L. A. Burns, D. G. A. Smith, A. C. Simmonett,
    A. E. DePrince III, E. G. Hohenstein, U. Bozkaya, A. Yu. Sokolov,
    R. Di Remigio, R. M. Richard, J. F. Gonthier, A. M. James,
    H. R. McAlexander, A. Kumar, M. Saitow, X. Wang, B. P. Pritchard,
    P. Verma, H. F. Schaefer III, K. Patkowski, R. A. King, E. F. Valeev,
    F. A. Evangelista, J. M. Turney, T. D. Crawford, and C. D. Sherrill,
    J. Chem. Theory Comput. 13(7) pp 3185--3197 (2017).
    (doi: 10.1021/acs.jctc.7b00174)


                         Additional Contributions by
    P. Kraus, H. Kruse, M. H. Lechner, M. C. Schieber, R. A. Shaw,
    A. Alenaizan, R. Galvelis, Z. L. Glick, S. Lehtola, and J. P. Misiewicz

    -----------------------------------------------------------------------


    Psi4 started on: Wednesday, 04 March 2020 05:50AM

    Process ID: 47817
    Host:       node48.bme.utexas.edu
    PSIDATADIR: /home/bdw2292/miniconda3/envs/p4env/share/psi4
    Memory:     500.0 MiB
    Threads:    1
    
  ==> Input File <==

--------------------------------------------------------------------------
molecule { 
0 1
 C   -1.607593    4.915797    0.449304
 C   -2.858476    4.284491    0.443873
 C   -2.940539    2.879709    0.359242
 C   -1.703347    2.192783    0.274009
 N   -0.498002    2.780693    0.270824
 C   -0.462273    4.117919    0.360652
 C   -4.248195    2.126649    0.322914
 C   -5.523809    2.716211    0.330776
 C   -6.603897    1.831217    0.243027
 N   -6.489953    0.509008    0.160977
 C   -5.227713    0.030892    0.171012
 N   -4.131373    0.786711    0.259199
 N   -5.116377   -1.346738    0.101946
 C   -3.987513   -2.235064    0.136155
 C   -4.159626   -3.558140    0.640674
 C   -3.029817   -4.390974    0.628926
 C   -1.765495   -3.989935    0.180082
 C   -1.604560   -2.680158   -0.293062
 C   -2.728725   -1.841013   -0.329749
 N   -0.345435   -2.136718   -0.712702
 C   -0.000829   -1.020462   -1.446342
 C    1.477078   -0.711388   -1.577340
 C    2.465890   -1.697760   -1.721817
 C    3.813320   -1.340869   -1.808924
 C    4.220096    0.005995   -1.761467
 C    3.215352    0.986082   -1.651198
 C    1.864702    0.639128   -1.573912
 C    5.700736    0.387838   -1.797143
 N    6.447081    0.459825   -0.527471
 C    6.793457   -0.801470    0.164764
 C    5.776080   -1.237618    1.249935
 N    5.484339   -0.197432    2.263364
 C    6.441368   -0.067536    3.368214
 C    5.099538    1.056702    1.570470
 C    6.085191    1.504590    0.458565
 O   -0.821714   -0.271370   -1.950087
 C   -5.480569   -4.083957    1.174894
 H   -1.521243    5.996348    0.516535
 H   -3.746628    4.908338    0.507924
 H   -1.692550    1.111599    0.193231
 H    0.529756    4.566946    0.358670
 H   -5.699291    3.783987    0.375391
 H   -7.624778    2.211893    0.231839
 H   -6.031835   -1.771007    0.126279
 H   -3.119964   -5.409098    1.006546
 H   -0.922476   -4.669225    0.226224
 H   -2.625430   -0.836327   -0.709094
 H    0.415647   -2.683241   -0.334516
 H    2.175936   -2.744752   -1.763969
 H    4.558959   -2.130861   -1.900258
 H    3.484665    2.040935   -1.604479
 H    1.097434    1.400843   -1.457789
 H    6.232519   -0.327222   -2.441788
 H    5.793306    1.372380   -2.278253
 H    6.998045   -1.577659   -0.540440
 H    8.138942   -0.538740    0.938274
 H    6.350552   -2.427000    1.943937
 H    4.723705   -1.570371    0.742067
 H    7.418277    0.272305    3.006177
 H    6.566546   -1.031636    3.874201
 H    6.068888    0.651871    4.106483
 H    4.943585    1.887970    2.344161
 H    3.793023    0.803968    0.931341
 H    7.419110    1.892879    1.224280
 H    5.735781    2.420180   -0.056976
 H   -6.226641   -4.178936    0.373365
 H   -5.900504   -3.415205    1.939607
 H   -5.389796   -5.074055    1.642521
}
memory 20GB
set_num_threads(6)
psi4_io.set_default_path("/scratch/bdw2292")
set freeze_core True
E, wfn = energy('mp2/6-311++G**',return_wfn=True)
oeprop(wfn,"WIBERG_LOWDIN_INDICES")
clean()
--------------------------------------------------------------------------

  Memory set to  18.626 GiB by Python driver.
  Threads set to 6 by Python driver.
    SCF Algorithm Type (re)set to DF.

*** tstart() called on node48.bme.utexas.edu
*** at Wed Mar  4 05:50:29 2020

   => Loading Basis Set <=

    Name: 6-311++G**
    Role: ORBITAL
    Keyword: BASIS
    atoms 1-4, 6-9, 11, 14-19, 21-28, 30-31, 33-35, 37 entry C          line   119 file /home/bdw2292/miniconda3/envs/p4env/share/psi4/basis/6-311ppgss.gbs 
    atoms 5, 10, 12-13, 20, 29, 32                     entry N          line   140 file /home/bdw2292/miniconda3/envs/p4env/share/psi4/basis/6-311ppgss.gbs 
    atoms 36                                           entry O          line   161 file /home/bdw2292/miniconda3/envs/p4env/share/psi4/basis/6-311ppgss.gbs 
    atoms 38-68                                        entry H          line    42 file /home/bdw2292/miniconda3/envs/p4env/share/psi4/basis/6-311ppgss.gbs 


         ---------------------------------------------------------
                                   SCF
               by Justin Turney, Rob Parrish, Andy Simmonett
                          and Daniel G. A. Smith
                              RHF Reference
                        6 Threads,  19073 MiB Core
         ---------------------------------------------------------

  ==> Geometry <==

    Molecular point group: c1
    Full point group: C1

    Geometry (in Angstrom), charge = 0, multiplicity = 1:

       Center              X                  Y                   Z               Mass       
    ------------   -----------------  -----------------  -----------------  -----------------
         C           -1.510800272159     4.910180532755     0.468227666848    12.000000000000
         C           -2.761683272159     4.278874532755     0.462796666848    12.000000000000
         C           -2.843746272159     2.874092532755     0.378165666848    12.000000000000
         C           -1.606554272159     2.187166532755     0.292932666848    12.000000000000
         N           -0.401209272159     2.775076532755     0.289747666848    14.003074004430
         C           -0.365480272159     4.112302532755     0.379575666848    12.000000000000
         C           -4.151402272159     2.121032532755     0.341837666848    12.000000000000
         C           -5.427016272159     2.710594532755     0.349699666848    12.000000000000
         C           -6.507104272159     1.825600532755     0.261950666848    12.000000000000
         N           -6.393160272159     0.503391532755     0.179900666848    14.003074004430
         C           -5.130920272159     0.025275532755     0.189935666848    12.000000000000
         N           -4.034580272159     0.781094532755     0.278122666848    14.003074004430
         N           -5.019584272159    -1.352354467245     0.120869666848    14.003074004430
         C           -3.890720272159    -2.240680467245     0.155078666848    12.000000000000
         C           -4.062833272159    -3.563756467245     0.659597666848    12.000000000000
         C           -2.933024272159    -4.396590467245     0.647849666848    12.000000000000
         C           -1.668702272159    -3.995551467245     0.199005666848    12.000000000000
         C           -1.507767272159    -2.685774467245    -0.274138333152    12.000000000000
         C           -2.631932272159    -1.846629467245    -0.310825333152    12.000000000000
         N           -0.248642272159    -2.142334467245    -0.693778333152    14.003074004430
         C            0.095963727841    -1.026078467245    -1.427418333152    12.000000000000
         C            1.573870727841    -0.717004467245    -1.558416333152    12.000000000000
         C            2.562682727841    -1.703376467245    -1.702893333152    12.000000000000
         C            3.910112727841    -1.346485467245    -1.790000333152    12.000000000000
         C            4.316888727841     0.000378532755    -1.742543333152    12.000000000000
         C            3.312144727841     0.980465532755    -1.632274333152    12.000000000000
         C            1.961494727841     0.633511532755    -1.554988333152    12.000000000000
         C            5.797528727841     0.382221532755    -1.778219333152    12.000000000000
         N            6.543873727841     0.454208532755    -0.508547333152    14.003074004430
         C            6.890249727841    -0.807086467245     0.183687666848    12.000000000000
         C            5.872872727841    -1.243234467245     1.268858666848    12.000000000000
         N            5.581131727841    -0.203048467245     2.282287666848    14.003074004430
         C            6.538160727841    -0.073152467245     3.387137666848    12.000000000000
         C            5.196330727841     1.051085532755     1.589393666848    12.000000000000
         C            6.181983727841     1.498973532755     0.477488666848    12.000000000000
         O           -0.724921272159    -0.276986467245    -1.931163333152    15.994914619570
         C           -5.383776272159    -4.089573467245     1.193817666848    12.000000000000
         H           -1.424450272159     5.990731532755     0.535458666848     1.007825032230
         H           -3.649835272159     4.902721532755     0.526847666848     1.007825032230
         H           -1.595757272159     1.105982532755     0.212154666848     1.007825032230
         H            0.626548727841     4.561329532755     0.377593666848     1.007825032230
         H           -5.602498272159     3.778370532755     0.394314666848     1.007825032230
         H           -7.527985272159     2.206276532755     0.250762666848     1.007825032230
         H           -5.935042272159    -1.776623467245     0.145202666848     1.007825032230
         H           -3.023171272159    -5.414714467245     1.025469666848     1.007825032230
         H           -0.825683272159    -4.674841467245     0.245147666848     1.007825032230
         H           -2.528637272159    -0.841943467245    -0.690170333152     1.007825032230
         H            0.512439727841    -2.688857467245    -0.315592333152     1.007825032230
         H            2.272728727841    -2.750368467245    -1.745045333152     1.007825032230
         H            4.655751727841    -2.136477467245    -1.881334333152     1.007825032230
         H            3.581457727841     2.035318532755    -1.585555333152     1.007825032230
         H            1.194226727841     1.395226532755    -1.438865333152     1.007825032230
         H            6.329311727841    -0.332838467245    -2.422864333152     1.007825032230
         H            5.890098727841     1.366763532755    -2.259329333152     1.007825032230
         H            7.094837727841    -1.583275467245    -0.521516333152     1.007825032230
         H            8.235734727841    -0.544356467245     0.957197666848     1.007825032230
         H            6.447344727841    -2.432616467245     1.962860666848     1.007825032230
         H            4.820497727841    -1.575987467245     0.760990666848     1.007825032230
         H            7.515069727841     0.266688532755     3.025100666848     1.007825032230
         H            6.663338727841    -1.037252467245     3.893124666848     1.007825032230
         H            6.165680727841     0.646254532755     4.125406666848     1.007825032230
         H            5.040377727841     1.882353532755     2.363084666848     1.007825032230
         H            3.889815727841     0.798351532755     0.950264666848     1.007825032230
         H            7.515902727841     1.887262532755     1.243203666848     1.007825032230
         H            5.832573727841     2.414563532755    -0.038052333152     1.007825032230
         H           -6.129848272159    -4.184552467245     0.392288666848     1.007825032230
         H           -5.803711272159    -3.420821467245     1.958530666848     1.007825032230
         H           -5.293003272159    -5.079671467245     1.661444666848     1.007825032230

  Running in c1 symmetry.

  Rotational constants: A =      0.00498  B =      0.00173  C =      0.00144 [cm^-1]
  Rotational constants: A =    149.33714  B =     51.86357  C =     43.27929 [MHz]
  Nuclear repulsion = 3759.129637685211037

  Charge       = 0
  Multiplicity = 1
  Electrons    = 262
  Nalpha       = 131
  Nbeta        = 131

  ==> Algorithm <==

  SCF Algorithm Type is DF.
  DIIS enabled.
  MOM disabled.
  Fractional occupation disabled.
  Guess Type is SAD.
  Energy threshold   = 1.00e-08
  Density threshold  = 1.00e-08
  Integral threshold = 0.00e+00

  ==> Primary Basis <==

  Basis Set: 6-311++G**
    Blend: 6-311++G**
    Number of shells: 525
    Number of basis function: 1031
    Number of Cartesian functions: 1068
    Spherical Harmonics?: true
    Max angular momentum: 2

   => Loading Basis Set <=

    Name: (6-311++G** AUX)
    Role: JKFIT
    Keyword: DF_BASIS_SCF
    atoms 1-4, 6-9, 11, 14-19, 21-28, 30-31, 33-35, 37 entry C          line   162 file /home/bdw2292/miniconda3/envs/p4env/share/psi4/basis/aug-cc-pvtz-jkfit.gbs 
    atoms 5, 10, 12-13, 20, 29, 32                     entry N          line   224 file /home/bdw2292/miniconda3/envs/p4env/share/psi4/basis/aug-cc-pvtz-jkfit.gbs 
    atoms 36                                           entry O          line   286 file /home/bdw2292/miniconda3/envs/p4env/share/psi4/basis/aug-cc-pvtz-jkfit.gbs 
    atoms 38-68                                        entry H          line    70 file /home/bdw2292/miniconda3/envs/p4env/share/psi4/basis/aug-cc-pvtz-jkfit.gbs 

  ==> Pre-Iterations <==

   -------------------------------------------------------
    Irrep   Nso     Nmo     Nalpha   Nbeta   Ndocc  Nsocc
   -------------------------------------------------------
     A       1031    1031       0       0       0       0
   -------------------------------------------------------
    Total    1031    1031     131     131     131       0
   -------------------------------------------------------

  ==> Integral Setup <==

  ==> DiskDFJK: Density-Fitted J/K Matrices <==

    J tasked:                  Yes
    K tasked:                  Yes
    wK tasked:                  No
    OpenMP threads:              6
    Integrals threads:           6
    Memory [MiB]:            14305
    Algorithm:                Disk
    Integral Cache:           NONE
    Schwarz Cutoff:          1E-12
    Fitting Condition:       1E-10

   => Auxiliary Basis Set <=

  Basis Set: (6-311++G** AUX)
    Blend: AUG-CC-PVTZ-JKFIT
    Number of shells: 1544
    Number of basis function: 5274
    Number of Cartesian functions: 6552
    Spherical Harmonics?: true
    Max angular momentum: 4

  Minimum eigenvalue in the overlap matrix is 1.2843998008E-07.
  Using Symmetric Orthogonalization.

  SCF Guess: Superposition of Atomic Densities via on-the-fly atomic UHF.

  ==> Iterations <==

                           Total Energy        Delta E     RMS |[F,P]|

   @DF-RHF iter SAD: -1571.26590027099223   -1.57127e+03   0.00000e+00 
   @DF-RHF iter   1: -1571.33320070737682   -6.73004e-02   1.21748e-03 DIIS
   @DF-RHF iter   2: -1572.10608613287422   -7.72885e-01   6.48116e-04 DIIS
   @DF-RHF iter   3: -1572.30511360134892   -1.99027e-01   1.67345e-04 DIIS
   @DF-RHF iter   4: -1572.32272409642997   -1.76105e-02   6.64881e-05 DIIS
   @DF-RHF iter   5: -1572.32541368533089   -2.68959e-03   1.35834e-05 DIIS
   @DF-RHF iter   6: -1572.32557667132346   -1.62986e-04   6.01782e-06 DIIS
   @DF-RHF iter   7: -1572.32561437922936   -3.77079e-05   2.00186e-06 DIIS
   @DF-RHF iter   8: -1572.32562037123648   -5.99201e-06   7.80321e-07 DIIS
   @DF-RHF iter   9: -1572.32562133504030   -9.63804e-07   3.23388e-07 DIIS
   @DF-RHF iter  10: -1572.32562154072593   -2.05686e-07   1.52034e-07 DIIS
   @DF-RHF iter  11: -1572.32562158805331   -4.73274e-08   7.10401e-08 DIIS
   @DF-RHF iter  12: -1572.32562160012299   -1.20697e-08   3.03994e-08 DIIS
   @DF-RHF iter  13: -1572.32562160239740   -2.27442e-09   1.20354e-08 DIIS
   @DF-RHF iter  14: -1572.32562160282555   -4.28145e-10   5.72799e-09 DIIS
  Energy and wave function converged.


  ==> Post-Iterations <==

    Orbital Energies [Eh]
    ---------------------

    Doubly Occupied:                                                      

       1A    -20.524469     2A    -15.605043     3A    -15.594685  
       4A    -15.573673     5A    -15.570011     6A    -15.563689  
       7A    -15.556958     8A    -15.555153     9A    -11.369868  
      10A    -11.364420    11A    -11.322421    12A    -11.311672  
      13A    -11.309081    14A    -11.305206    15A    -11.303335  
      16A    -11.301053    17A    -11.294786    18A    -11.294203  
      19A    -11.287483    20A    -11.282647    21A    -11.282122  
      22A    -11.275692    23A    -11.264454    24A    -11.260308  
      25A    -11.259747    26A    -11.259130    27A    -11.251119  
      28A    -11.250809    29A    -11.248297    30A    -11.247970  
      31A    -11.246634    32A    -11.243768    33A    -11.243689  
      34A    -11.240953    35A    -11.238655    36A    -11.235188  
      37A    -11.222108    38A     -1.390646    39A     -1.334755  
      40A     -1.262123    41A     -1.251069    42A     -1.247430  
      43A     -1.235730    44A     -1.201012    45A     -1.198627  
      46A     -1.164504    47A     -1.139333    48A     -1.102450  
      49A     -1.066460    50A     -1.059576    51A     -1.039137  
      52A     -1.034052    53A     -1.026792    54A     -1.005837  
      55A     -1.000483    56A     -0.979273    57A     -0.946269  
      58A     -0.928237    59A     -0.913630    60A     -0.894022  
      61A     -0.868825    62A     -0.860057    63A     -0.848774  
      64A     -0.844769    65A     -0.838668    66A     -0.833428  
      67A     -0.821335    68A     -0.806174    69A     -0.782045  
      70A     -0.750728    71A     -0.734755    72A     -0.726011  
      73A     -0.712407    74A     -0.707504    75A     -0.690952  
      76A     -0.681980    77A     -0.673108    78A     -0.661402  
      79A     -0.656236    80A     -0.653028    81A     -0.649832  
      82A     -0.644787    83A     -0.635578    84A     -0.634608  
      85A     -0.623265    86A     -0.618354    87A     -0.607851  
      88A     -0.606943    89A     -0.601376    90A     -0.597890  
      91A     -0.596358    92A     -0.594107    93A     -0.590235  
      94A     -0.585256    95A     -0.581894    96A     -0.579742  
      97A     -0.576286    98A     -0.575112    99A     -0.566718  
     100A     -0.549086   101A     -0.546504   102A     -0.540582  
     103A     -0.531511   104A     -0.529399   105A     -0.527189  
     106A     -0.518342   107A     -0.514866   108A     -0.511660  
     109A     -0.507893   110A     -0.502854   111A     -0.499086  
     112A     -0.493919   113A     -0.482134   114A     -0.475516  
     115A     -0.456245   116A     -0.441344   117A     -0.431563  
     118A     -0.426963   119A     -0.425284   120A     -0.421204  
     121A     -0.402056   122A     -0.394055   123A     -0.386435  
     124A     -0.380886   125A     -0.363888   126A     -0.349065  
     127A     -0.343098   128A     -0.333760   129A     -0.313488  
     130A     -0.309878   131A     -0.292710  

    Virtual:                                                              

     132A      0.032533   133A      0.034495   134A      0.038208  
     135A      0.042997   136A      0.044678   137A      0.048575  
     138A      0.051668   139A      0.054583   140A      0.056122  
     141A      0.063331   142A      0.064101   143A      0.065256  
     144A      0.068614   145A      0.068949   146A      0.072482  
     147A      0.075805   148A      0.080865   149A      0.083016  
     150A      0.084088   151A      0.085769   152A      0.088086  
     153A      0.089650   154A      0.091312   155A      0.095066  
     156A      0.096886   157A      0.101430   158A      0.104240  
     159A      0.106243   160A      0.108600   161A      0.110253  
     162A      0.112786   163A      0.114586   164A      0.119342  
     165A      0.120258   166A      0.120832   167A      0.122154  
     168A      0.122701   169A      0.124136   170A      0.129206  
     171A      0.135544   172A      0.136695   173A      0.141288  
     174A      0.143600   175A      0.145029   176A      0.147953  
     177A      0.148880   178A      0.153128   179A      0.155819  
     180A      0.157643   181A      0.158230   182A      0.159568  
     183A      0.160700   184A      0.163764   185A      0.166686  
     186A      0.169497   187A      0.171027   188A      0.171349  
     189A      0.174258   190A      0.175340   191A      0.176436  
     192A      0.180728   193A      0.181706   194A      0.182177  
     195A      0.185008   196A      0.185711   197A      0.187472  
     198A      0.187618   199A      0.190513   200A      0.192342  
     201A      0.193685   202A      0.195763   203A      0.198050  
     204A      0.202061   205A      0.202420   206A      0.204155  
     207A      0.206422   208A      0.207342   209A      0.209304  
     210A      0.210520   211A      0.212002   212A      0.213422  
     213A      0.215440   214A      0.216978   215A      0.220299  
     216A      0.221798   217A      0.222762   218A      0.225674  
     219A      0.226339   220A      0.228430   221A      0.230804  
     222A      0.231882   223A      0.232815   224A      0.233793  
     225A      0.237004   226A      0.238414   227A      0.239876  
     228A      0.242117   229A      0.245302   230A      0.248209  
     231A      0.249186   232A      0.252585   233A      0.253043  
     234A      0.255425   235A      0.257372   236A      0.262165  
     237A      0.263666   238A      0.264294   239A      0.267437  
     240A      0.269973   241A      0.271219   242A      0.273207  
     243A      0.277130   244A      0.278183   245A      0.281810  
     246A      0.284666   247A      0.286070   248A      0.289089  
     249A      0.293254   250A      0.294161   251A      0.299922  
     252A      0.300923   253A      0.303481   254A      0.304774  
     255A      0.307288   256A      0.308797   257A      0.310652  
     258A      0.313789   259A      0.317932   260A      0.319523  
     261A      0.321164   262A      0.322335   263A      0.325918  
     264A      0.327340   265A      0.329543   266A      0.333052  
     267A      0.334212   268A      0.337955   269A      0.338702  
     270A      0.341751   271A      0.342015   272A      0.345162  
     273A      0.346500   274A      0.347989   275A      0.350897  
     276A      0.352174   277A      0.354347   278A      0.355611  
     279A      0.358473   280A      0.360045   281A      0.361545  
     282A      0.363561   283A      0.366916   284A      0.368815  
     285A      0.371521   286A      0.374709   287A      0.376204  
     288A      0.377628   289A      0.379297   290A      0.380544  
     291A      0.382373   292A      0.383336   293A      0.385737  
     294A      0.388279   295A      0.389928   296A      0.390391  
     297A      0.393876   298A      0.394774   299A      0.395634  
     300A      0.397330   301A      0.399101   302A      0.402024  
     303A      0.403531   304A      0.403882   305A      0.405343  
     306A      0.407878   307A      0.410432   308A      0.413028  
     309A      0.415425   310A      0.418356   311A      0.418813  
     312A      0.420952   313A      0.423078   314A      0.426797  
     315A      0.427046   316A      0.428071   317A      0.429164  
     318A      0.431067   319A      0.432598   320A      0.434680  
     321A      0.436545   322A      0.437029   323A      0.439550  
     324A      0.441819   325A      0.442735   326A      0.445162  
     327A      0.446853   328A      0.450051   329A      0.452757  
     330A      0.455180   331A      0.458675   332A      0.459604  
     333A      0.462266   334A      0.466033   335A      0.466757  
     336A      0.470480   337A      0.472369   338A      0.475522  
     339A      0.478160   340A      0.480452   341A      0.482639  
     342A      0.485711   343A      0.487746   344A      0.494029  
     345A      0.495842   346A      0.499246   347A      0.500088  
     348A      0.501062   349A      0.503529   350A      0.507327  
     351A      0.510101   352A      0.513816   353A      0.515093  
     354A      0.516091   355A      0.518768   356A      0.524815  
     357A      0.527905   358A      0.530609   359A      0.530839  
     360A      0.535477   361A      0.539145   362A      0.542761  
     363A      0.546734   364A      0.548189   365A      0.552647  
     366A      0.555077   367A      0.557996   368A      0.565736  
     369A      0.568300   370A      0.568867   371A      0.574468  
     372A      0.577696   373A      0.581139   374A      0.587126  
     375A      0.589805   376A      0.592398   377A      0.601951  
     378A      0.606481   379A      0.609471   380A      0.612372  
     381A      0.618280   382A      0.622151   383A      0.625859  
     384A      0.630381   385A      0.639794   386A      0.647346  
     387A      0.653097   388A      0.662530   389A      0.677924  
     390A      0.684346   391A      0.690475   392A      0.693729  
     393A      0.699618   394A      0.705377   395A      0.714390  
     396A      0.719179   397A      0.722774   398A      0.730384  
     399A      0.732626   400A      0.734739   401A      0.738976  
     402A      0.742249   403A      0.747258   404A      0.754373  
     405A      0.758084   406A      0.764181   407A      0.765850  
     408A      0.768833   409A      0.770037   410A      0.774684  
     411A      0.777023   412A      0.782771   413A      0.784662  
     414A      0.788552   415A      0.791310   416A      0.795007  
     417A      0.797210   418A      0.805475   419A      0.807082  
     420A      0.808341   421A      0.816851   422A      0.820757  
     423A      0.826214   424A      0.827286   425A      0.832551  
     426A      0.832641   427A      0.841614   428A      0.846780  
     429A      0.848716   430A      0.854230   431A      0.857484  
     432A      0.858701   433A      0.864710   434A      0.866862  
     435A      0.867708   436A      0.872559   437A      0.876206  
     438A      0.878269   439A      0.880192   440A      0.882933  
     441A      0.891178   442A      0.892852   443A      0.895850  
     444A      0.898099   445A      0.900739   446A      0.905420  
     447A      0.906859   448A      0.910110   449A      0.913263  
     450A      0.916644   451A      0.918693   452A      0.919292  
     453A      0.924643   454A      0.927943   455A      0.931920  
     456A      0.936258   457A      0.940917   458A      0.942422  
     459A      0.946679   460A      0.947201   461A      0.948762  
     462A      0.952582   463A      0.954906   464A      0.960387  
     465A      0.966538   466A      0.968525   467A      0.970909  
     468A      0.975999   469A      0.976763   470A      0.979117  
     471A      0.985044   472A      0.986539   473A      0.990852  
     474A      0.991478   475A      0.996845   476A      1.000100  
     477A      1.004028   478A      1.005295   479A      1.006999  
     480A      1.014481   481A      1.014656   482A      1.019393  
     483A      1.025542   484A      1.030850   485A      1.035606  
     486A      1.039207   487A      1.041909   488A      1.043854  
     489A      1.047417   490A      1.056690   491A      1.061438  
     492A      1.067053   493A      1.072416   494A      1.076735  
     495A      1.079526   496A      1.084182   497A      1.086413  
     498A      1.090767   499A      1.095980   500A      1.100919  
     501A      1.103080   502A      1.108080   503A      1.111159  
     504A      1.121547   505A      1.125071   506A      1.129126  
     507A      1.136680   508A      1.139488   509A      1.141320  
     510A      1.143703   511A      1.149449   512A      1.154927  
     513A      1.157710   514A      1.162697   515A      1.167192  
     516A      1.171121   517A      1.175603   518A      1.178710  
     519A      1.183598   520A      1.185582   521A      1.188428  
     522A      1.198333   523A      1.200461   524A      1.204780  
     525A      1.208222   526A      1.209514   527A      1.211872  
     528A      1.217439   529A      1.219517   530A      1.222953  
     531A      1.228628   532A      1.233059   533A      1.233821  
     534A      1.238305   535A      1.241072   536A      1.248520  
     537A      1.252438   538A      1.253317   539A      1.254938  
     540A      1.263903   541A      1.267658   542A      1.269387  
     543A      1.272052   544A      1.277143   545A      1.283892  
     546A      1.286847   547A      1.289213   548A      1.294155  
     549A      1.298071   550A      1.301548   551A      1.306899  
     552A      1.311985   553A      1.318899   554A      1.321743  
     555A      1.324915   556A      1.332024   557A      1.338208  
     558A      1.340925   559A      1.354725   560A      1.360825  
     561A      1.366122   562A      1.369109   563A      1.376539  
     564A      1.380428   565A      1.385089   566A      1.396248  
     567A      1.403331   568A      1.405088   569A      1.411043  
     570A      1.420728   571A      1.435484   572A      1.439761  
     573A      1.443838   574A      1.447518   575A      1.451561  
     576A      1.455174   577A      1.458752   578A      1.478484  
     579A      1.487290   580A      1.491420   581A      1.505710  
     582A      1.511392   583A      1.514896   584A      1.520115  
     585A      1.531076   586A      1.539348   587A      1.549410  
     588A      1.562051   589A      1.574636   590A      1.578954  
     591A      1.589922   592A      1.593617   593A      1.603009  
     594A      1.620523   595A      1.622410   596A      1.626850  
     597A      1.632150   598A      1.637116   599A      1.641616  
     600A      1.658217   601A      1.663914   602A      1.672506  
     603A      1.679653   604A      1.690787   605A      1.701223  
     606A      1.706519   607A      1.707427   608A      1.715203  
     609A      1.719241   610A      1.736976   611A      1.743921  
     612A      1.755082   613A      1.757951   614A      1.763960  
     615A      1.765568   616A      1.767621   617A      1.778432  
     618A      1.779679   619A      1.786890   620A      1.790692  
     621A      1.796317   622A      1.798813   623A      1.801595  
     624A      1.804869   625A      1.809146   626A      1.816908  
     627A      1.820400   628A      1.824393   629A      1.827142  
     630A      1.831804   631A      1.832192   632A      1.836679  
     633A      1.838764   634A      1.844698   635A      1.845902  
     636A      1.850517   637A      1.857885   638A      1.861356  
     639A      1.866628   640A      1.868656   641A      1.873466  
     642A      1.876829   643A      1.882264   644A      1.886999  
     645A      1.897420   646A      1.899695   647A      1.903351  
     648A      1.908312   649A      1.918156   650A      1.918991  
     651A      1.925906   652A      1.936614   653A      1.939328  
     654A      1.945056   655A      1.948650   656A      1.955072  
     657A      1.955559   658A      1.965440   659A      1.966721  
     660A      1.972418   661A      1.976109   662A      1.977969  
     663A      1.981027   664A      1.982704   665A      1.985451  
     666A      1.995730   667A      2.000351   668A      2.004334  
     669A      2.006125   670A      2.012642   671A      2.018753  
     672A      2.022474   673A      2.032253   674A      2.037493  
     675A      2.039949   676A      2.042877   677A      2.050994  
     678A      2.053833   679A      2.059414   680A      2.060858  
     681A      2.068408   682A      2.071465   683A      2.077052  
     684A      2.081129   685A      2.083931   686A      2.085908  
     687A      2.087854   688A      2.096332   689A      2.100855  
     690A      2.112556   691A      2.118088   692A      2.124319  
     693A      2.136951   694A      2.139634   695A      2.149622  
     696A      2.159115   697A      2.167891   698A      2.174886  
     699A      2.181944   700A      2.185489   701A      2.189489  
     702A      2.190391   703A      2.191191   704A      2.204006  
     705A      2.208258   706A      2.220216   707A      2.223634  
     708A      2.227997   709A      2.230822   710A      2.237410  
     711A      2.247915   712A      2.249946   713A      2.252718  
     714A      2.259957   715A      2.262974   716A      2.267781  
     717A      2.273728   718A      2.277019   719A      2.279989  
     720A      2.283445   721A      2.292302   722A      2.293714  
     723A      2.299322   724A      2.304267   725A      2.308982  
     726A      2.313357   727A      2.314948   728A      2.321980  
     729A      2.327514   730A      2.336643   731A      2.339091  
     732A      2.354572   733A      2.360838   734A      2.366056  
     735A      2.372585   736A      2.373969   737A      2.378108  
     738A      2.384984   739A      2.391049   740A      2.399097  
     741A      2.405784   742A      2.410746   743A      2.414699  
     744A      2.419136   745A      2.424650   746A      2.440608  
     747A      2.447568   748A      2.451558   749A      2.460942  
     750A      2.466833   751A      2.473964   752A      2.485193  
     753A      2.500312   754A      2.505259   755A      2.512521  
     756A      2.520548   757A      2.526395   758A      2.531047  
     759A      2.535363   760A      2.543019   761A      2.565864  
     762A      2.572651   763A      2.576454   764A      2.579161  
     765A      2.587591   766A      2.610792   767A      2.615495  
     768A      2.632917   769A      2.637216   770A      2.647984  
     771A      2.650357   772A      2.662483   773A      2.677979  
     774A      2.683817   775A      2.705045   776A      2.712994  
     777A      2.727675   778A      2.733033   779A      2.739614  
     780A      2.740747   781A      2.755684   782A      2.766850  
     783A      2.773278   784A      2.779834   785A      2.785281  
     786A      2.800516   787A      2.802996   788A      2.804077  
     789A      2.819775   790A      2.825706   791A      2.832667  
     792A      2.841383   793A      2.845017   794A      2.857367  
     795A      2.861423   796A      2.862974   797A      2.867562  
     798A      2.878952   799A      2.879589   800A      2.894007  
     801A      2.904833   802A      2.910663   803A      2.916548  
     804A      2.920733   805A      2.937621   806A      2.941594  
     807A      2.947491   808A      2.953061   809A      2.958874  
     810A      2.963255   811A      2.976041   812A      2.980427  
     813A      2.985375   814A      2.993041   815A      2.995020  
     816A      3.004558   817A      3.007324   818A      3.011626  
     819A      3.016332   820A      3.020594   821A      3.021897  
     822A      3.040833   823A      3.046533   824A      3.048677  
     825A      3.054296   826A      3.057481   827A      3.061838  
     828A      3.072339   829A      3.073681   830A      3.075431  
     831A      3.078951   832A      3.083726   833A      3.087415  
     834A      3.094909   835A      3.104076   836A      3.109106  
     837A      3.113504   838A      3.117761   839A      3.119395  
     840A      3.128948   841A      3.135748   842A      3.139679  
     843A      3.141111   844A      3.147799   845A      3.154967  
     846A      3.163157   847A      3.167999   848A      3.178070  
     849A      3.181409   850A      3.182548   851A      3.203929  
     852A      3.207233   853A      3.210734   854A      3.213972  
     855A      3.218982   856A      3.220851   857A      3.235837  
     858A      3.243317   859A      3.251404   860A      3.254467  
     861A      3.266849   862A      3.270200   863A      3.275616  
     864A      3.288643   865A      3.291358   866A      3.301798  
     867A      3.303927   868A      3.309549   869A      3.313144  
     870A      3.317314   871A      3.319705   872A      3.322245  
     873A      3.331580   874A      3.335414   875A      3.340085  
     876A      3.352703   877A      3.354925   878A      3.361319  
     879A      3.363156   880A      3.367648   881A      3.373468  
     882A      3.380874   883A      3.387449   884A      3.395462  
     885A      3.397528   886A      3.403415   887A      3.410963  
     888A      3.415293   889A      3.424280   890A      3.434702  
     891A      3.447081   892A      3.468633   893A      3.479219  
     894A      3.519434   895A      3.526020   896A      3.537204  
     897A      3.564703   898A      3.578774   899A      3.593609  
     900A      3.606421   901A      3.618600   902A      3.638692  
     903A      3.642962   904A      3.656538   905A      3.659379  
     906A      3.669534   907A      3.677615   908A      3.694779  
     909A      3.731767   910A      3.762205   911A      3.771927  
     912A      3.784821   913A      3.792386   914A      3.798160  
     915A      3.815729   916A      3.820765   917A      3.847701  
     918A      3.859777   919A      3.882538   920A      3.889788  
     921A      3.895748   922A      3.924124   923A      3.933330  
     924A      3.939975   925A      3.954697   926A      3.958112  
     927A      3.963158   928A      3.969312   929A      3.982078  
     930A      3.987353   931A      4.006638   932A      4.011679  
     933A      4.040084   934A      4.062583   935A      4.083001  
     936A      4.088522   937A      4.109516   938A      4.113158  
     939A      4.129030   940A      4.137498   941A      4.148612  
     942A      4.154691   943A      4.186129   944A      4.189930  
     945A      4.202321   946A      4.205696   947A      4.209192  
     948A      4.211348   949A      4.250539   950A      4.341378  
     951A      4.362241   952A      4.379347   953A      4.385467  
     954A      4.400024   955A      4.425206   956A      4.430975  
     957A      4.441367   958A      4.450526   959A      4.456049  
     960A      4.460626   961A      4.476253   962A      4.480883  
     963A      4.540186   964A      4.543588   965A      4.561673  
     966A      4.583885   967A      4.588091   968A      4.600920  
     969A      4.618274   970A      4.675718   971A      4.713079  
     972A      4.762544   973A      4.783617   974A      4.798916  
     975A      4.918754   976A      4.956106   977A      5.015374  
     978A      5.062700   979A      5.239097   980A      5.260920  
     981A      5.264887   982A      5.276804   983A      5.280329  
     984A      5.313367   985A      5.339318   986A      5.382146  
     987A      5.427279   988A      5.603323   989A      5.705982  
     990A      5.742328   991A      5.804563   992A      5.863989  
     993A      5.886121   994A      6.432114   995A     24.777013  
     996A     24.815825   997A     24.820157   998A     24.854943  
     999A     24.888463  1000A     24.921181  1001A     24.950838  
    1002A     25.006479  1003A     25.020982  1004A     25.030264  
    1005A     25.038842  1006A     25.072681  1007A     25.080288  
    1008A     25.096222  1009A     25.112097  1010A     25.116829  
    1011A     25.123624  1012A     25.127395  1013A     25.148771  
    1014A     25.157190  1015A     25.185016  1016A     25.196148  
    1017A     25.206726  1018A     25.245275  1019A     25.246684  
    1020A     25.256480  1021A     25.262332  1022A     25.319753  
    1023A     25.323918  1024A     36.947681  1025A     36.984869  
    1026A     37.031944  1027A     37.065054  1028A     37.094102  
    1029A     37.144807  1030A     37.164913  1031A     51.767358  

    Final Occupation by Irrep:
              A 
    DOCC [   131 ]

  @DF-RHF Final Energy: -1572.32562160282555

   => Energetics <=

    Nuclear Repulsion Energy =           3759.1296376852110370
    One-Electron Energy =               -9617.3049481753296277
    Two-Electron Energy =                4285.8496888872923591
    Total Energy =                      -1572.3256216028257768

Computation Completed


Properties will be evaluated at   0.000000,   0.000000,   0.000000 [a0]

Properties computed using the SCF density matrix

  Nuclear Dipole Moment: [e a0]
     X:    42.1418      Y:    -4.9132      Z:    13.2110

  Electronic Dipole Moment: [e a0]
     X:   -42.3245      Y:     5.2405      Z:   -12.7067

  Dipole Moment: [e a0]
     X:    -0.1827      Y:     0.3272      Z:     0.5043     Total:     0.6283

  Dipole Moment: [D]
     X:    -0.4644      Y:     0.8317      Z:     1.2818     Total:     1.5971


*** tstop() called on node48.bme.utexas.edu at Wed Mar  4 06:27:56 2020
Module time:
	user time   =    4182.79 seconds =      69.71 minutes
	system time =     266.08 seconds =       4.43 minutes
	total time  =       2247 seconds =      37.45 minutes
Total time:
	user time   =    4182.79 seconds =      69.71 minutes
	system time =     266.08 seconds =       4.43 minutes
	total time  =       2247 seconds =      37.45 minutes

*** tstart() called on node48.bme.utexas.edu
*** at Wed Mar  4 06:27:56 2020


  //>>>>>>>>>>>>>>>>>>>>>>>>>>>>>>>>>>>//
  //               DFMP2               //
  //<<<<<<<<<<<<<<<<<<<<<<<<<<<<<<<<<<<//

   => Loading Basis Set <=

    Name: (6-311++G** AUX)
    Role: RIFIT
    Keyword: DF_BASIS_MP2
    atoms 1-4, 6-9, 11, 14-19, 21-28, 30-31, 33-35, 37 entry C          line   148 file /home/bdw2292/miniconda3/envs/p4env/share/psi4/basis/aug-cc-pvtz-ri.gbs 
    atoms 5, 10, 12-13, 20, 29, 32                     entry N          line   206 file /home/bdw2292/miniconda3/envs/p4env/share/psi4/basis/aug-cc-pvtz-ri.gbs 
    atoms 36                                           entry O          line   264 file /home/bdw2292/miniconda3/envs/p4env/share/psi4/basis/aug-cc-pvtz-ri.gbs 
    atoms 38-68                                        entry H          line    30 file /home/bdw2292/miniconda3/envs/p4env/share/psi4/basis/aug-cc-pvtz-ri.gbs 

	 --------------------------------------------------------
	                          DF-MP2                         
	      2nd-Order Density-Fitted Moller-Plesset Theory     
	              RMP2 Wavefunction,   6 Threads             
	                                                         
	        Rob Parrish, Justin Turney, Andy Simmonett,      
	           Ed Hohenstein, and C. David Sherrill          
	 --------------------------------------------------------

   => Auxiliary Basis Set <=

  Basis Set: (6-311++G** AUX)
    Blend: AUG-CC-PVTZ-RI
    Number of shells: 1470
    Number of basis function: 5348
    Number of Cartesian functions: 6737
    Spherical Harmonics?: true
    Max angular momentum: 4

	 --------------------------------------------------------
	                 NBF =  1031, NAUX =  5348
	 --------------------------------------------------------
	   CLASS    FOCC     OCC    AOCC    AVIR     VIR    FVIR
	   PAIRS      37     131      94     900     900       0
	 --------------------------------------------------------

	-----------------------------------------------------------
	 ==================> DF-MP2 Energies <==================== 
	-----------------------------------------------------------
	 Reference Energy          =   -1572.3256216028255494 [Eh]
	 Singles Energy            =      -0.0000000000000000 [Eh]
	 Same-Spin Energy          =      -1.4721303696524326 [Eh]
	 Opposite-Spin Energy      =      -4.0501126993748464 [Eh]
	 Correlation Energy        =      -5.5222430690272795 [Eh]
	 Total Energy              =   -1577.8478646718529035 [Eh]
	-----------------------------------------------------------
	 ================> DF-SCS-MP2 Energies <================== 
	-----------------------------------------------------------
	 SCS Same-Spin Scale       =       0.3333333333333333 [-]
	 SCS Opposite-Spin Scale   =       1.2000000000000000 [-]
	 SCS Same-Spin Energy      =      -0.4907101232174775 [Eh]
	 SCS Opposite-Spin Energy  =      -4.8601352392498152 [Eh]
	 SCS Correlation Energy    =      -5.3508453624672931 [Eh]
	 SCS Total Energy          =   -1577.6764669652927751 [Eh]
	-----------------------------------------------------------


*** tstop() called on node48.bme.utexas.edu at Wed Mar  4 06:36:09 2020
Module time:
	user time   =    2690.56 seconds =      44.84 minutes
	system time =      27.45 seconds =       0.46 minutes
	total time  =        493 seconds =       8.22 minutes
Total time:
	user time   =    6873.39 seconds =     114.56 minutes
	system time =     293.53 seconds =       4.89 minutes
	total time  =       2740 seconds =      45.67 minutes


Properties will be evaluated at   0.000000,   0.000000,   0.000000 [a0]
OEProp: No title given, name of density matrix used for the following properties is 'SCF density'


  Wiberg Bond Indices using Orthogonal Lowdin Orbitals:

  Irrep: 1 Size: 68 x 68

                 1                   2                   3                   4                   5

    1     0.00000000000000     1.46470454813460     0.12491754893418     0.13908852322498     0.12461680241953
    2     1.46470454813460     0.00000000000000     1.40094785262970     0.12904786855555     0.12123466186513
    3     0.12491754893418     1.40094785262970     0.00000000000000     1.35859712921197     0.11825123710460
    4     0.13908852322498     0.12904786855555     1.35859712921197     0.00000000000000     1.65106654849474
    5     0.12461680241953     0.12123466186513     0.11825123710460     1.65106654849474     0.00000000000000
    6     1.46497724259489     0.13812340026049     0.13546108465312     0.15305015658873     1.63143775289225
    7     0.01477217955953     0.10364097807279     1.02165037033532     0.10326600636257     0.01374339608497
    8     0.00363246649138     0.04206928705260     0.09812388939217     0.02343900302818     0.00210718929825
    9     0.00036718644599     0.00482427027510     0.01492478228888     0.00412222952477     0.00065759920330
   10     0.00042484824437     0.00539327235613     0.00578730455825     0.00603788158912     0.00029330339877
   11     0.00088868718687     0.00340966601131     0.01810924456523     0.00679701405309     0.00040633812637
   12     0.00275547382034     0.02215443178473     0.11912012578957     0.06155300822416     0.00389607961497
   13     0.00016313535604     0.00049154769478     0.00163295930337     0.00085479182271     0.00007938680173
   14     0.00003258046672     0.00009784959881     0.00056928421542     0.00121944214419     0.00008944891233
   15     0.00001698434109     0.00002350673174     0.00008036941983     0.00014111229490     0.00002213090754
   16     0.00000239437727     0.00000506864704     0.00004904720292     0.00027487305701     0.00001142889747
   17     0.00001531758183     0.00001789962905     0.00005422068392     0.00017945469089     0.00003667844296
   18     0.00002344382221     0.00004845244999     0.00024815130359     0.00148270753433     0.00016495688011
   19     0.00008545286664     0.00021019924912     0.00156778977093     0.00809419310755     0.00048031190572
   20     0.00003736088533     0.00004751849859     0.00022921086150     0.00140722942920     0.00046737233415
   21     0.00031081671292     0.00021363800197     0.00074854984810     0.00781427823379     0.00376687986209
   22     0.00015378300421     0.00008961672316     0.00014943261799     0.00167809963401     0.00380562266993
   23     0.00001706442497     0.00001109815616     0.00002710262942     0.00017985728156     0.00036512646171
   24     0.00000882533851     0.00000429606892     0.00001215846918     0.00017414619529     0.00054250148141
   25     0.00000800378709     0.00000611071225     0.00001504295247     0.00011868058154     0.00026655714658
   26     0.00007467647361     0.00007584652955     0.00011960387573     0.00052369103121     0.00353442412576
   27     0.00050168669438     0.00044361710270     0.00052220594172     0.00576296787828     0.02614830910640
   28     0.00000178095740     0.00000146266747     0.00000222767312     0.00001650603546     0.00003807080018
   29     0.00000085158573     0.00000056969093     0.00000102753940     0.00000655243118     0.00001403283005
   30     0.00000042047485     0.00000031775919     0.00000055098465     0.00000234283079     0.00000493219362
   31     0.00000076657735     0.00000048985524     0.00000080287072     0.00000321608628     0.00001120466826
   32     0.00000171973352     0.00000115728080     0.00000140508480     0.00001341296643     0.00002303985442
   33     0.00000037915076     0.00000015433908     0.00000015775598     0.00000145178558     0.00000256984801
   34     0.00001179072218     0.00001340286382     0.00001168078816     0.00001679281390     0.00005299663206
   35     0.00000240262523     0.00000114557543     0.00000115865326     0.00000933616300     0.00003380416588
   36     0.00074850893674     0.00039359731439     0.00242198536398     0.02059229129684     0.00526297729810
   37     0.00000241690011     0.00000717781599     0.00002906501179     0.00002779116930     0.00000326215698
   38     0.88673734481786     0.07942104490770     0.01180042594143     0.00637134920722     0.01077874189247
   39     0.07795657468592     0.87070007457473     0.07251961484779     0.01171733993429     0.00396509134828
   40     0.00541756134367     0.01039635314498     0.06915154626263     0.84520051809504     0.08447456024720
   41     0.07757642974194     0.01191006525606     0.00609376376993     0.01599180612326     0.08762787995098
   42     0.00113692005148     0.01466200724303     0.01437126889815     0.00136044161879     0.00028991350648
   43     0.00004419405075     0.00028704920377     0.00144888339134     0.00031818953177     0.00007785342149
   44     0.00002522814029     0.00008499650989     0.00035696012079     0.00009192866951     0.00000741855393
   45     0.00000040283703     0.00000117206680     0.00000585060348     0.00001304899536     0.00000105035860
   46     0.00000088146897     0.00000163072816     0.00000623119786     0.00001864946604     0.00000369998889
   47     0.00006449946258     0.00014292710947     0.00124145878435     0.00509810273246     0.00032699294432
   48     0.00000423167836     0.00000378425117     0.00001677235471     0.00008634065166     0.00002724923717
   49     0.00000292061581     0.00000311942833     0.00000420574478     0.00003387341706     0.00004059125573
   50     0.00000122486726     0.00000072165405     0.00000166622568     0.00001506681339     0.00002589867424
   51     0.00001999053436     0.00002084398344     0.00002738679567     0.00004998224218     0.00033274097991
   52     0.00044041284152     0.00036153095524     0.00043594532691     0.00461180874136     0.01902805486362
   53     0.00000048603252     0.00000016019772     0.00000042001768     0.00000460436423     0.00000985219386
   54     0.00000043953427     0.00000020754600     0.00000048034497     0.00000338470996     0.00000867296433
   55     0.00000007081033     0.00000003549763     0.00000005328281     0.00000040495668     0.00000133062503
   56     0.00000008987174     0.00000003877165     0.00000010197430     0.00000068000615     0.00000082730279
   57     0.00000005742324     0.00000004394387     0.00000007321912     0.00000028743673     0.00000088264272
   58     0.00000044140839     0.00000036733919     0.00000037095846     0.00000207662859     0.00000776092202
   59     0.00000005747785     0.00000003082207     0.00000004629441     0.00000023623349     0.00000058601889
   60     0.00000002409582     0.00000001432232     0.00000001595280     0.00000007592158     0.00000021150584
   61     0.00000006030331     0.00000003520138     0.00000002022184     0.00000021272857     0.00000028420855
   62     0.00000309540801     0.00000435585597     0.00000323648724     0.00000382518016     0.00000856451835
   63     0.00000786199875     0.00001579482803     0.00000962150653     0.00002488431001     0.00027137903122
   64     0.00000022138970     0.00000009722649     0.00000011613713     0.00000587986383     0.00001995012493
   65     0.00000242967864     0.00000102660751     0.00000062227201     0.00000125329682     0.00000767343725
   66     0.00000102565736     0.00000175685153     0.00000950825881     0.00000762402484     0.00000073487212
   67     0.00000132658824     0.00000330741869     0.00001001287594     0.00000871145048     0.00000116173427
   68     0.00000025325957     0.00000061810561     0.00000301304964     0.00000529653518     0.00000035798810

                 6                   7                   8                   9                  10

    1     1.46497724259489     0.01477217955953     0.00363246649138     0.00036718644599     0.00042484824437
    2     0.13812340026049     0.10364097807279     0.04206928705260     0.00482427027510     0.00539327235613
    3     0.13546108465312     1.02165037033532     0.09812388939217     0.01492478228888     0.00578730455825
    4     0.15305015658873     0.10326600636257     0.02343900302818     0.00412222952477     0.00603788158912
    5     1.63143775289225     0.01374339608497     0.00210718929825     0.00065759920330     0.00029330339877
    6     0.00000000000000     0.00990843839944     0.00671474302479     0.00124059241183     0.00336273604906
    7     0.00990843839944     0.00000000000000     1.38155465053853     0.14630197372224     0.11159248080403
    8     0.00671474302479     1.38155465053853     0.00000000000000     1.43905097217873     0.13150497999639
    9     0.00124059241183     0.14630197372224     1.43905097217873     0.00000000000000     1.65980120782217
   10     0.00336273604906     0.11159248080403     0.13150497999639     1.65980120782217     0.00000000000000
   11     0.00086350985431     0.14302007539246     0.11409495930086     0.15294849250912     1.50699115401916
   12     0.00599715846546     1.53322112582305     0.12522484060548     0.11100024033387     0.10957729624306
   13     0.00007704490145     0.01964294497624     0.02034211549327     0.02383751375328     0.16020428132013
   14     0.00004004148549     0.00321408759366     0.00256585558907     0.00321507669911     0.01712612750873
   15     0.00000467153456     0.00051082347355     0.00134756405799     0.00088507334797     0.00307734462763
   16     0.00000300533004     0.00016851936453     0.00018543092551     0.00013742967131     0.00047017999457
   17     0.00000524411475     0.00023911564793     0.00112766589452     0.00036455119584     0.00117107045614
   18     0.00003532320970     0.00051072867688     0.00025434470991     0.00014700154303     0.00044159591039
   19     0.00014496703208     0.00521159612206     0.00275260984792     0.00146902698793     0.00427939825754
   20     0.00005551318221     0.00008947688730     0.00002814769962     0.00001375076667     0.00005095537467
   21     0.00043319187542     0.00022632299006     0.00006075856425     0.00002477066696     0.00002512918152
   22     0.00047520440500     0.00004446671622     0.00000702745543     0.00000217050923     0.00000470967144
   23     0.00011157895930     0.00000979238081     0.00000133220911     0.00000072813200     0.00000122744388
   24     0.00011632623233     0.00000396374936     0.00000082627547     0.00000025782067     0.00000034140029
   25     0.00006769608181     0.00000355632879     0.00000053430852     0.00000025370001     0.00000031148017
   26     0.00048592918703     0.00001317431587     0.00000629531731     0.00000121067284     0.00000138120654
   27     0.00376204874578     0.00007616292468     0.00002359166353     0.00000533475165     0.00000513537932
   28     0.00001092846584     0.00000049228284     0.00000010977758     0.00000002886187     0.00000006465476
   29     0.00000461029024     0.00000026106264     0.00000005542991     0.00000002627183     0.00000004495217
   30     0.00000256100776     0.00000010308661     0.00000003486080     0.00000001708822     0.00000005037089
   31     0.00000343343903     0.00000017451404     0.00000006096666     0.00000002260212     0.00000004866938
   32     0.00002202210137     0.00000020066913     0.00000009356192     0.00000002602811     0.00000004799169
   33     0.00000301162350     0.00000007389484     0.00000002513127     0.00000000914416     0.00000000897778
   34     0.00002755425172     0.00000102024655     0.00000114968499     0.00000016637748     0.00000038105679
   35     0.00003071069604     0.00000039011754     0.00000011916459     0.00000002651708     0.00000005569990
   36     0.00053204689571     0.00071965267795     0.00017289981839     0.00007274376733     0.00004222840461
   37     0.00000228444226     0.00015355190080     0.00016895755710     0.00014075086868     0.00082541872433
   38     0.08261026136374     0.00129498257753     0.00025280255841     0.00003903338558     0.00002655759068
   39     0.01177080171765     0.01619501875024     0.01529303636674     0.00119006480571     0.00040068907595
   40     0.01440091105720     0.01541441950410     0.00164598359540     0.00038350005299     0.00062566844439
   41     0.87938202265985     0.00055029029421     0.00026764019556     0.00005370691765     0.00010546637726
   42     0.00049249343376     0.07534632559470     0.87623074826921     0.08075075825327     0.01044452464411
   43     0.00004450126798     0.01181050534412     0.07651006347040     0.87565192871487     0.08910346088189
   44     0.00001240840208     0.00209934906907     0.00204854056653     0.00364377775077     0.03119726383057
   45     0.00000038295993     0.00001823903527     0.00001088808514     0.00002366427630     0.00005748599965
   46     0.00000056838685     0.00002193857275     0.00004164602729     0.00001644680377     0.00005415789949
   47     0.00011423742755     0.00311693271928     0.00068776501306     0.00045947146109     0.00068431564367
   48     0.00000406559585     0.00000650637014     0.00000428372655     0.00000286728639     0.00001136199812
   49     0.00000975897438     0.00000222950647     0.00000052800843     0.00000022294055     0.00000068228990
   50     0.00000757950938     0.00000030267566     0.00000007363250     0.00000002139717     0.00000003553044
   51     0.00009171723180     0.00000215818260     0.00000185166279     0.00000031851003     0.00000055466525
   52     0.00309942046415     0.00005143485239     0.00001904131586     0.00000463366673     0.00000271357210
   53     0.00000366882951     0.00000009897839     0.00000002019105     0.00000000919982     0.00000000800123
   54     0.00000201227859     0.00000014106258     0.00000002262672     0.00000000877215     0.00000000682500
   55     0.00000094240123     0.00000001689996     0.00000000417092     0.00000000317995     0.00000000166097
   56     0.00000075194916     0.00000002651156     0.00000000913607     0.00000000310849     0.00000000487624
   57     0.00000029953474     0.00000003399123     0.00000001334006     0.00000000427055     0.00000000337397
   58     0.00000123006673     0.00000014194834     0.00000008047566     0.00000001478047     0.00000008273030
   59     0.00000065122116     0.00000001620076     0.00000000368754     0.00000000164802     0.00000000478751
   60     0.00000016257329     0.00000001318179     0.00000000246131     0.00000000099035     0.00000000090292
   61     0.00000014001192     0.00000000877522     0.00000000340539     0.00000000270747     0.00000000312725
   62     0.00000517911908     0.00000016516465     0.00000031067541     0.00000003843269     0.00000016031923
   63     0.00003761656092     0.00000112729073     0.00000117161637     0.00000021450141     0.00000020298583
   64     0.00000921781252     0.00000005832237     0.00000001982812     0.00000000436955     0.00000000935412
   65     0.00001680752062     0.00000011794153     0.00000003891451     0.00000000785511     0.00000000802197
   66     0.00000034602562     0.00004174534431     0.00006996735470     0.00004383696748     0.00023086735158
   67     0.00000159574289     0.00005320409976     0.00012571002527     0.00004273409376     0.00039147469297
   68     0.00000013848348     0.00001396757431     0.00001566715718     0.00000568282715     0.00004558069785

                11                  12                  13                  14                  15

    1     0.00088868718687     0.00275547382034     0.00016313535604     0.00003258046672     0.00001698434109
    2     0.00340966601131     0.02215443178473     0.00049154769478     0.00009784959881     0.00002350673174
    3     0.01810924456523     0.11912012578957     0.00163295930337     0.00056928421542     0.00008036941983
    4     0.00679701405309     0.06155300822416     0.00085479182271     0.00121944214419     0.00014111229490
    5     0.00040633812637     0.00389607961497     0.00007938680173     0.00008944891233     0.00002213090754
    6     0.00086350985431     0.00599715846546     0.00007704490145     0.00004004148549     0.00000467153456
    7     0.14302007539246     1.53322112582305     0.01964294497624     0.00321408759366     0.00051082347355
    8     0.11409495930086     0.12522484060548     0.02034211549327     0.00256585558907     0.00134756405799
    9     0.15294849250912     0.11100024033387     0.02383751375328     0.00321507669911     0.00088507334797
   10     1.50699115401916     0.10957729624306     0.16020428132013     0.01712612750873     0.00307734462763
   11     0.00000000000000     1.54059219994477     1.26561914623067     0.08316916439350     0.01798408930945
   12     1.54059219994477     0.00000000000000     0.14188582231991     0.03173590893307     0.00399514324317
   13     1.26561914623067     0.14188582231991     0.00000000000000     1.12835102721575     0.10790055651667
   14     0.08316916439350     0.03173590893307     1.12835102721575     0.00000000000000     1.31835516016303
   15     0.01798408930945     0.00399514324317     0.10790055651667     1.31835516016303     0.00000000000000
   16     0.00231605024845     0.00123940383671     0.01445273140512     0.12665821270680     1.44205033083397
   17     0.00390295838776     0.00230535300627     0.01202267441859     0.12157236987452     0.12406789439529
   18     0.00250362320390     0.00483256036194     0.01384546364963     0.12447222116990     0.11888034732919
   19     0.02831165270641     0.04880318117351     0.11137818235000     1.40101880235611     0.12066971182694
   20     0.00030132890889     0.00064339274775     0.00116859479809     0.01405826403749     0.01072590803031
   21     0.00022336579171     0.00079855646598     0.00036155053442     0.00314493028885     0.00525108976712
   22     0.00003381289755     0.00013408330076     0.00003125328083     0.00035712704126     0.00028750764204
   23     0.00000986391943     0.00003298364469     0.00002784601682     0.00015250494106     0.00028036568082
   24     0.00000231051729     0.00000608961998     0.00000357451833     0.00002351970525     0.00003457669385
   25     0.00000196371322     0.00000774643826     0.00000196890194     0.00002428101692     0.00015339155666
   26     0.00000261890635     0.00000683760436     0.00000195686599     0.00002059525101     0.00003418679296
   27     0.00001562974613     0.00008160774459     0.00001022034523     0.00010003058967     0.00029522921630
   28     0.00000019583797     0.00000096191202     0.00000018149043     0.00000238058103     0.00001115425193
   29     0.00000011788037     0.00000046735547     0.00000012461869     0.00000126405740     0.00000840445385
   30     0.00000006956214     0.00000023135605     0.00000004061660     0.00000043460980     0.00000160437135
   31     0.00000008470134     0.00000033470608     0.00000017545159     0.00000048566233     0.00000049013532
   32     0.00000005735459     0.00000011414740     0.00000005958685     0.00000027582036     0.00000044241520
   33     0.00000001663008     0.00000003359790     0.00000001224336     0.00000010765803     0.00000013409875
   34     0.00000018396010     0.00000098485561     0.00000015953178     0.00000047721249     0.00000073262191
   35     0.00000014575960     0.00000043545214     0.00000006168068     0.00000047670074     0.00000124001361
   36     0.00047595937742     0.00210221731827     0.00066270450696     0.00436284980784     0.00311047261916
   37     0.00422285723396     0.00082318725253     0.03900206765605     0.09638402478200     1.06011137368496
   38     0.00009079335084     0.00031856427093     0.00001614144055     0.00000697261328     0.00000112027629
   39     0.00028822843471     0.00109696617603     0.00006637124231     0.00002432034531     0.00000436894618
   40     0.00271657310668     0.02531437781404     0.00036582050446     0.00106570633452     0.00016256678475
   41     0.00004396644788     0.00025501629825     0.00000524914953     0.00000421111359     0.00000082048620
   42     0.00578420119359     0.01069554286482     0.00103555835888     0.00012728629443     0.00006085429601
   43     0.01586292101486     0.00401470514853     0.00134885176406     0.00038731531803     0.00006332448351
   44     0.07312771719936     0.01173057255351     0.93418586517697     0.05990326870852     0.01522630965506
   45     0.00036785957082     0.00006819692985     0.00117108582519     0.01150535050434     0.07513015388286
   46     0.00015677451375     0.00014402597742     0.00057279696060     0.00573377080914     0.01113765791102
   47     0.00870983535123     0.02761441583873     0.01631365004338     0.07236384891746     0.00929735494310
   48     0.00004002181340     0.00003047969785     0.00026187097518     0.00158712154087     0.00124557850310
   49     0.00000419394064     0.00000889270972     0.00001297691680     0.00005318636928     0.00005935944746
   50     0.00000016202476     0.00000036090581     0.00000022330204     0.00000242083079     0.00000154558260
   51     0.00000031351784     0.00000085326545     0.00000031686362     0.00000297636441     0.00000282272202
   52     0.00000577741308     0.00002801769870     0.00000287032490     0.00002074334002     0.00001559177376
   53     0.00000006619892     0.00000016607736     0.00000005075431     0.00000049085164     0.00000132388547
   54     0.00000006210647     0.00000012670380     0.00000004055516     0.00000065911115     0.00000196242382
   55     0.00000000953042     0.00000001985338     0.00000000615209     0.00000008126072     0.00000017923028
   56     0.00000002000744     0.00000006536424     0.00000000698090     0.00000009480703     0.00000038657205
   57     0.00000001026999     0.00000006452398     0.00000002570122     0.00000006155604     0.00000016419464
   58     0.00000007131894     0.00000027435492     0.00000029609862     0.00000063713881     0.00000183635950
   59     0.00000000277150     0.00000000649128     0.00000000183688     0.00000003305450     0.00000003344046
   60     0.00000000131801     0.00000000323397     0.00000000209762     0.00000000919211     0.00000000908442
   61     0.00000000327677     0.00000001521443     0.00000000163441     0.00000001425551     0.00000000804581
   62     0.00000003025761     0.00000008240453     0.00000002532254     0.00000004516970     0.00000011923118
   63     0.00000024336854     0.00000173829753     0.00000015177763     0.00000077005907     0.00000205709050
   64     0.00000002579466     0.00000007548431     0.00000000685323     0.00000011113179     0.00000050660998
   65     0.00000002301115     0.00000010117735     0.00000001152466     0.00000010139890     0.00000011626423
   66     0.00074119603774     0.00025582264440     0.00825818008161     0.01634130763351     0.05844743350752
   67     0.00133788544727     0.00035580398410     0.01179705703724     0.01681043303042     0.05817881441812
   68     0.00026060316140     0.00007232112438     0.00206560552898     0.00903827738289     0.05968470698552

                16                  17                  18                  19                  20

    1     0.00000239437727     0.00001531758183     0.00002344382221     0.00008545286664     0.00003736088533
    2     0.00000506864704     0.00001789962905     0.00004845244999     0.00021019924912     0.00004751849859
    3     0.00004904720292     0.00005422068392     0.00024815130359     0.00156778977093     0.00022921086150
    4     0.00027487305701     0.00017945469089     0.00148270753433     0.00809419310755     0.00140722942920
    5     0.00001142889747     0.00003667844296     0.00016495688011     0.00048031190572     0.00046737233415
    6     0.00000300533004     0.00000524411475     0.00003532320970     0.00014496703208     0.00005551318221
    7     0.00016851936453     0.00023911564793     0.00051072867688     0.00521159612206     0.00008947688730
    8     0.00018543092551     0.00112766589452     0.00025434470991     0.00275260984792     0.00002814769962
    9     0.00013742967131     0.00036455119584     0.00014700154303     0.00146902698793     0.00001375076667
   10     0.00047017999457     0.00117107045614     0.00044159591039     0.00427939825754     0.00005095537467
   11     0.00231605024845     0.00390295838776     0.00250362320390     0.02831165270641     0.00030132890889
   12     0.00123940383671     0.00230535300627     0.00483256036194     0.04880318117351     0.00064339274775
   13     0.01445273140512     0.01202267441859     0.01384546364963     0.11137818235000     0.00116859479809
   14     0.12665821270680     0.12157236987452     0.12447222116990     1.40101880235611     0.01405826403749
   15     1.44205033083397     0.12406789439529     0.11888034732919     0.12066971182694     0.01072590803031
   16     0.00000000000000     1.44736662912338     0.13069586539437     0.12528547731795     0.01406200087370
   17     1.44736662912338     0.00000000000000     1.39983751141266     0.12311523192280     0.11328613004581
   18     0.13069586539437     1.39983751141266     0.00000000000000     1.36734429189547     1.12497680548421
   19     0.12528547731795     0.12311523192280     1.36734429189547     0.00000000000000     0.11071377356936
   20     0.01406200087370     0.11328613004581     1.12497680548421     0.11071377356936     0.00000000000000
   21     0.00269940690274     0.02098681891246     0.08536517974927     0.03336648362772     1.30869510258187
   22     0.00038077404577     0.00190692207674     0.01495689414700     0.00367783963112     0.10382771612661
   23     0.00012518556844     0.00086892170925     0.00356264198186     0.00119289295465     0.04115546632822
   24     0.00001505284123     0.00011497628767     0.00040895452846     0.00017442519039     0.00364824322954
   25     0.00002869916098     0.00024463453324     0.00042775349979     0.00026513887303     0.00358666692010
   26     0.00001816597229     0.00010349930565     0.00048935450933     0.00014338919308     0.00245273889354
   27     0.00011210902903     0.00067986083309     0.00239260184548     0.00098871168831     0.01878895481558
   28     0.00000247130784     0.00001924916495     0.00003925436451     0.00002276836143     0.00028161615438
   29     0.00000175781844     0.00001245391752     0.00002212750444     0.00001246809480     0.00017428365681
   30     0.00000047879004     0.00000327454676     0.00000424821540     0.00000239577299     0.00003479720467
   31     0.00000060290529     0.00000304070381     0.00000530904803     0.00000306190857     0.00003700171488
   32     0.00000039067780     0.00000078972092     0.00000190936247     0.00000103676456     0.00001057759436
   33     0.00000012691642     0.00000040293130     0.00000067619175     0.00000041094488     0.00000213435154
   34     0.00000046649812     0.00000318287123     0.00000621777114     0.00000283573859     0.00003307203826
   35     0.00000039131264     0.00000220774798     0.00000561395099     0.00000292839664     0.00003834001321
   36     0.00112789999393     0.00546132292042     0.03006089964168     0.05329220495251     0.18972095887923
   37     0.11515743333139     0.01443078194012     0.00730227734283     0.01387918329673     0.00067614236351
   38     0.00000032659781     0.00000073701899     0.00000442874230     0.00001920313632     0.00000365317042
   39     0.00000184596126     0.00000109855335     0.00000478815694     0.00002989409944     0.00000467550556
   40     0.00019464700889     0.00010901266648     0.00144272965052     0.00670567294840     0.00136128746081
   41     0.00000043867591     0.00000025197382     0.00000181721324     0.00000944499380     0.00000542049043
   42     0.00001278511950     0.00004132483834     0.00002581288327     0.00017124490520     0.00000454142635
   43     0.00001565878730     0.00001165420227     0.00001452002846     0.00011041842325     0.00000156025552
   44     0.00154186999943     0.00134660115180     0.00136278544014     0.01088924165103     0.00023155784342
   45     0.87185072002712     0.07958772032527     0.01179309917366     0.00581378271293     0.00113236307075
   46     0.07882001263746     0.87602964427082     0.07756853123683     0.01200878526270     0.01826714782732
   47     0.00523985455977     0.00994655157532     0.06973703195200     0.82642712974868     0.01819633797301
   48     0.00174572703726     0.01775733777486     0.06542923341350     0.01141500010162     0.94116532865106
   49     0.00003747038743     0.00030714624085     0.00123186300199     0.00032203680341     0.01445090854192
   50     0.00000173178140     0.00000970997229     0.00003292920082     0.00001716782566     0.00021687058808
   51     0.00000254231948     0.00001630583563     0.00006675228252     0.00001857880317     0.00027095698146
   52     0.00001583686286     0.00006427775889     0.00025660158988     0.00016541160576     0.00171933349355
   53     0.00000034581205     0.00000240608948     0.00000620500951     0.00000411832433     0.00003428820940
   54     0.00000040899364     0.00000349402675     0.00000595363947     0.00000484643517     0.00005401612559
   55     0.00000009590844     0.00000043060283     0.00000084806819     0.00000039115502     0.00000502577750
   56     0.00000009463943     0.00000069704013     0.00000094044792     0.00000056479967     0.00000823260273
   57     0.00000006737264     0.00000047907093     0.00000044948955     0.00000026013716     0.00000261129207
   58     0.00000073817189     0.00000856467471     0.00001370358020     0.00000928767748     0.00003728779406
   59     0.00000004620961     0.00000009594835     0.00000010165387     0.00000007842126     0.00000050931839
   60     0.00000000747711     0.00000005425428     0.00000013671924     0.00000002438770     0.00000033477566
   61     0.00000000807361     0.00000002706707     0.00000009765391     0.00000004185439     0.00000037255876
   62     0.00000004269703     0.00000026198337     0.00000039821100     0.00000020341681     0.00000246122311
   63     0.00000053063698     0.00000595475256     0.00001188825731     0.00000903836491     0.00005005185030
   64     0.00000011799810     0.00000111939980     0.00000109186061     0.00000086604224     0.00000876787599
   65     0.00000008354182     0.00000048074308     0.00000154709345     0.00000054986307     0.00000827709453
   66     0.01597974857402     0.00127863822785     0.00322523662301     0.00120451726373     0.00038055728534
   67     0.01416029936663     0.00124262362370     0.00249719284082     0.00129534355513     0.00028100469776
   68     0.02343833699274     0.00185780265881     0.00058180726074     0.00113160877521     0.00008137523311

                21                  22                  23                  24                  25

    1     0.00031081671292     0.00015378300421     0.00001706442497     0.00000882533851     0.00000800378709
    2     0.00021363800197     0.00008961672316     0.00001109815616     0.00000429606892     0.00000611071225
    3     0.00074854984810     0.00014943261799     0.00002710262942     0.00001215846918     0.00001504295247
    4     0.00781427823379     0.00167809963401     0.00017985728156     0.00017414619529     0.00011868058154
    5     0.00376687986209     0.00380562266993     0.00036512646171     0.00054250148141     0.00026655714658
    6     0.00043319187542     0.00047520440500     0.00011157895930     0.00011632623233     0.00006769608181
    7     0.00022632299006     0.00004446671622     0.00000979238081     0.00000396374936     0.00000355632879
    8     0.00006075856425     0.00000702745543     0.00000133220911     0.00000082627547     0.00000053430852
    9     0.00002477066696     0.00000217050923     0.00000072813200     0.00000025782067     0.00000025370001
   10     0.00002512918152     0.00000470967144     0.00000122744388     0.00000034140029     0.00000031148017
   11     0.00022336579171     0.00003381289755     0.00000986391943     0.00000231051729     0.00000196371322
   12     0.00079855646598     0.00013408330076     0.00003298364469     0.00000608961998     0.00000774643826
   13     0.00036155053442     0.00003125328083     0.00002784601682     0.00000357451833     0.00000196890194
   14     0.00314493028885     0.00035712704126     0.00015250494106     0.00002351970525     0.00002428101692
   15     0.00525108976712     0.00028750764204     0.00028036568082     0.00003457669385     0.00015339155666
   16     0.00269940690274     0.00038077404577     0.00012518556844     0.00001505284123     0.00002869916098
   17     0.02098681891246     0.00190692207674     0.00086892170925     0.00011497628767     0.00024463453324
   18     0.08536517974927     0.01495689414700     0.00356264198186     0.00040895452846     0.00042775349979
   19     0.03336648362772     0.00367783963112     0.00119289295465     0.00017442519039     0.00026513887303
   20     1.30869510258187     0.10382771612661     0.04115546632822     0.00364824322954     0.00358666692010
   21     0.00000000000000     0.97214543700649     0.10551044060239     0.01453418715154     0.01084873880406
   22     0.97214543700649     0.00000000000000     1.40167539594564     0.12789780087375     0.12401788347553
   23     0.10551044060239     1.40167539594564     0.00000000000000     1.46111919123995     0.12589479551211
   24     0.01453418715154     0.12789780087375     1.46111919123995     0.00000000000000     1.40086421095477
   25     0.01084873880406     0.12401788347553     0.12589479551211     1.40086421095477     0.00000000000000
   26     0.01474623364770     0.12758005783590     0.13013408306382     0.12529756078261     1.39816279879820
   27     0.11077020796816     1.38263988182760     0.12381501768505     0.13040549148113     0.12786916305045
   28     0.00072622914783     0.00921197100979     0.01451401840656     0.10908067113315     1.01682789268722
   29     0.00037921778900     0.00443596155177     0.00202098353157     0.02214487378273     0.08781636830492
   30     0.00009126815556     0.00096700016644     0.00182872749960     0.01456398920922     0.01976314422843
   31     0.00008099354580     0.00136015440741     0.00805409146462     0.02213672017075     0.01635099349076
   32     0.00007541650619     0.00066609946813     0.00090954469868     0.00251146689496     0.00389805003205
   33     0.00000878540033     0.00011099421328     0.00020862838978     0.00061537268924     0.00104732081254
   34     0.00012914475976     0.00262644257485     0.00240912738638     0.00651118918804     0.02190172125147
   35     0.00010796119058     0.00111065197423     0.00099363747920     0.00497502944496     0.02180896338033
   36     2.17316766175777     0.13781984819737     0.02513127831998     0.00327170580558     0.00588539413383
[...]
   15     0.00000038657205     0.00000016419464     0.00000183635950     0.00000003344046     0.00000000908442
   16     0.00000009463943     0.00000006737264     0.00000073817189     0.00000004620961     0.00000000747711
   17     0.00000069704013     0.00000047907093     0.00000856467471     0.00000009594835     0.00000005425428
   18     0.00000094044792     0.00000044948955     0.00001370358020     0.00000010165387     0.00000013671924
   19     0.00000056479967     0.00000026013716     0.00000928767748     0.00000007842126     0.00000002438770
   20     0.00000823260273     0.00000261129207     0.00003728779406     0.00000050931839     0.00000033477566
   21     0.00002512671823     0.00000798240466     0.00006661399604     0.00000182229668     0.00000073602576
   22     0.00022686406440     0.00011227447085     0.00122729696487     0.00001275412039     0.00001193632820
   23     0.00031435034294     0.00021370605440     0.00674234443181     0.00002149378617     0.00002700450710
   24     0.00075743621560     0.00070021178380     0.01782119928034     0.00008146227958     0.00007187020284
   25     0.00145066623474     0.00055692607558     0.00949356187469     0.00017364833198     0.00009949357871
   26     0.00048827274149     0.00018611872010     0.00248341243058     0.00008303592923     0.00004071512007
   27     0.00015283862396     0.00010559220051     0.00172972943512     0.00002610905966     0.00002599835287
   28     0.01247418396581     0.00100370610168     0.00543518666171     0.00068629230869     0.00012151414480
   29     0.06559520000235     0.01380514815725     0.01222331203895     0.00324170267619     0.00074003341778
   30     0.77545626115153     0.05926918744775     0.04803940313710     0.01302813017720     0.00406373369576
   31     0.05172965293153     0.81847223659786     0.84162354753388     0.01655241091651     0.02186562856336
   32     0.01438187440095     0.05120973434094     0.06026370870923     0.06769275023993     0.06259318203923
   33     0.01607981319471     0.02523899109909     0.01110578833751     0.91108134564140     0.91997121671102
   34     0.00836668592195     0.01569181458965     0.01884971653298     0.01605255574032     0.01244520337750
   35     0.02365899354042     0.00181293194220     0.00706339291903     0.01226170749137     0.00173952110420
   36     0.00001388175821     0.00000489806601     0.00004315785065     0.00000093109454     0.00000042693983
   37     0.00000003000830     0.00000001282304     0.00000009965775     0.00000000467557     0.00000000110473
   38     0.00000001030919     0.00000000453714     0.00000004548501     0.00000001312830     0.00000000376168
   39     0.00000000244455     0.00000000181636     0.00000001848609     0.00000000144004     0.00000000101511
   40     0.00000003122730     0.00000007187143     0.00000062507932     0.00000003100316     0.00000001452368
   41     0.00000129872570     0.00000023669035     0.00000079067466     0.00000030038102     0.00000011891994
   42     0.00000000088238     0.00000000037387     0.00000000554531     0.00000000023245     0.00000000021920
   43     0.00000000026384     0.00000000024754     0.00000000060660     0.00000000012888     0.00000000006867
   44     0.00000000200470     0.00000000221307     0.00000001592399     0.00000000060690     0.00000000047066
   45     0.00000000296303     0.00000000650991     0.00000003172263     0.00000000125596     0.00000000030937
   46     0.00000009765361     0.00000021502817     0.00000174595450     0.00000000654893     0.00000005322804
   47     0.00000017984878     0.00000007024597     0.00000161279349     0.00000001269160     0.00000000642526
   48     0.00001866641346     0.00000880770645     0.00001826281597     0.00000039593204     0.00000040297740
   49     0.00004379537167     0.00002213325552     0.00052642357912     0.00000200413079     0.00000218301242
   50     0.00009787918207     0.00018819390587     0.00352782442474     0.00003803883879     0.00001891381103
   51     0.00013773989310     0.00001702553906     0.00014528221714     0.00003475078597     0.00000642975144
   52     0.00001171110197     0.00000306006932     0.00004558199124     0.00000289726509     0.00000123361243
   53     0.00125179866952     0.00008387938218     0.00082552267438     0.00006313801180     0.00001945831892
   54     0.00049768919053     0.00042182955642     0.00031926436557     0.00006357183516     0.00002446471086
   55     0.02441252670598     0.00609444877718     0.00756097360627     0.00060032182074     0.00017089779562
   56     0.00000000000000     0.01065684624535     0.01562767487746     0.00832356771471     0.00166092198053
   57     0.01065684624535     0.00000000000000     0.02125647946004     0.00352027640469     0.00834560646615
   58     0.01562767487746     0.02125647946004     0.00000000000000     0.00093744006313     0.00104205407173
   59     0.00832356771471     0.00352027640469     0.00093744006313     0.00000000000000     0.03481498674546
   60     0.00166092198053     0.00834560646615     0.00104205407173     0.03481498674546     0.00000000000000
   61     0.00072378921622     0.00129222742216     0.00072496240724     0.03500997625186     0.03775989567721
   62     0.00051429007381     0.00130799160279     0.00090231724135     0.00281791217378     0.00115022340247
   63     0.00082281142550     0.00113916395972     0.00486656655097     0.00101094359707     0.00063328537871
   64     0.00646508350787     0.00042275920540     0.00097565439550     0.00781212228044     0.00063935545951
   65     0.00094682670672     0.00044350878589     0.00042244758760     0.00051356113390     0.00022681506276
   66     0.00000002165545     0.00000000950408     0.00000004135069     0.00000000115388     0.00000000037887
   67     0.00000001290535     0.00000000471589     0.00000005367785     0.00000000076168     0.00000000018227
   68     0.00000000165251     0.00000000199246     0.00000000943605     0.00000000022824     0.00000000008113

                61                  62                  63                  64                  65

    1     0.00000006030331     0.00000309540801     0.00000786199875     0.00000022138970     0.00000242967864
    2     0.00000003520138     0.00000435585597     0.00001579482803     0.00000009722649     0.00000102660751
    3     0.00000002022184     0.00000323648724     0.00000962150653     0.00000011613713     0.00000062227201
    4     0.00000021272857     0.00000382518016     0.00002488431001     0.00000587986383     0.00000125329682
    5     0.00000028420855     0.00000856451835     0.00027137903122     0.00001995012493     0.00000767343725
    6     0.00000014001192     0.00000517911908     0.00003761656092     0.00000921781252     0.00001680752062
    7     0.00000000877522     0.00000016516465     0.00000112729073     0.00000005832237     0.00000011794153
    8     0.00000000340539     0.00000031067541     0.00000117161637     0.00000001982812     0.00000003891451
    9     0.00000000270747     0.00000003843269     0.00000021450141     0.00000000436955     0.00000000785511
   10     0.00000000312725     0.00000016031923     0.00000020298583     0.00000000935412     0.00000000802197
   11     0.00000000327677     0.00000003025761     0.00000024336854     0.00000002579466     0.00000002301115
   12     0.00000001521443     0.00000008240453     0.00000173829753     0.00000007548431     0.00000010117735
   13     0.00000000163441     0.00000002532254     0.00000015177763     0.00000000685323     0.00000001152466
   14     0.00000001425551     0.00000004516970     0.00000077005907     0.00000011113179     0.00000010139890
   15     0.00000000804581     0.00000011923118     0.00000205709050     0.00000050660998     0.00000011626423
   16     0.00000000807361     0.00000004269703     0.00000053063698     0.00000011799810     0.00000008354182
   17     0.00000002706707     0.00000026198337     0.00000595475256     0.00000111939980     0.00000048074308
   18     0.00000009765391     0.00000039821100     0.00001188825731     0.00000109186061     0.00000154709345
   19     0.00000004185439     0.00000020341681     0.00000903836491     0.00000086604224     0.00000054986307
   20     0.00000037255876     0.00000246122311     0.00005005185030     0.00000876787599     0.00000827709453
   21     0.00000105979685     0.00001231464094     0.00017399560449     0.00004283295714     0.00002093523686
   22     0.00001328545333     0.00013629835761     0.00312472984393     0.00031746254661     0.00020542401858
   23     0.00002367685778     0.00012862195037     0.00270860249625     0.00023728531104     0.00020699559595
   24     0.00004298386435     0.00027496947589     0.00546739874463     0.00060702232499     0.00058165069117
   25     0.00009899505796     0.00088324927823     0.01512976258474     0.00148019843873     0.00591102348118
   26     0.00006995417227     0.00097517704079     0.02312469846116     0.00100566651817     0.00612271968796
   27     0.00003671998553     0.00032764978003     0.01034038773081     0.00046942202638     0.00051092994275
   28     0.00012009336836     0.00114473168210     0.00667694462566     0.01213758863239     0.01921369111045
   29     0.00063688949185     0.01023208514402     0.01198267608167     0.06554647140021     0.05832872692506
   30     0.00181043815736     0.00244638323808     0.00717885100298     0.02355897359372     0.01212970707946
   31     0.01287439058260     0.01317974532814     0.01818298439055     0.00834377946239     0.00254890047787
   32     0.06315839631721     0.05717311579315     0.05900209955296     0.01385705291313     0.01014825651251
   33     0.91967494331424     0.02020459090542     0.01238617194934     0.01563189545722     0.00159057602948
   34     0.01870073937885     0.88426505417825     0.76452735449475     0.04966279718232     0.06014447679884
   35     0.00377833838789     0.06003734935748     0.04338552359516     0.76934429490791     0.88980675299590
   36     0.00000053361948     0.00000390561297     0.00009888325396     0.00001382893121     0.00000587732193
   37     0.00000000544283     0.00000000695631     0.00000014709185     0.00000004524727     0.00000000800271
   38     0.00000000660615     0.00000006009966     0.00000030704943     0.00000012670898     0.00000009719662
   39     0.00000000214263     0.00000018251907     0.00000152067006     0.00000000399529     0.00000007483942
   40     0.00000005644782     0.00000086135781     0.00000423759732     0.00000173042711     0.00000021095498
   41     0.00000002289502     0.00000086960060     0.00000352084192     0.00000028330566     0.00000678490142
   42     0.00000000086723     0.00000001087499     0.00000005947434     0.00000000085489     0.00000000534695
   43     0.00000000012856     0.00000000221995     0.00000007775179     0.00000000045045     0.00000000071836
   44     0.00000000019404     0.00000000170287     0.00000004884397     0.00000000223796     0.00000000215091
   45     0.00000000045346     0.00000000209087     0.00000010915514     0.00000000180224     0.00000002287450
   46     0.00000000472546     0.00000003952938     0.00000051127614     0.00000012309787     0.00000006871159
   47     0.00000001484805     0.00000004454955     0.00000146063993     0.00000022977856     0.00000024518664
   48     0.00000017770227     0.00000169392365     0.00000970032429     0.00000500113426     0.00000155187698
   49     0.00000115020243     0.00000593178280     0.00008789558764     0.00002010781410     0.00002273628657
   50     0.00001023749986     0.00002186600091     0.00042813837524     0.00014993653466     0.00007604316082
   51     0.00001517983809     0.00017507302939     0.00397397679754     0.00012223756413     0.00262611567287
   52     0.00000358554235     0.00003031495865     0.00095914264750     0.00006348402105     0.00003341116228
   53     0.00001937168822     0.00027435267953     0.00039758805855     0.00055177519218     0.00106405317201
   54     0.00002133611351     0.00011389556794     0.00090715439208     0.00121656043616     0.00542567654071
   55     0.00022031588438     0.00030739340889     0.00047218113753     0.00094105239007     0.00112882930025
   56     0.00072378921622     0.00051429007381     0.00082281142550     0.00646508350787     0.00094682670672
   57     0.00129222742216     0.00130799160279     0.00113916395972     0.00042275920540     0.00044350878589
   58     0.00072496240724     0.00090231724135     0.00486656655097     0.00097565439550     0.00042244758760
   59     0.03500997625186     0.00281791217378     0.00101094359707     0.00781212228044     0.00051356113390
   60     0.03775989567721     0.00115022340247     0.00063328537871     0.00063935545951     0.00022681506276
   61     0.00000000000000     0.00630607038850     0.00102552061784     0.00174910371256     0.00013640619310
   62     0.00630607038850     0.00000000000000     0.02205664439692     0.01010419491285     0.00576004991580
   63     0.00102552061784     0.02205664439692     0.00000000000000     0.02442515627221     0.00867312125075
   64     0.00174910371256     0.01010419491285     0.02442515627221     0.00000000000000     0.02342774773842
   65     0.00013640619310     0.00576004991580     0.00867312125075     0.02342774773842     0.00000000000000
   66     0.00000000019250     0.00000000580123     0.00000009472209     0.00000002518021     0.00000000672136
   67     0.00000000026124     0.00000000426153     0.00000005996293     0.00000001794200     0.00000000267776
   68     0.00000000014581     0.00000000128288     0.00000002343113     0.00000000183771     0.00000000185805

                66                  67                  68

    1     0.00000102565736     0.00000132658824     0.00000025325957
    2     0.00000175685153     0.00000330741869     0.00000061810561
    3     0.00000950825881     0.00001001287594     0.00000301304964
    4     0.00000762402484     0.00000871145048     0.00000529653518
    5     0.00000073487212     0.00000116173427     0.00000035798810
    6     0.00000034602562     0.00000159574289     0.00000013848348
    7     0.00004174534431     0.00005320409976     0.00001396757431
    8     0.00006996735470     0.00012571002527     0.00001566715718
    9     0.00004383696748     0.00004273409376     0.00000568282715
   10     0.00023086735158     0.00039147469297     0.00004558069785
   11     0.00074119603774     0.00133788544727     0.00026060316140
   12     0.00025582264440     0.00035580398410     0.00007232112438
   13     0.00825818008161     0.01179705703724     0.00206560552898
   14     0.01634130763351     0.01681043303042     0.00903827738289
   15     0.05844743350752     0.05817881441812     0.05968470698552
   16     0.01597974857402     0.01416029936663     0.02343833699274
   17     0.00127863822785     0.00124262362370     0.00185780265881
   18     0.00322523662301     0.00249719284082     0.00058180726074
   19     0.00120451726373     0.00129534355513     0.00113160877521
   20     0.00038055728534     0.00028100469776     0.00008137523311
   21     0.00021792094952     0.00016308002524     0.00004562872561
   22     0.00001406949283     0.00001004491890     0.00000592437695
   23     0.00001284960305     0.00000881697426     0.00000299222672
   24     0.00000155952033     0.00000107613207     0.00000034980707
   25     0.00000769379341     0.00000485458644     0.00000068612728
   26     0.00000176849525     0.00000102656750     0.00000029256664
   27     0.00001465195948     0.00000885054027     0.00000204064544
   28     0.00000051119595     0.00000039556945     0.00000007908520
   29     0.00000043461692     0.00000027361419     0.00000004140838
   30     0.00000007530604     0.00000003706037     0.00000001195589
   31     0.00000002192967     0.00000001388917     0.00000001829013
   32     0.00000001746742     0.00000001129243     0.00000000727536
   33     0.00000000450681     0.00000000282856     0.00000000119769
   34     0.00000003411671     0.00000002103329     0.00000001076318
   35     0.00000006285591     0.00000002902406     0.00000000881597
   36     0.00013374949785     0.00008904728450     0.00002982858864
   37     0.91889645271502     0.91758615602847     0.92078352325605
   38     0.00000007938573     0.00000010567879     0.00000002792961
   39     0.00000019869225     0.00000047031424     0.00000008977273
   40     0.00000648433329     0.00000936823641     0.00000552829702
   41     0.00000005141353     0.00000009015430     0.00000002456860
   42     0.00000319879828     0.00000474208129     0.00000073175624
   43     0.00000278548348     0.00000350638055     0.00000059730667
   44     0.00443658552318     0.00413428125056     0.00091983046385
   45     0.00135255735016     0.00115622037614     0.00747337959080
   46     0.00020702023105     0.00026108368081     0.00013577351535
   47     0.00016905227195     0.00018390176134     0.00033542895408
   48     0.00005230775975     0.00004546272311     0.00002186092297
   49     0.00000249382397     0.00000168331586     0.00000105098804
   50     0.00000010713951     0.00000005571092     0.00000007003536
   51     0.00000013761029     0.00000014165552     0.00000008462977
   52     0.00000081949999     0.00000058010965     0.00000053354614
   53     0.00000008251708     0.00000003627396     0.00000001349003
   54     0.00000011077644     0.00000006403043     0.00000001317934
   55     0.00000001136881     0.00000000649347     0.00000000164507
   56     0.00000002165545     0.00000001290535     0.00000000165251
   57     0.00000000950408     0.00000000471589     0.00000000199246
   58     0.00000004135069     0.00000005367785     0.00000000943605
   59     0.00000000115388     0.00000000076168     0.00000000022824
   60     0.00000000037887     0.00000000018227     0.00000000008113
   61     0.00000000019250     0.00000000026124     0.00000000014581
   62     0.00000000580123     0.00000000426153     0.00000000128288
   63     0.00000009472209     0.00000005996293     0.00000002343113
   64     0.00000002518021     0.00000001794200     0.00000000183771
   65     0.00000000672136     0.00000000267776     0.00000000185805
   66     0.00000000000000     0.03495990077785     0.03814658024910
   67     0.03495990077785     0.00000000000000     0.03858809674136
   68     0.03814658024910     0.03858809674136     0.00000000000000



  Atomic Valences: 

 #  #
 Irrep: 1
      1:  4.3928148
      2:  4.4257812
      3:  4.6019055
      4:  4.5777085
      5:  3.9202869
      6:  4.5497157
      7:  4.7395538
      8:  4.3697925
      9:  4.5278705
     10:  3.8618774
     11:  5.0067582
     12:  3.9565373
     13:  4.0415350
     14:  4.6771183
     15:  4.6290502
     16:  4.4381679
     17:  4.3851628
     18:  4.6711178
     19:  4.4457488
     20:  4.0635137
     21:  5.0104881
     22:  4.6250220
     23:  4.4426705
     24:  4.4719679
     25:  4.7166905
     26:  4.4774722
     27:  4.4586703
     28:  4.4937647
     29:  4.2521906
     30:  4.5642353
     31:  4.5749165
     32:  4.2134752
     33:  4.2904259
     34:  4.5572890
     35:  4.5453416
     36:  2.8098646
     37:  4.1494588
     38:  1.0992538
     39:  1.1029947
     40:  1.1149273
     41:  1.0921925
     42:  1.1106455
     43:  1.0868544
     44:  1.1749442
     45:  1.1010874
     46:  1.1014727
     47:  1.1341881
     48:  1.1797235
     49:  1.1047709
     50:  1.1065619
     51:  1.1065824
     52:  1.1125526
     53:  1.1067025
     54:  1.1068715
     55:  1.1313364
     56:  1.0434010
     57:  1.0436222
     58:  1.1040265
     59:  1.1365670
     60:  1.1103366
     61:  1.1060622
     62:  1.1033102
     63:  1.0558445
     64:  1.0413988
     65:  1.1184544
     66:  1.1051627
     67:  1.1058194
     68:  1.1048042


    Psi4 stopped on: Wednesday, 04 March 2020 06:36AM
    Psi4 wall time for execution: 0:45:41.65

*** Psi4 exiting successfully. Buy a developer a beer!
