 Entering Gaussian System, Link 0=g09
 Input=MOLECULE0-opt-23-22-21-36-155.com
 Output=MOLECULE0-opt-23-22-21-36-155.log
 Initial command:
 /opt/g09gh/gaussian/g09/l1.exe /scratch/bdw2292/Gau-MOLECULE0/Gau-75185.inp -scrdir=/scratch/bdw2292/Gau-MOLECULE0/
 Entering Link 1 = /opt/g09gh/gaussian/g09/l1.exe PID=     75186.
  
 Copyright (c) 1988,1990,1992,1993,1995,1998,2003,2009, Gaussian, Inc.
                  All Rights Reserved.
  
 This is part of the Gaussian(R) 09 program.  It is based on
 the Gaussian(R) 03 system (copyright 2003, Gaussian, Inc.),
 the Gaussian(R) 98 system (copyright 1998, Gaussian, Inc.),
 the Gaussian(R) 94 system (copyright 1995, Gaussian, Inc.),
 the Gaussian 92(TM) system (copyright 1992, Gaussian, Inc.),
 the Gaussian 90(TM) system (copyright 1990, Gaussian, Inc.),
 the Gaussian 88(TM) system (copyright 1988, Gaussian, Inc.),
 the Gaussian 86(TM) system (copyright 1986, Carnegie Mellon
 University), and the Gaussian 82(TM) system (copyright 1983,
 Carnegie Mellon University). Gaussian is a federally registered
 trademark of Gaussian, Inc.
  
 This software contains proprietary and confidential information,
 including trade secrets, belonging to Gaussian, Inc.
  
 This software is provided under written license and may be
 used, copied, transmitted, or stored only in accord with that
 written license.
  
 The following legend is applicable only to US Government
 contracts under FAR:
  
                    RESTRICTED RIGHTS LEGEND
  
 Use, reproduction and disclosure by the US Government is
 subject to restrictions as set forth in subparagraphs (a)
 and (c) of the Commercial Computer Software - Restricted
 Rights clause in FAR 52.227-19.
  
 Gaussian, Inc.
 340 Quinnipiac St., Bldg. 40, Wallingford CT 06492
  
  
 ---------------------------------------------------------------
 Warning -- This program may not be used in any manner that
 competes with the business of Gaussian, Inc. or will provide
 assistance to any competitor of Gaussian, Inc.  The licensee
 of this program is prohibited from giving any competitor of
 Gaussian, Inc. access to this program.  By using this program,
 the user acknowledges that Gaussian, Inc. is engaged in the
 business of creating and licensing software in the field of
 computational chemistry and represents and warrants to the
 licensee that it is not a competitor of Gaussian, Inc. and that
 it will not use this program in any manner prohibited above.
 ---------------------------------------------------------------
  

 Cite this work as:
 Gaussian 09, Revision A.02,
 M. J. Frisch, G. W. Trucks, H. B. Schlegel, G. E. Scuseria, 
 M. A. Robb, J. R. Cheeseman, G. Scalmani, V. Barone, B. Mennucci, 
 G. A. Petersson, H. Nakatsuji, M. Caricato, X. Li, H. P. Hratchian, 
 A. F. Izmaylov, J. Bloino, G. Zheng, J. L. Sonnenberg, M. Hada, 
 M. Ehara, K. Toyota, R. Fukuda, J. Hasegawa, M. Ishida, T. Nakajima, 
 Y. Honda, O. Kitao, H. Nakai, T. Vreven, J. A. Montgomery, Jr., 
 J. E. Peralta, F. Ogliaro, M. Bearpark, J. J. Heyd, E. Brothers, 
 K. N. Kudin, V. N. Staroverov, R. Kobayashi, J. Normand, 
 K. Raghavachari, A. Rendell, J. C. Burant, S. S. Iyengar, J. Tomasi, 
 M. Cossi, N. Rega, J. M. Millam, M. Klene, J. E. Knox, J. B. Cross, 
 V. Bakken, C. Adamo, J. Jaramillo, R. Gomperts, R. E. Stratmann, 
 O. Yazyev, A. J. Austin, R. Cammi, C. Pomelli, J. W. Ochterski, 
 R. L. Martin, K. Morokuma, V. G. Zakrzewski, G. A. Voth, 
 P. Salvador, J. J. Dannenberg, S. Dapprich, A. D. Daniels, 
 O. Farkas, J. B. Foresman, J. V. Ortiz, J. Cioslowski, 
 and D. J. Fox, Gaussian, Inc., Wallingford CT, 2009.
 
 ******************************************
 Gaussian 09:  EM64L-G09RevA.02 11-Jun-2009
                 8-Apr-2020 
 ******************************************
 %RWF=/scratch/bdw2292/Gau-MOLECULE0/,100GB
 %Nosave
 %Chk=MOLECULE0-opt-23-22-21-36-155.chk
 %Mem=20GB
 %Nproc=6
 Will use up to    6 processors via shared memory.
 --------------------------------------------------
 #P opt=(,maxcycle=400) wB97XD/6-31G* MaxDisk=100GB
 --------------------------------------------------
 1/6=400,14=-1,18=20,19=15,26=3,38=1/1,3;
 2/9=110,12=2,17=6,18=5,40=1/2;
 3/5=1,6=6,7=1,11=2,16=1,25=1,30=1,71=1,74=-58/1,2,3;
 4//1;
 5/5=2,38=5/2;
 6/7=2,8=2,9=2,10=2,28=1/1;
 7//1,2,3,16;
 1/6=400,14=-1,18=20,19=15/3(2);
 2/9=110/2;
 99//99;
 2/9=110/2;
 3/5=1,6=6,7=1,11=2,16=1,25=1,30=1,71=1,74=-58/1,2,3;
 4/5=5,16=3/1;
 5/5=2,38=5/2;
 7//1,2,3,16;
 1/6=400,14=-1,18=20,19=15/3(-5);
 2/9=110/2;
 6/7=2,8=2,9=2,10=2,19=2,28=1/1;
 99/9=1/99;
 Leave Link    1 at Wed Apr  8 22:20:33 2020, MaxMem= 2684354560 cpu:       1.5
 (Enter /opt/g09gh/gaussian/g09/l101.exe)
 --------------------------------------------------------------
 MOLECULE0 Rotatable Bond Optimization on node37.bme.utexas.edu
 --------------------------------------------------------------
 Symbolic Z-matrix:
 Charge =  0 Multiplicity = 1
 C                    -0.10541   0.90428  -7.38773 
 C                     1.24711   0.54056  -7.35425 
 C                     1.72484  -0.30537  -6.33341 
 C                     0.75713  -0.75384  -5.40186 
 N                    -0.53794  -0.41424  -5.41633 
 C                    -0.95384   0.4039   -6.39455 
 C                     3.16635  -0.73072  -6.20572 
 C                     4.17681  -0.42363  -7.13298 
 C                     5.45254  -0.91357  -6.83372 
 N                     5.74439  -1.62534  -5.74845 
 C                     4.71745  -1.8667   -4.90813 
 N                     3.46564  -1.44815  -5.10495 
 N                     5.05284  -2.59889  -3.78433 
 C                     4.30595  -3.14371  -2.68031 
 C                     4.90682  -4.15613  -1.8712 
 C                     4.14682  -4.66641  -0.80665 
 C                     2.84978  -4.24162  -0.50036 
 C                     2.27349  -3.2398   -1.28928 
 C                     3.00947  -2.71415  -2.36522 
 N                     0.95408  -2.7039   -1.11308 
 C                    -0.08457  -3.094    -0.29701 
 C                    -1.46192  -2.49581  -0.52625 
 C                    -1.70388  -1.2594   -1.14872 
 C                    -3.01053  -0.81193  -1.35746 
 C                    -4.1236   -1.56213  -0.93473 
 C                    -3.86942  -2.79156  -0.29736 
 C                    -2.56618  -3.2522   -0.09523 
 C                    -5.54838  -1.03191  -1.10905 
 N                    -6.1042   -0.10025  -0.11271 
 C                    -5.64462   1.30754  -0.1026 
 C                    -4.47015   1.59604   0.86873 
 N                    -4.72201   1.15338   2.26126 
 C                    -5.51417   2.05543   3.10506 
 C                    -5.13475  -0.27178   2.24386 
 C                    -6.30563  -0.57944   1.27419 
 O                     0.07695  -3.89324   0.61274 
 C                     6.30562  -4.70013  -2.11221 
 H                    -0.49334   1.55989  -8.16163 
 H                     1.90798   0.93913  -8.11989 
 H                     1.03659  -1.43824  -4.60759 
 H                    -2.01262   0.65713  -6.37519 
 H                     4.02528   0.14313  -8.04329 
 H                     6.3055   -0.73686  -7.48846 
 H                     6.02886  -2.84836  -3.83671 
 H                     4.57444  -5.44344  -0.17429 
 H                     2.29624  -4.67137   0.32465 
 H                     2.57617  -1.93715  -2.97399 
 H                     0.73407  -1.95362  -1.75116 
 H                    -0.86983  -0.64272  -1.47091 
 H                    -3.1611    0.14915  -1.84897 
 H                    -4.70099  -3.39593   0.06393 
 H                    -2.38866  -4.20247   0.40266 
 H                    -5.61114  -0.53202  -2.08589 
 H                    -6.23322  -1.89103  -1.14765 
 H                    -5.38012   1.67084  -1.21743 
 H                    -6.79434   2.13133   0.33897 
 H                    -4.20727   2.92554   0.87711 
 H                    -3.44901   1.03175   0.48679 
 H                    -6.53933   2.14528   2.72866 
 H                    -5.05685   3.05131   3.12736 
 H                    -5.54721   1.67919   4.13401 
 H                    -5.41308  -0.62511   3.38385 
 H                    -3.96172  -1.04234   1.8292 
 H                    -7.51168   0.10971   1.8 
 H                    -6.55731  -1.74577   1.2761 
 H                     7.08191  -3.92615  -2.02641 
 H                     6.39198  -5.13454  -3.11218 
 H                     6.57994  -5.48836  -1.40628 
 
 NAtoms=     68 NQM=     68 NQMF=      0 NMic=      0 NMicF=      0 NTot=     68.
                    Isotopes and Nuclear Properties:
 (Nuclear quadrupole moments (NQMom) in fm**2, nuclear magnetic moments (NMagM)
  in nuclear magnetons)

  Atom         1           2           3           4           5           6           7           8           9          10
 IAtWgt=          12          12          12          12          14          12          12          12          12          14
 AtmWgt=  12.0000000  12.0000000  12.0000000  12.0000000  14.0030740  12.0000000  12.0000000  12.0000000  12.0000000  14.0030740
 NucSpn=           0           0           0           0           2           0           0           0           0           2
 AtZEff=   0.0000000   0.0000000   0.0000000   0.0000000   0.0000000   0.0000000   0.0000000   0.0000000   0.0000000   0.0000000
 NQMom=    0.0000000   0.0000000   0.0000000   0.0000000   2.0440000   0.0000000   0.0000000   0.0000000   0.0000000   2.0440000
 NMagM=    0.0000000   0.0000000   0.0000000   0.0000000   0.4037610   0.0000000   0.0000000   0.0000000   0.0000000   0.4037610

  Atom        11          12          13          14          15          16          17          18          19          20
 IAtWgt=          12          14          14          12          12          12          12          12          12          14
 AtmWgt=  12.0000000  14.0030740  14.0030740  12.0000000  12.0000000  12.0000000  12.0000000  12.0000000  12.0000000  14.0030740
 NucSpn=           0           2           2           0           0           0           0           0           0           2
 AtZEff=   0.0000000   0.0000000   0.0000000   0.0000000   0.0000000   0.0000000   0.0000000   0.0000000   0.0000000   0.0000000
 NQMom=    0.0000000   2.0440000   2.0440000   0.0000000   0.0000000   0.0000000   0.0000000   0.0000000   0.0000000   2.0440000
 NMagM=    0.0000000   0.4037610   0.4037610   0.0000000   0.0000000   0.0000000   0.0000000   0.0000000   0.0000000   0.4037610

  Atom        21          22          23          24          25          26          27          28          29          30
 IAtWgt=          12          12          12          12          12          12          12          12          14          12
 AtmWgt=  12.0000000  12.0000000  12.0000000  12.0000000  12.0000000  12.0000000  12.0000000  12.0000000  14.0030740  12.0000000
 NucSpn=           0           0           0           0           0           0           0           0           2           0
 AtZEff=   0.0000000   0.0000000   0.0000000   0.0000000   0.0000000   0.0000000   0.0000000   0.0000000   0.0000000   0.0000000
 NQMom=    0.0000000   0.0000000   0.0000000   0.0000000   0.0000000   0.0000000   0.0000000   0.0000000   2.0440000   0.0000000
 NMagM=    0.0000000   0.0000000   0.0000000   0.0000000   0.0000000   0.0000000   0.0000000   0.0000000   0.4037610   0.0000000

  Atom        31          32          33          34          35          36          37          38          39          40
 IAtWgt=          12          14          12          12          12          16          12           1           1           1
 AtmWgt=  12.0000000  14.0030740  12.0000000  12.0000000  12.0000000  15.9949146  12.0000000   1.0078250   1.0078250   1.0078250
 NucSpn=           0           2           0           0           0           0           0           1           1           1
 AtZEff=   0.0000000   0.0000000   0.0000000   0.0000000   0.0000000   0.0000000   0.0000000   0.0000000   0.0000000   0.0000000
 NQMom=    0.0000000   2.0440000   0.0000000   0.0000000   0.0000000   0.0000000   0.0000000   0.0000000   0.0000000   0.0000000
 NMagM=    0.0000000   0.4037610   0.0000000   0.0000000   0.0000000   0.0000000   0.0000000   2.7928460   2.7928460   2.7928460

  Atom        41          42          43          44          45          46          47          48          49          50
 IAtWgt=           1           1           1           1           1           1           1           1           1           1
 AtmWgt=   1.0078250   1.0078250   1.0078250   1.0078250   1.0078250   1.0078250   1.0078250   1.0078250   1.0078250   1.0078250
 NucSpn=           1           1           1           1           1           1           1           1           1           1
 AtZEff=   0.0000000   0.0000000   0.0000000   0.0000000   0.0000000   0.0000000   0.0000000   0.0000000   0.0000000   0.0000000
 NQMom=    0.0000000   0.0000000   0.0000000   0.0000000   0.0000000   0.0000000   0.0000000   0.0000000   0.0000000   0.0000000
 NMagM=    2.7928460   2.7928460   2.7928460   2.7928460   2.7928460   2.7928460   2.7928460   2.7928460   2.7928460   2.7928460

  Atom        51          52          53          54          55          56          57          58          59          60
 IAtWgt=           1           1           1           1           1           1           1           1           1           1
 AtmWgt=   1.0078250   1.0078250   1.0078250   1.0078250   1.0078250   1.0078250   1.0078250   1.0078250   1.0078250   1.0078250
 NucSpn=           1           1           1           1           1           1           1           1           1           1
 AtZEff=   0.0000000   0.0000000   0.0000000   0.0000000   0.0000000   0.0000000   0.0000000   0.0000000   0.0000000   0.0000000
 NQMom=    0.0000000   0.0000000   0.0000000   0.0000000   0.0000000   0.0000000   0.0000000   0.0000000   0.0000000   0.0000000
 NMagM=    2.7928460   2.7928460   2.7928460   2.7928460   2.7928460   2.7928460   2.7928460   2.7928460   2.7928460   2.7928460

  Atom        61          62          63          64          65          66          67          68
 IAtWgt=           1           1           1           1           1           1           1           1
 AtmWgt=   1.0078250   1.0078250   1.0078250   1.0078250   1.0078250   1.0078250   1.0078250   1.0078250
 NucSpn=           1           1           1           1           1           1           1           1
 AtZEff=   0.0000000   0.0000000   0.0000000   0.0000000   0.0000000   0.0000000   0.0000000   0.0000000
 NQMom=    0.0000000   0.0000000   0.0000000   0.0000000   0.0000000   0.0000000   0.0000000   0.0000000
 NMagM=    2.7928460   2.7928460   2.7928460   2.7928460   2.7928460   2.7928460   2.7928460   2.7928460
 Leave Link  101 at Wed Apr  8 22:20:33 2020, MaxMem= 2684354560 cpu:       0.4
 (Enter /opt/g09gh/gaussian/g09/l103.exe)

 GradGradGradGradGradGradGradGradGradGradGradGradGradGradGradGradGradGrad
 Berny optimization.
 Initialization pass.
                           ----------------------------
                           !    Initial Parameters    !
                           ! (Angstroms and Degrees)  !
 --------------------------                            --------------------------
 ! Name  Definition              Value          Derivative Info.                !
 --------------------------------------------------------------------------------
 ! R1    R(1,2)                  1.401          estimate D2E/DX2                !
 ! R2    R(1,6)                  1.3988         estimate D2E/DX2                !
 ! R3    R(1,38)                 1.0859         estimate D2E/DX2                !
 ! R4    R(2,3)                  1.4092         estimate D2E/DX2                !
 ! R5    R(2,39)                 1.0871         estimate D2E/DX2                !
 ! R6    R(3,4)                  1.4161         estimate D2E/DX2                !
 ! R7    R(3,7)                  1.5084         estimate D2E/DX2                !
 ! R8    R(4,5)                  1.3389         estimate D2E/DX2                !
 ! R9    R(4,40)                 1.0851         estimate D2E/DX2                !
 ! R10   R(5,6)                  1.3414         estimate D2E/DX2                !
 ! R11   R(6,41)                 1.0888         estimate D2E/DX2                !
 ! R12   R(7,8)                  1.4054         estimate D2E/DX2                !
 ! R13   R(7,12)                 1.3476         estimate D2E/DX2                !
 ! R14   R(8,9)                  1.399          estimate D2E/DX2                !
 ! R15   R(8,42)                 1.083          estimate D2E/DX2                !
 ! R16   R(9,10)                 1.3303         estimate D2E/DX2                !
 ! R17   R(9,43)                 1.0897         estimate D2E/DX2                !
 ! R18   R(10,11)                1.3487         estimate D2E/DX2                !
 ! R19   R(11,12)                1.3345         estimate D2E/DX2                !
 ! R20   R(11,13)                1.3826         estimate D2E/DX2                !
 ! R21   R(13,14)                1.44           estimate D2E/DX2                !
 ! R22   R(13,44)                1.0088         estimate D2E/DX2                !
 ! R23   R(14,15)                1.4285         estimate D2E/DX2                !
 ! R24   R(14,19)                1.4017         estimate D2E/DX2                !
 ! R25   R(15,16)                1.404          estimate D2E/DX2                !
 ! R26   R(15,37)                1.5201         estimate D2E/DX2                !
 ! R27   R(16,17)                1.3988         estimate D2E/DX2                !
 ! R28   R(16,45)                1.0893         estimate D2E/DX2                !
 ! R29   R(17,18)                1.3993         estimate D2E/DX2                !
 ! R30   R(17,46)                1.0825         estimate D2E/DX2                !
 ! R31   R(18,19)                1.4056         estimate D2E/DX2                !
 ! R32   R(18,20)                1.435          estimate D2E/DX2                !
 ! R33   R(19,47)                1.078          estimate D2E/DX2                !
 ! R34   R(20,21)                1.3773         estimate D2E/DX2                !
 ! R35   R(20,48)                1.0092         estimate D2E/DX2                !
 ! R36   R(21,22)                1.519          estimate D2E/DX2                !
 ! R37   R(21,36)                1.2217         estimate D2E/DX2                !
 ! R38   R(22,23)                1.4053         estimate D2E/DX2                !
 ! R39   R(22,27)                1.4062         estimate D2E/DX2                !
 ! R40   R(23,24)                1.3968         estimate D2E/DX2                !
 ! R41   R(23,49)                1.0862         estimate D2E/DX2                !
 ! R42   R(24,25)                1.4073         estimate D2E/DX2                !
 ! R43   R(24,50)                1.0899         estimate D2E/DX2                !
 ! R44   R(25,26)                1.408          estimate D2E/DX2                !
 ! R45   R(25,28)                1.5302         estimate D2E/DX2                !
 ! R46   R(26,27)                1.3969         estimate D2E/DX2                !
 ! R47   R(26,51)                1.0896         estimate D2E/DX2                !
 ! R48   R(27,52)                1.0874         estimate D2E/DX2                !
 ! R49   R(28,29)                1.473          estimate D2E/DX2                !
 ! R50   R(28,53)                1.0991         estimate D2E/DX2                !
 ! R51   R(28,54)                1.0994         estimate D2E/DX2                !
 ! R52   R(29,30)                1.4809         estimate D2E/DX2                !
 ! R53   R(29,35)                1.4811         estimate D2E/DX2                !
 ! R54   R(30,31)                1.5512         estimate D2E/DX2                !
 ! R55   R(30,55)                1.202          estimate D2E/DX2                !
 ! R56   R(30,56)                1.4817         estimate D2E/DX2                !
 ! R57   R(31,32)                1.4827         estimate D2E/DX2                !
 ! R58   R(31,57)                1.3553         estimate D2E/DX2                !
 ! R59   R(31,58)                1.2276         estimate D2E/DX2                !
 ! R60   R(32,33)                1.4674         estimate D2E/DX2                !
 ! R61   R(32,34)                1.4838         estimate D2E/DX2                !
 ! R62   R(33,59)                1.0958         estimate D2E/DX2                !
 ! R63   R(33,60)                1.0961         estimate D2E/DX2                !
 ! R64   R(33,61)                1.0961         estimate D2E/DX2                !
 ! R65   R(34,35)                1.5511         estimate D2E/DX2                !
 ! R66   R(34,62)                1.2255         estimate D2E/DX2                !
 ! R67   R(34,63)                1.4635         estimate D2E/DX2                !
 ! R68   R(35,64)                1.4852         estimate D2E/DX2                !
 ! R69   R(35,65)                1.1932         estimate D2E/DX2                !
 ! R70   R(37,66)                1.0996         estimate D2E/DX2                !
 ! R71   R(37,67)                1.0937         estimate D2E/DX2                !
 ! R72   R(37,68)                1.0931         estimate D2E/DX2                !
 ! A1    A(2,1,6)              118.4063         estimate D2E/DX2                !
 ! A2    A(2,1,38)             121.2418         estimate D2E/DX2                !
 ! A3    A(6,1,38)             120.3517         estimate D2E/DX2                !
 ! A4    A(1,2,3)              120.0284         estimate D2E/DX2                !
 ! A5    A(1,2,39)             118.3508         estimate D2E/DX2                !
 ! A6    A(3,2,39)             121.6135         estimate D2E/DX2                !
 ! A7    A(2,3,4)              115.7834         estimate D2E/DX2                !
 ! A8    A(2,3,7)              123.6808         estimate D2E/DX2                !
 ! A9    A(4,3,7)              120.5358         estimate D2E/DX2                !
 ! A10   A(3,4,5)              124.9972         estimate D2E/DX2                !
 ! A11   A(3,4,40)             120.3499         estimate D2E/DX2                !
 ! A12   A(5,4,40)             114.6455         estimate D2E/DX2                !
 ! A13   A(4,5,6)              117.5475         estimate D2E/DX2                !
 ! A14   A(1,6,5)              123.2253         estimate D2E/DX2                !
 ! A15   A(1,6,41)             121.281          estimate D2E/DX2                !
 ! A16   A(5,6,41)             115.4927         estimate D2E/DX2                !
 ! A17   A(3,7,8)              124.7252         estimate D2E/DX2                !
 ! A18   A(3,7,12)             115.5642         estimate D2E/DX2                !
 ! A19   A(8,7,12)             119.7094         estimate D2E/DX2                !
 ! A20   A(7,8,9)              115.9749         estimate D2E/DX2                !
 ! A21   A(7,8,42)             124.6352         estimate D2E/DX2                !
 ! A22   A(9,8,42)             119.3858         estimate D2E/DX2                !
 ! A23   A(8,9,10)             124.1927         estimate D2E/DX2                !
 ! A24   A(8,9,43)             121.9018         estimate D2E/DX2                !
 ! A25   A(10,9,43)            113.9055         estimate D2E/DX2                !
 ! A26   A(9,10,11)            115.9134         estimate D2E/DX2                !
 ! A27   A(10,11,12)           124.487          estimate D2E/DX2                !
 ! A28   A(10,11,13)           114.6139         estimate D2E/DX2                !
 ! A29   A(12,11,13)           120.8989         estimate D2E/DX2                !
 ! A30   A(7,12,11)            119.7204         estimate D2E/DX2                !
 ! A31   A(11,13,14)           134.2454         estimate D2E/DX2                !
 ! A32   A(11,13,44)           108.8734         estimate D2E/DX2                !
 ! A33   A(14,13,44)           116.6213         estimate D2E/DX2                !
 ! A34   A(13,14,15)           118.9615         estimate D2E/DX2                !
 ! A35   A(13,14,19)           122.4228         estimate D2E/DX2                !
 ! A36   A(15,14,19)           118.6154         estimate D2E/DX2                !
 ! A37   A(14,15,16)           117.3444         estimate D2E/DX2                !
 ! A38   A(14,15,37)           123.4281         estimate D2E/DX2                !
 ! A39   A(16,15,37)           119.2268         estimate D2E/DX2                !
 ! A40   A(15,16,17)           123.8895         estimate D2E/DX2                !
 ! A41   A(15,16,45)           119.1389         estimate D2E/DX2                !
 ! A42   A(17,16,45)           116.9708         estimate D2E/DX2                !
 ! A43   A(16,17,18)           118.4143         estimate D2E/DX2                !
 ! A44   A(16,17,46)           121.3656         estimate D2E/DX2                !
 ! A45   A(18,17,46)           120.2201         estimate D2E/DX2                !
 ! A46   A(17,18,19)           118.9251         estimate D2E/DX2                !
 ! A47   A(17,18,20)           125.2269         estimate D2E/DX2                !
 ! A48   A(19,18,20)           115.835          estimate D2E/DX2                !
 ! A49   A(14,19,18)           122.8057         estimate D2E/DX2                !
 ! A50   A(14,19,47)           117.7572         estimate D2E/DX2                !
 ! A51   A(18,19,47)           119.4313         estimate D2E/DX2                !
 ! A52   A(18,20,21)           131.3286         estimate D2E/DX2                !
 ! A53   A(18,20,48)           113.6072         estimate D2E/DX2                !
 ! A54   A(21,20,48)           114.8852         estimate D2E/DX2                !
 ! A55   A(20,21,22)           118.8702         estimate D2E/DX2                !
 ! A56   A(20,21,36)           121.7912         estimate D2E/DX2                !
 ! A57   A(22,21,36)           119.3325         estimate D2E/DX2                !
 ! A58   A(21,22,23)           124.7119         estimate D2E/DX2                !
 ! A59   A(21,22,27)           116.9988         estimate D2E/DX2                !
 ! A60   A(23,22,27)           118.2839         estimate D2E/DX2                !
 ! A61   A(22,23,24)           120.6051         estimate D2E/DX2                !
 ! A62   A(22,23,49)           119.9154         estimate D2E/DX2                !
 ! A63   A(24,23,49)           119.4795         estimate D2E/DX2                !
 ! A64   A(23,24,25)           121.6153         estimate D2E/DX2                !
 ! A65   A(23,24,50)           118.6259         estimate D2E/DX2                !
 ! A66   A(25,24,50)           119.7538         estimate D2E/DX2                !
 ! A67   A(24,25,26)           117.3022         estimate D2E/DX2                !
 ! A68   A(24,25,28)           121.1655         estimate D2E/DX2                !
 ! A69   A(26,25,28)           121.4822         estimate D2E/DX2                !
 ! A70   A(25,26,27)           121.4569         estimate D2E/DX2                !
 ! A71   A(25,26,51)           119.778          estimate D2E/DX2                !
 ! A72   A(27,26,51)           118.7575         estimate D2E/DX2                !
 ! A73   A(22,27,26)           120.7236         estimate D2E/DX2                !
 ! A74   A(22,27,52)           118.8304         estimate D2E/DX2                !
 ! A75   A(26,27,52)           120.4457         estimate D2E/DX2                !
 ! A76   A(25,28,29)           119.5682         estimate D2E/DX2                !
 ! A77   A(25,28,53)           108.1804         estimate D2E/DX2                !
 ! A78   A(25,28,54)           108.2548         estimate D2E/DX2                !
 ! A79   A(29,28,53)           106.9747         estimate D2E/DX2                !
 ! A80   A(29,28,54)           106.4381         estimate D2E/DX2                !
 ! A81   A(53,28,54)           106.7767         estimate D2E/DX2                !
 ! A82   A(28,29,30)           119.2607         estimate D2E/DX2                !
 ! A83   A(28,29,35)           118.6904         estimate D2E/DX2                !
 ! A84   A(30,29,35)           110.0816         estimate D2E/DX2                !
 ! A85   A(29,30,31)           114.5854         estimate D2E/DX2                !
 ! A86   A(29,30,55)           110.4424         estimate D2E/DX2                !
 ! A87   A(29,30,56)           106.8428         estimate D2E/DX2                !
 ! A88   A(31,30,55)           110.975          estimate D2E/DX2                !
 ! A89   A(31,30,56)           107.307          estimate D2E/DX2                !
 ! A90   A(55,30,56)           106.2069         estimate D2E/DX2                !
 ! A91   A(30,31,32)           113.826          estimate D2E/DX2                !
 ! A92   A(30,31,57)           109.4623         estimate D2E/DX2                !
 ! A93   A(30,31,58)           110.4561         estimate D2E/DX2                !
 ! A94   A(32,31,57)           108.6637         estimate D2E/DX2                !
 ! A95   A(32,31,58)           107.2331         estimate D2E/DX2                !
 ! A96   A(57,31,58)           106.9482         estimate D2E/DX2                !
 ! A97   A(31,32,33)           116.6298         estimate D2E/DX2                !
 ! A98   A(31,32,34)           108.8429         estimate D2E/DX2                !
 ! A99   A(33,32,34)           116.5516         estimate D2E/DX2                !
 ! A100  A(32,33,59)           110.9739         estimate D2E/DX2                !
 ! A101  A(32,33,60)           110.1811         estimate D2E/DX2                !
 ! A102  A(32,33,61)           110.1864         estimate D2E/DX2                !
 ! A103  A(59,33,60)           108.8339         estimate D2E/DX2                !
 ! A104  A(59,33,61)           108.8096         estimate D2E/DX2                !
 ! A105  A(60,33,61)           107.7793         estimate D2E/DX2                !
 ! A106  A(32,34,35)           114.0678         estimate D2E/DX2                !
 ! A107  A(32,34,62)           109.2189         estimate D2E/DX2                !
 ! A108  A(32,34,63)           106.6234         estimate D2E/DX2                !
 ! A109  A(35,34,62)           110.6648         estimate D2E/DX2                !
 ! A110  A(35,34,63)           108.8744         estimate D2E/DX2                !
 ! A111  A(62,34,63)           107.0859         estimate D2E/DX2                !
 ! A112  A(29,35,34)           114.7435         estimate D2E/DX2                !
 ! A113  A(29,35,64)           106.9669         estimate D2E/DX2                !
 ! A114  A(29,35,65)           110.2695         estimate D2E/DX2                !
 ! A115  A(34,35,64)           107.4349         estimate D2E/DX2                !
 ! A116  A(34,35,65)           110.6168         estimate D2E/DX2                !
 ! A117  A(64,35,65)           106.3621         estimate D2E/DX2                !
 ! A118  A(15,37,66)           112.6681         estimate D2E/DX2                !
 ! A119  A(15,37,67)           111.0866         estimate D2E/DX2                !
 ! A120  A(15,37,68)           112.7429         estimate D2E/DX2                !
 ! A121  A(66,37,67)           107.1686         estimate D2E/DX2                !
 ! A122  A(66,37,68)           106.2604         estimate D2E/DX2                !
 ! A123  A(67,37,68)           106.5136         estimate D2E/DX2                !
 ! D1    D(6,1,2,3)             -0.2752         estimate D2E/DX2                !
 ! D2    D(6,1,2,39)          -179.3068         estimate D2E/DX2                !
 ! D3    D(38,1,2,3)           179.6134         estimate D2E/DX2                !
 ! D4    D(38,1,2,39)            0.5818         estimate D2E/DX2                !
 ! D5    D(2,1,6,5)             -0.4467         estimate D2E/DX2                !
 ! D6    D(2,1,6,41)           179.9397         estimate D2E/DX2                !
 ! D7    D(38,1,6,5)           179.6637         estimate D2E/DX2                !
 ! D8    D(38,1,6,41)            0.0501         estimate D2E/DX2                !
 ! D9    D(1,2,3,4)              1.0506         estimate D2E/DX2                !
 ! D10   D(1,2,3,7)           -178.9896         estimate D2E/DX2                !
 ! D11   D(39,2,3,4)          -179.9501         estimate D2E/DX2                !
 ! D12   D(39,2,3,7)             0.0097         estimate D2E/DX2                !
 ! D13   D(2,3,4,5)             -1.2791         estimate D2E/DX2                !
 ! D14   D(2,3,4,40)           177.6824         estimate D2E/DX2                !
 ! D15   D(7,3,4,5)            178.7598         estimate D2E/DX2                !
 ! D16   D(7,3,4,40)            -2.2787         estimate D2E/DX2                !
 ! D17   D(2,3,7,8)             -5.0408         estimate D2E/DX2                !
 ! D18   D(2,3,7,12)           174.5488         estimate D2E/DX2                !
 ! D19   D(4,3,7,8)            174.9171         estimate D2E/DX2                !
 ! D20   D(4,3,7,12)            -5.4932         estimate D2E/DX2                !
 ! D21   D(3,4,5,6)              0.6201         estimate D2E/DX2                !
 ! D22   D(40,4,5,6)          -178.394          estimate D2E/DX2                !
 ! D23   D(4,5,6,1)              0.2878         estimate D2E/DX2                !
 ! D24   D(4,5,6,41)           179.9219         estimate D2E/DX2                !
 ! D25   D(3,7,8,9)           -179.8989         estimate D2E/DX2                !
 ! D26   D(3,7,8,42)            -0.6404         estimate D2E/DX2                !
 ! D27   D(12,7,8,9)             0.5274         estimate D2E/DX2                !
 ! D28   D(12,7,8,42)          179.7858         estimate D2E/DX2                !
 ! D29   D(3,7,12,11)         -179.9521         estimate D2E/DX2                !
 ! D30   D(8,7,12,11)           -0.3404         estimate D2E/DX2                !
 ! D31   D(7,8,9,10)            -0.3243         estimate D2E/DX2                !
 ! D32   D(7,8,9,43)           179.6828         estimate D2E/DX2                !
 ! D33   D(42,8,9,10)         -179.6241         estimate D2E/DX2                !
 ! D34   D(42,8,9,43)            0.383          estimate D2E/DX2                !
 ! D35   D(8,9,10,11)           -0.0763         estimate D2E/DX2                !
 ! D36   D(43,9,10,11)         179.9171         estimate D2E/DX2                !
 ! D37   D(9,10,11,12)           0.3042         estimate D2E/DX2                !
 ! D38   D(9,10,11,13)        -179.4986         estimate D2E/DX2                !
 ! D39   D(10,11,12,7)          -0.0963         estimate D2E/DX2                !
 ! D40   D(13,11,12,7)         179.6949         estimate D2E/DX2                !
 ! D41   D(10,11,13,14)       -176.0731         estimate D2E/DX2                !
 ! D42   D(10,11,13,44)         -2.3396         estimate D2E/DX2                !
 ! D43   D(12,11,13,14)          4.1163         estimate D2E/DX2                !
 ! D44   D(12,11,13,44)        177.8498         estimate D2E/DX2                !
 ! D45   D(11,13,14,15)        163.1563         estimate D2E/DX2                !
 ! D46   D(11,13,14,19)        -17.0683         estimate D2E/DX2                !
 ! D47   D(44,13,14,15)        -10.2094         estimate D2E/DX2                !
 ! D48   D(44,13,14,19)        169.566          estimate D2E/DX2                !
 ! D49   D(13,14,15,16)       -179.7992         estimate D2E/DX2                !
 ! D50   D(13,14,15,37)         -0.0976         estimate D2E/DX2                !
 ! D51   D(19,14,15,16)          0.4168         estimate D2E/DX2                !
 ! D52   D(19,14,15,37)       -179.8816         estimate D2E/DX2                !
 ! D53   D(13,14,19,18)       -179.9681         estimate D2E/DX2                !
 ! D54   D(13,14,19,47)         -0.85           estimate D2E/DX2                !
 ! D55   D(15,14,19,18)         -0.192          estimate D2E/DX2                !
 ! D56   D(15,14,19,47)        178.9261         estimate D2E/DX2                !
 ! D57   D(14,15,16,17)         -0.0031         estimate D2E/DX2                !
 ! D58   D(14,15,16,45)        179.6597         estimate D2E/DX2                !
 ! D59   D(37,15,16,17)       -179.7178         estimate D2E/DX2                !
 ! D60   D(37,15,16,45)         -0.0549         estimate D2E/DX2                !
 ! D61   D(14,15,37,66)         61.2837         estimate D2E/DX2                !
 ! D62   D(14,15,37,67)        -58.9748         estimate D2E/DX2                !
 ! D63   D(14,15,37,68)       -178.4446         estimate D2E/DX2                !
 ! D64   D(16,15,37,66)       -119.02           estimate D2E/DX2                !
 ! D65   D(16,15,37,67)        120.7215         estimate D2E/DX2                !
 ! D66   D(16,15,37,68)          1.2517         estimate D2E/DX2                !
 ! D67   D(15,16,17,18)         -0.6442         estimate D2E/DX2                !
 ! D68   D(15,16,17,46)        179.3236         estimate D2E/DX2                !
 ! D69   D(45,16,17,18)        179.6862         estimate D2E/DX2                !
 ! D70   D(45,16,17,46)         -0.346          estimate D2E/DX2                !
 ! D71   D(16,17,18,19)          0.8535         estimate D2E/DX2                !
 ! D72   D(16,17,18,20)        179.4818         estimate D2E/DX2                !
 ! D73   D(46,17,18,19)       -179.1147         estimate D2E/DX2                !
 ! D74   D(46,17,18,20)         -0.4865         estimate D2E/DX2                !
 ! D75   D(17,18,19,14)         -0.4602         estimate D2E/DX2                !
 ! D76   D(17,18,19,47)       -179.5642         estimate D2E/DX2                !
 ! D77   D(20,18,19,14)       -179.2152         estimate D2E/DX2                !
 ! D78   D(20,18,19,47)          1.6808         estimate D2E/DX2                !
 ! D79   D(17,18,20,21)         -8.1828         estimate D2E/DX2                !
 ! D80   D(17,18,20,48)        177.0167         estimate D2E/DX2                !
 ! D81   D(19,18,20,21)        170.4832         estimate D2E/DX2                !
 ! D82   D(19,18,20,48)         -4.3172         estimate D2E/DX2                !
 ! D83   D(18,20,21,22)       -168.0732         estimate D2E/DX2                !
 ! D84   D(18,20,21,36)         12.8241         estimate D2E/DX2                !
 ! D85   D(48,20,21,22)          6.6746         estimate D2E/DX2                !
 ! D86   D(48,20,21,36)       -172.428          estimate D2E/DX2                !
 ! D87   D(20,21,22,23)        -24.167          estimate D2E/DX2                !
 ! D88   D(20,21,22,27)        154.9697         estimate D2E/DX2                !
 ! D89   D(36,21,22,23)        154.9581         estimate D2E/DX2                !
 ! D90   D(36,21,22,27)        -25.9052         estimate D2E/DX2                !
 ! D91   D(21,22,23,24)        177.7549         estimate D2E/DX2                !
 ! D92   D(21,22,23,49)         -2.3116         estimate D2E/DX2                !
 ! D93   D(27,22,23,24)         -1.3716         estimate D2E/DX2                !
 ! D94   D(27,22,23,49)        178.5619         estimate D2E/DX2                !
 ! D95   D(21,22,27,26)       -178.3938         estimate D2E/DX2                !
 ! D96   D(21,22,27,52)          1.8302         estimate D2E/DX2                !
 ! D97   D(23,22,27,26)          0.8003         estimate D2E/DX2                !
 ! D98   D(23,22,27,52)       -178.9757         estimate D2E/DX2                !
 ! D99   D(22,23,24,25)          1.1928         estimate D2E/DX2                !
 ! D100  D(22,23,24,50)       -179.6188         estimate D2E/DX2                !
 ! D101  D(49,23,24,25)       -178.741          estimate D2E/DX2                !
 ! D102  D(49,23,24,50)          0.4474         estimate D2E/DX2                !
 ! D103  D(23,24,25,26)         -0.3901         estimate D2E/DX2                !
 ! D104  D(23,24,25,28)        177.0716         estimate D2E/DX2                !
 ! D105  D(50,24,25,26)       -179.5695         estimate D2E/DX2                !
 ! D106  D(50,24,25,28)         -2.1078         estimate D2E/DX2                !
 ! D107  D(24,25,26,27)         -0.1901         estimate D2E/DX2                !
 ! D108  D(24,25,26,51)        178.7948         estimate D2E/DX2                !
 ! D109  D(28,25,26,27)       -177.6433         estimate D2E/DX2                !
 ! D110  D(28,25,26,51)          1.3416         estimate D2E/DX2                !
 ! D111  D(24,25,28,29)        -82.9846         estimate D2E/DX2                !
 ! D112  D(24,25,28,53)         39.6731         estimate D2E/DX2                !
 ! D113  D(24,25,28,54)        155.0285         estimate D2E/DX2                !
 ! D114  D(26,25,28,29)         94.3705         estimate D2E/DX2                !
 ! D115  D(26,25,28,53)       -142.9718         estimate D2E/DX2                !
 ! D116  D(26,25,28,54)        -27.6165         estimate D2E/DX2                !
 ! D117  D(25,26,27,22)         -0.0253         estimate D2E/DX2                !
 ! D118  D(25,26,27,52)        179.7471         estimate D2E/DX2                !
 ! D119  D(51,26,27,22)       -179.0203         estimate D2E/DX2                !
 ! D120  D(51,26,27,52)          0.7521         estimate D2E/DX2                !
 ! D121  D(25,28,29,30)         74.5973         estimate D2E/DX2                !
 ! D122  D(25,28,29,35)        -64.4523         estimate D2E/DX2                !
 ! D123  D(53,28,29,30)        -48.6496         estimate D2E/DX2                !
 ! D124  D(53,28,29,35)        172.3008         estimate D2E/DX2                !
 ! D125  D(54,28,29,30)       -162.5227         estimate D2E/DX2                !
 ! D126  D(54,28,29,35)         58.4277         estimate D2E/DX2                !
 ! D127  D(28,29,30,31)        -93.7684         estimate D2E/DX2                !
 ! D128  D(28,29,30,55)         32.4342         estimate D2E/DX2                !
 ! D129  D(28,29,30,56)        147.5252         estimate D2E/DX2                !
 ! D130  D(35,29,30,31)         48.486          estimate D2E/DX2                !
 ! D131  D(35,29,30,55)        174.6887         estimate D2E/DX2                !
 ! D132  D(35,29,30,56)        -70.2204         estimate D2E/DX2                !
 ! D133  D(28,29,35,34)         94.502          estimate D2E/DX2                !
 ! D134  D(28,29,35,64)       -146.4505         estimate D2E/DX2                !
 ! D135  D(28,29,35,65)        -31.1956         estimate D2E/DX2                !
 ! D136  D(30,29,35,34)        -47.9959         estimate D2E/DX2                !
 ! D137  D(30,29,35,64)         71.0516         estimate D2E/DX2                !
 ! D138  D(30,29,35,65)       -173.6935         estimate D2E/DX2                !
 ! D139  D(29,30,31,32)        -53.2115         estimate D2E/DX2                !
 ! D140  D(29,30,31,57)       -175.0196         estimate D2E/DX2                !
 ! D141  D(29,30,31,58)         67.4774         estimate D2E/DX2                !
 ! D142  D(55,30,31,32)       -179.1376         estimate D2E/DX2                !
 ! D143  D(55,30,31,57)         59.0543         estimate D2E/DX2                !
 ! D144  D(55,30,31,58)        -58.4487         estimate D2E/DX2                !
 ! D145  D(56,30,31,32)         65.2332         estimate D2E/DX2                !
 ! D146  D(56,30,31,57)        -56.5749         estimate D2E/DX2                !
 ! D147  D(56,30,31,58)       -174.0779         estimate D2E/DX2                !
 ! D148  D(30,31,32,33)        -81.8875         estimate D2E/DX2                !
 ! D149  D(30,31,32,34)         52.4978         estimate D2E/DX2                !
 ! D150  D(57,31,32,33)         40.3618         estimate D2E/DX2                !
 ! D151  D(57,31,32,34)        174.747          estimate D2E/DX2                !
 ! D152  D(58,31,32,33)        155.6341         estimate D2E/DX2                !
 ! D153  D(58,31,32,34)        -69.9806         estimate D2E/DX2                !
 ! D154  D(31,32,33,59)         65.3133         estimate D2E/DX2                !
 ! D155  D(31,32,33,60)        -55.3004         estimate D2E/DX2                !
 ! D156  D(31,32,33,61)       -174.1001         estimate D2E/DX2                !
 ! D157  D(34,32,33,59)        -65.5654         estimate D2E/DX2                !
 ! D158  D(34,32,33,60)        173.8209         estimate D2E/DX2                !
 ! D159  D(34,32,33,61)         55.0212         estimate D2E/DX2                !
 ! D160  D(31,32,34,35)        -52.0517         estimate D2E/DX2                !
 ! D161  D(31,32,34,62)       -176.4552         estimate D2E/DX2                !
 ! D162  D(31,32,34,63)         68.1536         estimate D2E/DX2                !
 ! D163  D(33,32,34,35)         82.3735         estimate D2E/DX2                !
 ! D164  D(33,32,34,62)        -42.03           estimate D2E/DX2                !
 ! D165  D(33,32,34,63)       -157.4212         estimate D2E/DX2                !
 ! D166  D(32,34,35,29)         52.1966         estimate D2E/DX2                !
 ! D167  D(32,34,35,64)        -66.5887         estimate D2E/DX2                !
 ! D168  D(32,34,35,65)        177.7135         estimate D2E/DX2                !
 ! D169  D(62,34,35,29)        175.8228         estimate D2E/DX2                !
 ! D170  D(62,34,35,64)         57.0375         estimate D2E/DX2                !
 ! D171  D(62,34,35,65)        -58.6604         estimate D2E/DX2                !
 ! D172  D(63,34,35,29)        -66.7387         estimate D2E/DX2                !
 ! D173  D(63,34,35,64)        174.4761         estimate D2E/DX2                !
 ! D174  D(63,34,35,65)         58.7782         estimate D2E/DX2                !
 --------------------------------------------------------------------------------
 Trust Radius=3.00D-01 FncErr=1.00D-07 GrdErr=1.00D-06
 Number of steps in this run= 400 maximum allowed number of steps= 408.
 GradGradGradGradGradGradGradGradGradGradGradGradGradGradGradGradGradGrad

 Leave Link  103 at Wed Apr  8 22:20:33 2020, MaxMem= 2684354560 cpu:       0.1
 (Enter /opt/g09gh/gaussian/g09/l202.exe)
 Stoichiometry    C29H31N7O
 Framework group  C1[X(C29H31N7O)]
 Deg. of freedom   198
 Full point group                 C1      NOp   1
 Largest Abelian subgroup         C1      NOp   1
 Largest concise Abelian subgroup C1      NOp   1
                         Standard orientation:                         
 ---------------------------------------------------------------------
 Center     Atomic      Atomic             Coordinates (Angstroms)
 Number     Number       Type             X           Y           Z
 ---------------------------------------------------------------------
      1          6           0        2.172686    5.208769   -0.457566
      2          6           0        3.359969    4.537111   -0.138233
      3          6           0        3.398211    3.128442   -0.149350
      4          6           0        2.193228    2.482430   -0.518199
      5          7           0        1.049035    3.107394   -0.823115
      6          6           0        1.046212    4.448293   -0.788246
      7          6           0        4.623744    2.322119    0.201501
      8          6           0        5.888573    2.867974    0.479699
      9          6           0        6.899317    1.949288    0.782214
     10          7           0        6.723730    0.631316    0.823550
     11          6           0        5.477161    0.193978    0.551904
     12          7           0        4.447564    0.986930    0.248397
     13          7           0        5.322347   -1.178543    0.613017
     14          6           0        4.233031   -2.079906    0.340116
     15          6           0        4.513295   -3.468977    0.159418
     16          6           0        3.426672   -4.316505   -0.109273
     17          6           0        2.101854   -3.878693   -0.208032
     18          6           0        1.833943   -2.518720   -0.016121
     19          6           0        2.903322   -1.645996    0.249198
     20          7           0        0.536015   -1.911753   -0.094041
     21          6           0       -0.680610   -2.415010   -0.498377
     22          6           0       -1.832412   -1.452003   -0.729576
     23          6           0       -1.947217   -0.184176   -0.134455
     24          6           0       -3.022190    0.652199   -0.444377
     25          6           0       -4.034769    0.252366   -1.336141
     26          6           0       -3.918553   -1.026310   -1.913934
     27          6           0       -2.840655   -1.864442   -1.618754
     28          6           0       -5.241849    1.149737   -1.617550
     29          7           0       -6.388155    1.137261   -0.692657
     30          6           0       -6.266665    1.812416    0.619826
     31          6           0       -5.826735    0.886217    1.783743
     32          7           0       -6.665504   -0.327297    1.933358
     33          6           0       -7.927441   -0.168475    2.665140
     34          6           0       -6.740702   -1.022255    0.624497
     35          6           0       -7.174919   -0.109721   -0.552197
     36          8           0       -0.860315   -3.612638   -0.659385
     37          6           0        5.912443   -4.058007    0.237354
     38          1           0        2.119390    6.293349   -0.449129
     39          1           0        4.231728    5.128737    0.129758
     40          1           0        2.150269    1.400454   -0.587768
     41          1           0        0.099405    4.921709   -1.043116
     42          1           0        6.119860    3.925806    0.461967
     43          1           0        7.917090    2.266474    1.008015
     44          1           0        6.215671   -1.598776    0.820275
     45          1           0        3.607779   -5.380317   -0.257646
     46          1           0        1.295872   -4.567065   -0.427747
     47          1           0        2.705444   -0.597888    0.405367
     48          1           0        0.537316   -0.925846    0.121486
     49          1           0       -1.195766    0.151587    0.574296
     50          1           0       -3.075994    1.631375    0.031271
     51          1           0       -4.690087   -1.384620   -2.594853
     52          1           0       -2.769426   -2.850604   -2.071328
     53          1           0       -4.889727    2.189158   -1.678145
     54          1           0       -5.639479    0.891080   -2.609297
     55          1           0       -5.543948    2.769081    0.534512
     56          1           0       -7.610089    2.337884    0.958301
     57          1           0       -5.855301    1.579419    2.947951
     58          1           0       -4.669657    0.510552    1.619235
     59          1           0       -8.614417    0.491547    2.123715
     60          1           0       -7.738044    0.255623    3.657960
     61          1           0       -8.409442   -1.143055    2.803894
     62          1           0       -7.489686   -1.987283    0.722585
     63          1           0       -5.401194   -1.543771    0.349812
     64          1           0       -8.583730    0.291912   -0.307460
     65          1           0       -7.172283   -0.717982   -1.578696
     66          1           0        6.378668   -3.913780    1.222683
     67          1           0        6.574124   -3.599691   -0.503079
     68          1           0        5.929281   -5.133989    0.045324
 ---------------------------------------------------------------------
 Rotational constants (GHZ):      0.1428480      0.0459853      0.0371824
 Leave Link  202 at Wed Apr  8 22:20:33 2020, MaxMem= 2684354560 cpu:       0.1
 (Enter /opt/g09gh/gaussian/g09/l301.exe)
 Standard basis: 6-31G(d) (6D, 7F)
 Ernie: Thresh=  0.10000D-02 Tol=  0.10000D-05 Strict=F.
 There are   617 symmetry adapted basis functions of A   symmetry.
 Integral buffers will be    131072 words long.
 Raffenetti 2 integral format.
 Two-electron integral symmetry is turned on.
   617 basis functions,  1160 primitive gaussians,   617 cartesian basis functions
   131 alpha electrons      131 beta electrons
       nuclear repulsion energy      3656.8515343968 Hartrees.
 IExCor= 4639 DFT=T Ex+Corr=wB97XD ExCW=0 ScaHFX=  1.000000
 ScaDFX=  1.000000  1.000000  1.000000  1.000000 ScalE2=  1.000000  1.000000
 IRadAn=      0 IRanWt=     -1 IRanGd=            0 ICorTp=0
  HFx wShort=  0.000000 wLong=  0.200000 cFull=  0.222036 cShort=  0.000000 cLong=  0.777964
  DFx wShort=  0.000000 wLong=  0.200000 cFull=  0.000000 cShort=  0.000000 cLong=  1.000000
 NAtoms=   68 NActive=   68 NUniq=   68 SFac= 7.50D-01 NAtFMM=   80 NAOKFM=F Big=T
 R6Disp: Dispersion energy =        -0.0558259131 Hartrees.
 Nuclear repulsion after empirical dispersion term =     3656.7957084837 Hartrees.
 Leave Link  301 at Wed Apr  8 22:20:33 2020, MaxMem= 2684354560 cpu:       0.3
 (Enter /opt/g09gh/gaussian/g09/l302.exe)
 NPDir=0 NMtPBC=     1 NCelOv=     1 NCel=       1 NClECP=     1 NCelD=      1
         NCelK=      1 NCelE2=     1 NClLst=     1 CellRange=     0.0.
 One-electron integrals computed using PRISM.
 NBasis=   617 RedAO= T  NBF=   617
 NBsUse=   617 1.00D-06 NBFU=   617
 Precomputing XC quadrature grid using
 IXCGrd= 2 IRadAn=           0 IRanWt=          -1 IRanGd=           0 AccXCQ= 1.00D-10.
 NRdTot=    4399 NPtTot=      562882 NUsed=      594572 NTot=      594604
 NSgBfM=   601   601   601   601   601 NAtAll=    68    68.
 Leave Link  302 at Wed Apr  8 22:20:35 2020, MaxMem= 2684354560 cpu:       7.3
 (Enter /opt/g09gh/gaussian/g09/l303.exe)
 DipDrv:  MaxL=1.
 Leave Link  303 at Wed Apr  8 22:20:35 2020, MaxMem= 2684354560 cpu:       0.7
 (Enter /opt/g09gh/gaussian/g09/l401.exe)
 Harris functional with IExCor= 4639 diagonalized for initial guess.
 ExpMin= 1.61D-01 ExpMax= 5.48D+03 ExpMxC= 8.25D+02 IAcc=1 IRadAn=         1 AccDes= 0.00D+00
 HarFok:  IExCor= 4639 AccDes= 0.00D+00 IRadAn=         1 IDoV= 1
 ScaDFX=  1.000000  1.000000  1.000000  1.000000
 FoFCou: FMM=F IPFlag=           0 FMFlag=      100000 FMFlg1=           1
         NFxFlg=           0 DoJE=T BraDBF=F KetDBF=T FulRan=T
         Omega=  0.000000  0.000000  1.000000  0.000000  0.000000 ICntrl=     500 IOpCl=  0
         NMat0=    1 NMatS0=    1 NMatT0=    0 NMatD0=    1 NMtDS0=    0 NMtDT0=    0
         I1Cent=           4 NGrid=           0.
 Petite list used in FoFCou.
 Harris En= -1512.43624419724    
 Initial guess orbital symmetries:
       Occupied  (A) (A) (A) (A) (A) (A) (A) (A) (A) (A) (A) (A)
                 (A) (A) (A) (A) (A) (A) (A) (A) (A) (A) (A) (A)
                 (A) (A) (A) (A) (A) (A) (A) (A) (A) (A) (A) (A)
                 (A) (A) (A) (A) (A) (A) (A) (A) (A) (A) (A) (A)
                 (A) (A) (A) (A) (A) (A) (A) (A) (A) (A) (A) (A)
                 (A) (A) (A) (A) (A) (A) (A) (A) (A) (A) (A) (A)
                 (A) (A) (A) (A) (A) (A) (A) (A) (A) (A) (A) (A)
                 (A) (A) (A) (A) (A) (A) (A) (A) (A) (A) (A) (A)
                 (A) (A) (A) (A) (A) (A) (A) (A) (A) (A) (A) (A)
                 (A) (A) (A) (A) (A) (A) (A) (A) (A) (A) (A) (A)
                 (A) (A) (A) (A) (A) (A) (A) (A) (A) (A) (A)
       Virtual   (A) (A) (A) (A) (A) (A) (A) (A) (A) (A) (A) (A)
                 (A) (A) (A) (A) (A) (A) (A) (A) (A) (A) (A) (A)
                 (A) (A) (A) (A) (A) (A) (A) (A) (A) (A) (A) (A)
                 (A) (A) (A) (A) (A) (A) (A) (A) (A) (A) (A) (A)
                 (A) (A) (A) (A) (A) (A) (A) (A) (A) (A) (A) (A)
                 (A) (A) (A) (A) (A) (A) (A) (A) (A) (A) (A) (A)
                 (A) (A) (A) (A) (A) (A) (A) (A) (A) (A) (A) (A)
                 (A) (A) (A) (A) (A) (A) (A) (A) (A) (A) (A) (A)
                 (A) (A) (A) (A) (A) (A) (A) (A) (A) (A) (A) (A)
                 (A) (A) (A) (A) (A) (A) (A) (A) (A) (A) (A) (A)
                 (A) (A) (A) (A) (A) (A) (A) (A) (A) (A) (A) (A)
                 (A) (A) (A) (A) (A) (A) (A) (A) (A) (A) (A) (A)
                 (A) (A) (A) (A) (A) (A) (A) (A) (A) (A) (A) (A)
                 (A) (A) (A) (A) (A) (A) (A) (A) (A) (A) (A) (A)
                 (A) (A) (A) (A) (A) (A) (A) (A) (A) (A) (A) (A)
                 (A) (A) (A) (A) (A) (A) (A) (A) (A) (A) (A) (A)
                 (A) (A) (A) (A) (A) (A) (A) (A) (A) (A) (A) (A)
                 (A) (A) (A) (A) (A) (A) (A) (A) (A) (A) (A) (A)
                 (A) (A) (A) (A) (A) (A) (A) (A) (A) (A) (A) (A)
                 (A) (A) (A) (A) (A) (A) (A) (A) (A) (A) (A) (A)
                 (A) (A) (A) (A) (A) (A) (A) (A) (A) (A) (A) (A)
                 (A) (A) (A) (A) (A) (A) (A) (A) (A) (A) (A) (A)
                 (A) (A) (A) (A) (A) (A) (A) (A) (A) (A) (A) (A)
                 (A) (A) (A) (A) (A) (A) (A) (A) (A) (A) (A) (A)
                 (A) (A) (A) (A) (A) (A) (A) (A) (A) (A) (A) (A)
                 (A) (A) (A) (A) (A) (A) (A) (A) (A) (A) (A) (A)
                 (A) (A) (A) (A) (A) (A) (A) (A) (A) (A) (A) (A)
                 (A) (A) (A) (A) (A) (A) (A) (A) (A) (A) (A) (A)
                 (A) (A) (A) (A) (A) (A) (A) (A) (A) (A) (A) (A)
                 (A) (A) (A) (A) (A) (A) (A) (A) (A) (A) (A) (A)
                 (A) (A) (A) (A) (A) (A) (A) (A) (A) (A) (A) (A)
                 (A) (A) (A) (A) (A) (A) (A) (A) (A) (A) (A) (A)
                 (A) (A) (A) (A) (A) (A) (A) (A) (A) (A) (A) (A)
                 (A) (A) (A) (A) (A) (A) (A) (A) (A) (A) (A) (A)
                 (A) (A) (A) (A) (A) (A) (A) (A) (A) (A) (A) (A)
                 (A) (A) (A) (A) (A) (A) (A) (A) (A) (A) (A) (A)
                 (A) (A) (A) (A) (A) (A) (A) (A) (A) (A) (A) (A)
                 (A) (A) (A) (A) (A) (A) (A) (A) (A) (A) (A) (A)
                 (A) (A) (A) (A) (A) (A) (A) (A) (A) (A) (A) (A)
                 (A) (A) (A) (A) (A) (A) (A) (A) (A) (A) (A) (A)
                 (A) (A) (A) (A) (A) (A)
 The electronic state of the initial guess is 1-A.
 Leave Link  401 at Wed Apr  8 22:20:37 2020, MaxMem= 2684354560 cpu:      14.4
 (Enter /opt/g09gh/gaussian/g09/l502.exe)
 Closed shell SCF:
 Requested convergence on RMS density matrix=1.00D-08 within 128 cycles.
 Requested convergence on MAX density matrix=1.00D-06.
 Requested convergence on             energy=1.00D-06.
 No special actions if energy rises.
 Using DIIS extrapolation, IDIIS=  1040.
 Integral symmetry usage will be decided dynamically.
       593947 words used for storage of precomputed grid.
 IEnd=     1762527 IEndB=     1762527 NGot=  2684354560 MDV=  2682989980
 LenX=  2682989980 LenY=  2682608674
 Fock matrices will be formed incrementally for  20 cycles.
 Integral accuracy reduced to 1.0D-05 until final iterations.

 Cycle   1  Pass 0  IDiag  1:
 FoFJK:  IHMeth= 1 ICntrl=     0 DoSepK=T KAlg= 1 I1Cent= 0 FoldK=F
 FoFCou: FMM=T IPFlag=           0 FMFlag=      100000 FMFlg1=           1
         NFxFlg=           0 DoJE=T BraDBF=F KetDBF=F FulRan=T
         Omega=  0.000000  0.000000  1.000000  0.000000  0.000000 ICntrl=     500 IOpCl=  0
         NMat0=    1 NMatS0=    1 NMatT0=    0 NMatD0=    1 NMtDS0=    0 NMtDT0=    0
         I1Cent=           0 NGrid=           0.
 Symmetry not used in FoFCou.
 FMM levels:  10  Number of levels for PrismC:   9
 E= -1581.19384072181    
 DIIS: error= 7.39D-02 at cycle   1 NSaved=   1.
 NSaved= 1 IEnMin= 1 EnMin= -1581.19384072181     IErMin= 1 ErrMin= 7.39D-02
 ErrMax= 7.39D-02 EMaxC= 1.00D-01 BMatC= 1.46D+00 BMatP= 1.46D+00
 IDIUse=3 WtCom= 2.61D-01 WtEn= 7.39D-01
 Coeff-Com:  0.100D+01
 Coeff-En:   0.100D+01
 Coeff:      0.100D+01
 Gap=     0.267 Goal=   None    Shift=    0.000
 GapD=    0.267 DampG=1.000 DampE=0.500 DampFc=0.5000 IDamp=-1.
 Damping current iteration by 5.00D-01
 RMSDP=1.88D-03 MaxDP=9.00D-02              OVMax= 1.73D-01

 Cycle   2  Pass 0  IDiag  1:
 RMSU=  6.64D-04    CP:  1.00D+00
 FoFJK:  IHMeth= 1 ICntrl=     0 DoSepK=T KAlg= 1 I1Cent= 0 FoldK=F
 E= -1581.36965639856     Delta-E=       -0.175815676750 Rises=F Damp=T
 DIIS: error= 3.80D-02 at cycle   2 NSaved=   2.
 NSaved= 2 IEnMin= 2 EnMin= -1581.36965639856     IErMin= 2 ErrMin= 3.80D-02
 ErrMax= 3.80D-02 EMaxC= 1.00D-01 BMatC= 3.23D-01 BMatP= 1.46D+00
 IDIUse=3 WtCom= 6.20D-01 WtEn= 3.80D-01
 Coeff-Com: -0.657D+00 0.166D+01
 Coeff-En:   0.000D+00 0.100D+01
 Coeff:     -0.407D+00 0.141D+01
 Gap=     0.280 Goal=   None    Shift=    0.000
 RMSDP=8.56D-04 MaxDP=3.91D-02 DE=-1.76D-01 OVMax= 1.18D-01

 Cycle   3  Pass 0  IDiag  1:
 RMSU=  5.42D-04    CP:  1.00D+00  1.41D+00
 FoFJK:  IHMeth= 1 ICntrl=     0 DoSepK=T KAlg= 1 I1Cent= 0 FoldK=F
 E= -1581.51045641435     Delta-E=       -0.140800015789 Rises=F Damp=F
 DIIS: error= 7.05D-03 at cycle   3 NSaved=   3.
 NSaved= 3 IEnMin= 3 EnMin= -1581.51045641435     IErMin= 3 ErrMin= 7.05D-03
 ErrMax= 7.05D-03 EMaxC= 1.00D-01 BMatC= 4.96D-02 BMatP= 3.23D-01
 IDIUse=3 WtCom= 9.29D-01 WtEn= 7.05D-02
 Coeff-Com: -0.339D+00 0.701D+00 0.637D+00
 Coeff-En:   0.000D+00 0.000D+00 0.100D+01
 Coeff:     -0.315D+00 0.652D+00 0.663D+00
 Gap=     0.259 Goal=   None    Shift=    0.000
 RMSDP=4.24D-04 MaxDP=2.85D-02 DE=-1.41D-01 OVMax= 5.78D-02

 Cycle   4  Pass 0  IDiag  1:
 RMSU=  1.39D-04    CP:  1.00D+00  1.66D+00  6.27D-01
 FoFJK:  IHMeth= 1 ICntrl=     0 DoSepK=T KAlg= 1 I1Cent= 0 FoldK=F
 E= -1581.55450661746     Delta-E=       -0.044050203109 Rises=F Damp=F
 DIIS: error= 2.21D-03 at cycle   4 NSaved=   4.
 NSaved= 4 IEnMin= 4 EnMin= -1581.55450661746     IErMin= 4 ErrMin= 2.21D-03
 ErrMax= 2.21D-03 EMaxC= 1.00D-01 BMatC= 3.35D-03 BMatP= 4.96D-02
 IDIUse=3 WtCom= 9.78D-01 WtEn= 2.21D-02
 Coeff-Com: -0.151D+00 0.309D+00 0.355D+00 0.488D+00
 Coeff-En:   0.000D+00 0.000D+00 0.000D+00 0.100D+01
 Coeff:     -0.148D+00 0.302D+00 0.347D+00 0.499D+00
 Gap=     0.254 Goal=   None    Shift=    0.000
 RMSDP=9.89D-05 MaxDP=9.15D-03 DE=-4.41D-02 OVMax= 9.85D-03

 Cycle   5  Pass 0  IDiag  1:
 RMSU=  4.63D-05    CP:  1.00D+00  1.65D+00  6.89D-01  7.19D-01
 FoFJK:  IHMeth= 1 ICntrl=     0 DoSepK=T KAlg= 1 I1Cent= 0 FoldK=F
 E= -1581.55738102412     Delta-E=       -0.002874406657 Rises=F Damp=F
 DIIS: error= 4.58D-04 at cycle   5 NSaved=   5.
 NSaved= 5 IEnMin= 5 EnMin= -1581.55738102412     IErMin= 5 ErrMin= 4.58D-04
 ErrMax= 4.58D-04 EMaxC= 1.00D-01 BMatC= 8.82D-05 BMatP= 3.35D-03
 IDIUse=3 WtCom= 9.95D-01 WtEn= 4.58D-03
 Coeff-Com: -0.147D-01 0.291D-01 0.554D-01 0.160D+00 0.770D+00
 Coeff-En:   0.000D+00 0.000D+00 0.000D+00 0.000D+00 0.100D+01
 Coeff:     -0.146D-01 0.289D-01 0.551D-01 0.159D+00 0.771D+00
 Gap=     0.253 Goal=   None    Shift=    0.000
 RMSDP=2.37D-05 MaxDP=2.54D-03 DE=-2.87D-03 OVMax= 2.83D-03

 Cycle   6  Pass 0  IDiag  1:
 RMSU=  1.29D-05    CP:  1.00D+00  1.66D+00  6.96D-01  7.86D-01  9.87D-01
 FoFJK:  IHMeth= 1 ICntrl=     0 DoSepK=T KAlg= 1 I1Cent= 0 FoldK=F
 E= -1581.55746791484     Delta-E=       -0.000086890722 Rises=F Damp=F
 DIIS: error= 2.87D-04 at cycle   6 NSaved=   6.
 NSaved= 6 IEnMin= 6 EnMin= -1581.55746791484     IErMin= 6 ErrMin= 2.87D-04
 ErrMax= 2.87D-04 EMaxC= 1.00D-01 BMatC= 2.57D-05 BMatP= 8.82D-05
 IDIUse=3 WtCom= 9.97D-01 WtEn= 2.87D-03
 Coeff-Com:  0.218D-01-0.451D-01-0.380D-01-0.164D-01 0.389D+00 0.688D+00
 Coeff-En:   0.000D+00 0.000D+00 0.000D+00 0.000D+00 0.000D+00 0.100D+01
 Coeff:      0.217D-01-0.450D-01-0.379D-01-0.163D-01 0.388D+00 0.689D+00
 Gap=     0.254 Goal=   None    Shift=    0.000
 RMSDP=1.30D-05 MaxDP=7.82D-04 DE=-8.69D-05 OVMax= 1.67D-03

 Cycle   7  Pass 0  IDiag  1:
 RMSU=  5.57D-06    CP:  1.00D+00  1.66D+00  7.00D-01  8.13D-01  1.11D+00
                    CP:  8.99D-01
 FoFJK:  IHMeth= 1 ICntrl=     0 DoSepK=T KAlg= 1 I1Cent= 0 FoldK=F
 E= -1581.55749695951     Delta-E=       -0.000029044670 Rises=F Damp=F
 DIIS: error= 5.74D-05 at cycle   7 NSaved=   7.
 NSaved= 7 IEnMin= 7 EnMin= -1581.55749695951     IErMin= 7 ErrMin= 5.74D-05
 ErrMax= 5.74D-05 EMaxC= 1.00D-01 BMatC= 1.62D-06 BMatP= 2.57D-05
 IDIUse=1 WtCom= 1.00D+00 WtEn= 0.00D+00
 Coeff-Com:  0.905D-02-0.185D-01-0.177D-01-0.212D-01 0.641D-01 0.237D+00
 Coeff-Com:  0.747D+00
 Coeff:      0.905D-02-0.185D-01-0.177D-01-0.212D-01 0.641D-01 0.237D+00
 Coeff:      0.747D+00
 Gap=     0.254 Goal=   None    Shift=    0.000
 RMSDP=4.07D-06 MaxDP=2.56D-04 DE=-2.90D-05 OVMax= 6.41D-04

 Initial convergence to 1.0D-05 achieved.  Increase integral accuracy.
 Cycle   8  Pass 1  IDiag  1:
 FoFJK:  IHMeth= 1 ICntrl=     0 DoSepK=T KAlg= 1 I1Cent= 0 FoldK=F
 E= -1581.55556338836     Delta-E=        0.001933571148 Rises=F Damp=F
 DIIS: error= 1.12D-04 at cycle   1 NSaved=   1.
 NSaved= 1 IEnMin= 1 EnMin= -1581.55556338836     IErMin= 1 ErrMin= 1.12D-04
 ErrMax= 1.12D-04 EMaxC= 1.00D-01 BMatC= 1.35D-05 BMatP= 1.35D-05
 IDIUse=3 WtCom= 9.99D-01 WtEn= 1.12D-03
 Coeff-Com:  0.100D+01
 Coeff-En:   0.100D+01
 Coeff:      0.100D+01
 Gap=     0.254 Goal=   None    Shift=    0.000
 RMSDP=4.07D-06 MaxDP=2.56D-04 DE= 1.93D-03 OVMax= 3.76D-04

 Cycle   9  Pass 1  IDiag  1:
 RMSU=  1.71D-05    CP:  1.00D+00
 FoFJK:  IHMeth= 1 ICntrl=     0 DoSepK=T KAlg= 1 I1Cent= 0 FoldK=F
 E= -1581.55557409306     Delta-E=       -0.000010704703 Rises=F Damp=F
 DIIS: error= 3.13D-05 at cycle   2 NSaved=   2.
 NSaved= 2 IEnMin= 2 EnMin= -1581.55557409306     IErMin= 2 ErrMin= 3.13D-05
 ErrMax= 3.13D-05 EMaxC= 1.00D-01 BMatC= 7.66D-07 BMatP= 1.35D-05
 IDIUse=1 WtCom= 1.00D+00 WtEn= 0.00D+00
 Coeff-Com:  0.323D-01 0.968D+00
 Coeff:      0.323D-01 0.968D+00
 Gap=     0.254 Goal=   None    Shift=    0.000
 RMSDP=3.16D-06 MaxDP=2.11D-04 DE=-1.07D-05 OVMax= 3.02D-04

 Cycle  10  Pass 1  IDiag  1:
 RMSU=  2.08D-06    CP:  1.00D+00  1.05D+00
 FoFJK:  IHMeth= 1 ICntrl=     0 DoSepK=T KAlg= 1 I1Cent= 0 FoldK=F
 E= -1581.55557419407     Delta-E=       -0.000000101008 Rises=F Damp=F
 DIIS: error= 3.42D-05 at cycle   3 NSaved=   3.
 NSaved= 3 IEnMin= 3 EnMin= -1581.55557419407     IErMin= 2 ErrMin= 3.13D-05
 ErrMax= 3.42D-05 EMaxC= 1.00D-01 BMatC= 8.72D-07 BMatP= 7.66D-07
 IDIUse=1 WtCom= 1.00D+00 WtEn= 0.00D+00
 Coeff-Com: -0.396D-01 0.532D+00 0.508D+00
 Coeff:     -0.396D-01 0.532D+00 0.508D+00
 Gap=     0.254 Goal=   None    Shift=    0.000
 RMSDP=1.52D-06 MaxDP=1.36D-04 DE=-1.01D-07 OVMax= 1.49D-04

 Cycle  11  Pass 1  IDiag  1:
 RMSU=  6.14D-07    CP:  1.00D+00  1.06D+00  5.83D-01
 FoFJK:  IHMeth= 1 ICntrl=     0 DoSepK=T KAlg= 1 I1Cent= 0 FoldK=F
 E= -1581.55557494811     Delta-E=       -0.000000754038 Rises=F Damp=F
 DIIS: error= 7.72D-06 at cycle   4 NSaved=   4.
 NSaved= 4 IEnMin= 4 EnMin= -1581.55557494811     IErMin= 4 ErrMin= 7.72D-06
 ErrMax= 7.72D-06 EMaxC= 1.00D-01 BMatC= 2.41D-08 BMatP= 7.66D-07
 IDIUse=1 WtCom= 1.00D+00 WtEn= 0.00D+00
 Coeff-Com: -0.175D-01 0.135D+00 0.187D+00 0.696D+00
 Coeff:     -0.175D-01 0.135D+00 0.187D+00 0.696D+00
 Gap=     0.254 Goal=   None    Shift=    0.000
 RMSDP=3.49D-07 MaxDP=3.62D-05 DE=-7.54D-07 OVMax= 3.46D-05

 Cycle  12  Pass 1  IDiag  1:
 RMSU=  2.19D-07    CP:  1.00D+00  1.06D+00  6.36D-01  1.02D+00
 FoFJK:  IHMeth= 1 ICntrl=     0 DoSepK=T KAlg= 1 I1Cent= 0 FoldK=F
 E= -1581.55557497074     Delta-E=       -0.000000022634 Rises=F Damp=F
 DIIS: error= 3.44D-06 at cycle   5 NSaved=   5.
 NSaved= 5 IEnMin= 5 EnMin= -1581.55557497074     IErMin= 5 ErrMin= 3.44D-06
 ErrMax= 3.44D-06 EMaxC= 1.00D-01 BMatC= 4.85D-09 BMatP= 2.41D-08
 IDIUse=1 WtCom= 1.00D+00 WtEn= 0.00D+00
 Coeff-Com: -0.169D-03-0.358D-01-0.906D-02 0.306D+00 0.739D+00
 Coeff:     -0.169D-03-0.358D-01-0.906D-02 0.306D+00 0.739D+00
 Gap=     0.254 Goal=   None    Shift=    0.000
 RMSDP=1.81D-07 MaxDP=1.29D-05 DE=-2.26D-08 OVMax= 2.49D-05

 Cycle  13  Pass 1  IDiag  1:
 RMSU=  8.53D-08    CP:  1.00D+00  1.06D+00  6.52D-01  1.16D+00  9.28D-01
 FoFJK:  IHMeth= 1 ICntrl=     0 DoSepK=T KAlg= 1 I1Cent= 0 FoldK=F
 E= -1581.55557497726     Delta-E=       -0.000000006517 Rises=F Damp=F
 DIIS: error= 7.78D-07 at cycle   6 NSaved=   6.
 NSaved= 6 IEnMin= 6 EnMin= -1581.55557497726     IErMin= 6 ErrMin= 7.78D-07
 ErrMax= 7.78D-07 EMaxC= 1.00D-01 BMatC= 5.55D-10 BMatP= 4.85D-09
 IDIUse=1 WtCom= 1.00D+00 WtEn= 0.00D+00
 Coeff-Com:  0.197D-02-0.291D-01-0.255D-01 0.329D-01 0.280D+00 0.740D+00
 Coeff:      0.197D-02-0.291D-01-0.255D-01 0.329D-01 0.280D+00 0.740D+00
 Gap=     0.254 Goal=   None    Shift=    0.000
 RMSDP=7.54D-08 MaxDP=3.69D-06 DE=-6.52D-09 OVMax= 1.40D-05

 Cycle  14  Pass 1  IDiag  1:
 RMSU=  3.50D-08    CP:  1.00D+00  1.06D+00  6.56D-01  1.21D+00  1.05D+00
                    CP:  1.06D+00
 FoFJK:  IHMeth= 1 ICntrl=     0 DoSepK=T KAlg= 1 I1Cent= 0 FoldK=F
 E= -1581.55557497835     Delta-E=       -0.000000001087 Rises=F Damp=F
 DIIS: error= 3.40D-07 at cycle   7 NSaved=   7.
 NSaved= 7 IEnMin= 7 EnMin= -1581.55557497835     IErMin= 7 ErrMin= 3.40D-07
 ErrMax= 3.40D-07 EMaxC= 1.00D-01 BMatC= 1.01D-10 BMatP= 5.55D-10
 IDIUse=1 WtCom= 1.00D+00 WtEn= 0.00D+00
 Coeff-Com:  0.743D-03-0.362D-02-0.801D-02-0.536D-01-0.449D-01 0.275D+00
 Coeff-Com:  0.834D+00
 Coeff:      0.743D-03-0.362D-02-0.801D-02-0.536D-01-0.449D-01 0.275D+00
 Coeff:      0.834D+00
 Gap=     0.254 Goal=   None    Shift=    0.000
 RMSDP=4.24D-08 MaxDP=1.67D-06 DE=-1.09D-09 OVMax= 7.46D-06

 Cycle  15  Pass 1  IDiag  1:
 RMSU=  1.48D-08    CP:  1.00D+00  1.06D+00  6.59D-01  1.23D+00  1.10D+00
                    CP:  1.26D+00  1.07D+00
 FoFJK:  IHMeth= 1 ICntrl=     0 DoSepK=T KAlg= 1 I1Cent= 0 FoldK=F
 E= -1581.55557497861     Delta-E=       -0.000000000266 Rises=F Damp=F
 DIIS: error= 1.59D-07 at cycle   8 NSaved=   8.
 NSaved= 8 IEnMin= 8 EnMin= -1581.55557497861     IErMin= 8 ErrMin= 1.59D-07
 ErrMax= 1.59D-07 EMaxC= 1.00D-01 BMatC= 1.64D-11 BMatP= 1.01D-10
 IDIUse=1 WtCom= 1.00D+00 WtEn= 0.00D+00
 Coeff-Com: -0.227D-04 0.309D-02 0.104D-02-0.239D-01-0.558D-01-0.163D-01
 Coeff-Com:  0.304D+00 0.788D+00
 Coeff:     -0.227D-04 0.309D-02 0.104D-02-0.239D-01-0.558D-01-0.163D-01
 Coeff:      0.304D+00 0.788D+00
 Gap=     0.254 Goal=   None    Shift=    0.000
 RMSDP=1.62D-08 MaxDP=7.47D-07 DE=-2.66D-10 OVMax= 3.95D-06

 Cycle  16  Pass 1  IDiag  1:
 RMSU=  5.98D-09    CP:  1.00D+00  1.06D+00  6.60D-01  1.24D+00  1.12D+00
                    CP:  1.32D+00  1.26D+00  1.06D+00
 FoFJK:  IHMeth= 1 ICntrl=     0 DoSepK=T KAlg= 1 I1Cent= 0 FoldK=F
 E= -1581.55557497866     Delta-E=       -0.000000000045 Rises=F Damp=F
 DIIS: error= 6.27D-08 at cycle   9 NSaved=   9.
 NSaved= 9 IEnMin= 9 EnMin= -1581.55557497866     IErMin= 9 ErrMin= 6.27D-08
 ErrMax= 6.27D-08 EMaxC= 1.00D-01 BMatC= 3.02D-12 BMatP= 1.64D-11
 IDIUse=1 WtCom= 1.00D+00 WtEn= 0.00D+00
 Coeff-Com: -0.160D-03 0.192D-02 0.207D-02 0.193D-02-0.127D-01-0.651D-01
 Coeff-Com: -0.595D-01 0.286D+00 0.846D+00
 Coeff:     -0.160D-03 0.192D-02 0.207D-02 0.193D-02-0.127D-01-0.651D-01
 Coeff:     -0.595D-01 0.286D+00 0.846D+00
 Gap=     0.254 Goal=   None    Shift=    0.000
 RMSDP=7.66D-09 MaxDP=3.87D-07 DE=-4.46D-11 OVMax= 1.78D-06

 SCF Done:  E(RwB97XD) =  -1581.55557498     A.U. after   16 cycles
             Convg  =    0.7663D-08             -V/T =  2.0111
 KE= 1.564130867374D+03 PE=-1.098212414561D+04 EE= 4.179641994777D+03
 Leave Link  502 at Wed Apr  8 22:23:08 2020, MaxMem= 2684354560 cpu:     899.9
 (Enter /opt/g09gh/gaussian/g09/l601.exe)
 Copying SCF densities to generalized density rwf, IOpCl= 0 IROHF=0.

 **********************************************************************

            Population analysis using the SCF density.

 **********************************************************************

 Orbital symmetries:
       Occupied  (A) (A) (A) (A) (A) (A) (A) (A) (A) (A) (A) (A)
                 (A) (A) (A) (A) (A) (A) (A) (A) (A) (A) (A) (A)
                 (A) (A) (A) (A) (A) (A) (A) (A) (A) (A) (A) (A)
                 (A) (A) (A) (A) (A) (A) (A) (A) (A) (A) (A) (A)
                 (A) (A) (A) (A) (A) (A) (A) (A) (A) (A) (A) (A)
                 (A) (A) (A) (A) (A) (A) (A) (A) (A) (A) (A) (A)
                 (A) (A) (A) (A) (A) (A) (A) (A) (A) (A) (A) (A)
                 (A) (A) (A) (A) (A) (A) (A) (A) (A) (A) (A) (A)
                 (A) (A) (A) (A) (A) (A) (A) (A) (A) (A) (A) (A)
                 (A) (A) (A) (A) (A) (A) (A) (A) (A) (A) (A) (A)
                 (A) (A) (A) (A) (A) (A) (A) (A) (A) (A) (A)
       Virtual   (A) (A) (A) (A) (A) (A) (A) (A) (A) (A) (A) (A)
                 (A) (A) (A) (A) (A) (A) (A) (A) (A) (A) (A) (A)
                 (A) (A) (A) (A) (A) (A) (A) (A) (A) (A) (A) (A)
                 (A) (A) (A) (A) (A) (A) (A) (A) (A) (A) (A) (A)
                 (A) (A) (A) (A) (A) (A) (A) (A) (A) (A) (A) (A)
                 (A) (A) (A) (A) (A) (A) (A) (A) (A) (A) (A) (A)
                 (A) (A) (A) (A) (A) (A) (A) (A) (A) (A) (A) (A)
                 (A) (A) (A) (A) (A) (A) (A) (A) (A) (A) (A) (A)
                 (A) (A) (A) (A) (A) (A) (A) (A) (A) (A) (A) (A)
                 (A) (A) (A) (A) (A) (A) (A) (A) (A) (A) (A) (A)
                 (A) (A) (A) (A) (A) (A) (A) (A) (A) (A) (A) (A)
                 (A) (A) (A) (A) (A) (A) (A) (A) (A) (A) (A) (A)
                 (A) (A) (A) (A) (A) (A) (A) (A) (A) (A) (A) (A)
                 (A) (A) (A) (A) (A) (A) (A) (A) (A) (A) (A) (A)
                 (A) (A) (A) (A) (A) (A) (A) (A) (A) (A) (A) (A)
                 (A) (A) (A) (A) (A) (A) (A) (A) (A) (A) (A) (A)
                 (A) (A) (A) (A) (A) (A) (A) (A) (A) (A) (A) (A)
                 (A) (A) (A) (A) (A) (A) (A) (A) (A) (A) (A) (A)
                 (A) (A) (A) (A) (A) (A) (A) (A) (A) (A) (A) (A)
                 (A) (A) (A) (A) (A) (A) (A) (A) (A) (A) (A) (A)
                 (A) (A) (A) (A) (A) (A) (A) (A) (A) (A) (A) (A)
                 (A) (A) (A) (A) (A) (A) (A) (A) (A) (A) (A) (A)
                 (A) (A) (A) (A) (A) (A) (A) (A) (A) (A) (A) (A)
                 (A) (A) (A) (A) (A) (A) (A) (A) (A) (A) (A) (A)
                 (A) (A) (A) (A) (A) (A) (A) (A) (A) (A) (A) (A)
                 (A) (A) (A) (A) (A) (A) (A) (A) (A) (A) (A) (A)
                 (A) (A) (A) (A) (A) (A) (A) (A) (A) (A) (A) (A)
                 (A) (A) (A) (A) (A) (A) (A) (A) (A) (A) (A) (A)
                 (A) (A) (A) (A) (A) (A) (A) (A) (A) (A) (A) (A)
                 (A) (A) (A) (A) (A) (A) (A) (A) (A) (A) (A) (A)
                 (A) (A) (A) (A) (A) (A) (A) (A) (A) (A) (A) (A)
                 (A) (A) (A) (A) (A) (A) (A) (A) (A) (A) (A) (A)
                 (A) (A) (A) (A) (A) (A) (A) (A) (A) (A) (A) (A)
                 (A) (A) (A) (A) (A) (A) (A) (A) (A) (A) (A) (A)
                 (A) (A) (A) (A) (A) (A) (A) (A) (A) (A) (A) (A)
                 (A) (A) (A) (A) (A) (A) (A) (A) (A) (A) (A) (A)
                 (A) (A) (A) (A) (A) (A) (A) (A) (A) (A) (A) (A)
                 (A) (A) (A) (A) (A) (A) (A) (A) (A) (A) (A) (A)
                 (A) (A) (A) (A) (A) (A) (A) (A) (A) (A) (A) (A)
                 (A) (A) (A) (A) (A) (A) (A) (A) (A) (A) (A) (A)
                 (A) (A) (A) (A) (A) (A)
 The electronic state is 1-A.
 Alpha  occ. eigenvalues --  -19.23576 -14.49412 -14.49099 -14.46145 -14.46116
 Alpha  occ. eigenvalues --  -14.45981 -14.45785 -14.44399 -10.41951 -10.40876
 Alpha  occ. eigenvalues --  -10.38193 -10.36609 -10.36608 -10.36306 -10.36021
 Alpha  occ. eigenvalues --  -10.35839 -10.35423 -10.35168 -10.35033 -10.34873
 Alpha  occ. eigenvalues --  -10.34167 -10.34004 -10.33889 -10.32733 -10.32127
 Alpha  occ. eigenvalues --  -10.32100 -10.31825 -10.31795 -10.31380 -10.31131
 Alpha  occ. eigenvalues --  -10.30964 -10.30934 -10.30908 -10.30228 -10.30141
 Alpha  occ. eigenvalues --  -10.29891 -10.29091  -1.13728  -1.11583  -1.05324
 Alpha  occ. eigenvalues --   -1.03730  -1.03153  -1.03054  -1.00029  -0.99207
 Alpha  occ. eigenvalues --   -0.96109  -0.94565  -0.92345  -0.89280  -0.88000
 Alpha  occ. eigenvalues --   -0.86987  -0.86423  -0.84975  -0.83829  -0.82872
 Alpha  occ. eigenvalues --   -0.81721  -0.79494  -0.77813  -0.77768  -0.75951
 Alpha  occ. eigenvalues --   -0.73260  -0.72704  -0.72296  -0.71111  -0.70429
 Alpha  occ. eigenvalues --   -0.70074  -0.69505  -0.68052  -0.66390  -0.64727
 Alpha  occ. eigenvalues --   -0.63335  -0.62377  -0.61554  -0.60487  -0.59826
 Alpha  occ. eigenvalues --   -0.58493  -0.57664  -0.56837  -0.56331  -0.56013
 Alpha  occ. eigenvalues --   -0.55760  -0.55160  -0.54680  -0.54375  -0.53828
 Alpha  occ. eigenvalues --   -0.53218  -0.52383  -0.52259  -0.51834  -0.51637
 Alpha  occ. eigenvalues --   -0.51212  -0.51102  -0.50929  -0.50823  -0.50407
 Alpha  occ. eigenvalues --   -0.50066  -0.49973  -0.49686  -0.49453  -0.48248
 Alpha  occ. eigenvalues --   -0.47448  -0.46604  -0.46147  -0.46052  -0.45718
 Alpha  occ. eigenvalues --   -0.45404  -0.44721  -0.44267  -0.44026  -0.43874
 Alpha  occ. eigenvalues --   -0.43436  -0.43053  -0.42185  -0.41401  -0.40108
 Alpha  occ. eigenvalues --   -0.40097  -0.38654  -0.37966  -0.37189  -0.36612
 Alpha  occ. eigenvalues --   -0.35280  -0.35117  -0.33846  -0.33502  -0.33163
 Alpha  occ. eigenvalues --   -0.33099  -0.32121  -0.31093  -0.29458  -0.27418
 Alpha  occ. eigenvalues --   -0.25920
 Alpha virt. eigenvalues --   -0.00529   0.02537   0.03174   0.04676   0.05891
 Alpha virt. eigenvalues --    0.07411   0.07740   0.09712   0.10081   0.12520
 Alpha virt. eigenvalues --    0.13692   0.13870   0.14185   0.15257   0.15921
 Alpha virt. eigenvalues --    0.16043   0.17089   0.17838   0.18529   0.19211
 Alpha virt. eigenvalues --    0.19566   0.20026   0.20161   0.21228   0.21715
 Alpha virt. eigenvalues --    0.21732   0.22671   0.23065   0.23266   0.24013
 Alpha virt. eigenvalues --    0.24173   0.24546   0.24690   0.25082   0.25209
 Alpha virt. eigenvalues --    0.25361   0.25378   0.26201   0.26502   0.27186
 Alpha virt. eigenvalues --    0.27519   0.27947   0.27977   0.28341   0.28674
 Alpha virt. eigenvalues --    0.28914   0.29236   0.29532   0.30546   0.30921
 Alpha virt. eigenvalues --    0.31772   0.31914   0.32152   0.33321   0.33698
 Alpha virt. eigenvalues --    0.33826   0.34645   0.35377   0.36167   0.37613
 Alpha virt. eigenvalues --    0.37907   0.38221   0.38667   0.38854   0.39895
 Alpha virt. eigenvalues --    0.40180   0.40677   0.41283   0.41447   0.42353
 Alpha virt. eigenvalues --    0.43263   0.44868   0.45313   0.46661   0.47083
 Alpha virt. eigenvalues --    0.48035   0.49402   0.51207   0.52246   0.53684
 Alpha virt. eigenvalues --    0.55461   0.56186   0.57307   0.57741   0.58595
 Alpha virt. eigenvalues --    0.58877   0.59488   0.59607   0.59650   0.59979
 Alpha virt. eigenvalues --    0.60226   0.60856   0.61470   0.61793   0.62158
 Alpha virt. eigenvalues --    0.62648   0.63019   0.63218   0.63707   0.63924
 Alpha virt. eigenvalues --    0.64168   0.64801   0.64963   0.65106   0.65394
 Alpha virt. eigenvalues --    0.65764   0.65869   0.66346   0.66362   0.66764
 Alpha virt. eigenvalues --    0.67001   0.67230   0.67406   0.68432   0.68504
 Alpha virt. eigenvalues --    0.68958   0.69081   0.69485   0.69968   0.70393
 Alpha virt. eigenvalues --    0.70525   0.70802   0.71074   0.71140   0.71664
 Alpha virt. eigenvalues --    0.72058   0.72743   0.72917   0.73106   0.73513
 Alpha virt. eigenvalues --    0.74163   0.74524   0.75802   0.76022   0.76568
 Alpha virt. eigenvalues --    0.77308   0.77941   0.78116   0.79646   0.80582
 Alpha virt. eigenvalues --    0.80931   0.80991   0.81288   0.81858   0.82876
 Alpha virt. eigenvalues --    0.83562   0.83858   0.85286   0.85594   0.85795
 Alpha virt. eigenvalues --    0.86332   0.86775   0.87671   0.87882   0.88054
 Alpha virt. eigenvalues --    0.89133   0.89362   0.89638   0.89898   0.90574
 Alpha virt. eigenvalues --    0.90966   0.91441   0.91507   0.91795   0.92286
 Alpha virt. eigenvalues --    0.92803   0.92915   0.93193   0.93602   0.93871
 Alpha virt. eigenvalues --    0.94270   0.94392   0.94794   0.94959   0.95182
 Alpha virt. eigenvalues --    0.96173   0.96592   0.96894   0.97404   0.97908
 Alpha virt. eigenvalues --    0.98257   0.98636   0.99276   0.99568   0.99662
 Alpha virt. eigenvalues --    0.99868   1.00671   1.01001   1.01285   1.02253
 Alpha virt. eigenvalues --    1.02527   1.02754   1.03841   1.04614   1.05845
[...]
                 (A) (A) (A) (A) (A) (A) (A) (A) (A) (A) (A) (A)
                 (A) (A) (A) (A) (A) (A) (A) (A) (A) (A) (A) (A)
                 (A) (A) (A) (A) (A) (A) (A) (A) (A) (A) (A) (A)
                 (A) (A) (A) (A) (A) (A) (A) (A) (A) (A) (A) (A)
                 (A) (A) (A) (A) (A) (A) (A) (A) (A) (A) (A) (A)
                 (A) (A) (A) (A) (A) (A) (A) (A) (A) (A) (A) (A)
                 (A) (A) (A) (A) (A) (A) (A) (A) (A) (A) (A) (A)
                 (A) (A) (A) (A) (A) (A) (A) (A) (A) (A) (A) (A)
                 (A) (A) (A) (A) (A) (A) (A) (A) (A) (A) (A) (A)
                 (A) (A) (A) (A) (A) (A) (A) (A) (A) (A) (A) (A)
                 (A) (A) (A) (A) (A) (A) (A) (A) (A) (A) (A) (A)
                 (A) (A) (A) (A) (A) (A) (A) (A) (A) (A) (A) (A)
                 (A) (A) (A) (A) (A) (A) (A) (A) (A) (A) (A) (A)
                 (A) (A) (A) (A) (A) (A) (A) (A) (A) (A) (A) (A)
                 (A) (A) (A) (A) (A) (A) (A) (A) (A) (A) (A) (A)
                 (A) (A) (A) (A) (A) (A) (A) (A) (A) (A) (A) (A)
                 (A) (A) (A) (A) (A) (A) (A) (A) (A) (A) (A) (A)
                 (A) (A) (A) (A) (A) (A) (A) (A) (A) (A) (A) (A)
                 (A) (A) (A) (A) (A) (A) (A) (A) (A) (A) (A) (A)
                 (A) (A) (A) (A) (A) (A) (A) (A) (A) (A) (A) (A)
                 (A) (A) (A) (A) (A) (A) (A) (A) (A) (A) (A) (A)
                 (A) (A) (A) (A) (A) (A) (A) (A) (A) (A) (A) (A)
                 (A) (A) (A) (A) (A) (A) (A) (A) (A) (A) (A) (A)
                 (A) (A) (A) (A) (A) (A) (A) (A) (A) (A) (A) (A)
                 (A) (A) (A) (A) (A) (A) (A) (A) (A) (A) (A) (A)
                 (A) (A) (A) (A) (A) (A) (A) (A) (A) (A) (A) (A)
                 (A) (A) (A) (A) (A) (A) (A) (A) (A) (A) (A) (A)
                 (A) (A) (A) (A) (A) (A) (A) (A) (A) (A) (A) (A)
                 (A) (A) (A) (A) (A) (A) (A) (A) (A) (A) (A) (A)
                 (A) (A) (A) (A) (A) (A)
 The electronic state is 1-A.
 Alpha  occ. eigenvalues --  -19.23284 -14.49311 -14.48399 -14.46771 -14.46126
 Alpha  occ. eigenvalues --  -14.45871 -14.43444 -14.42832 -10.41819 -10.40153
 Alpha  occ. eigenvalues --  -10.37644 -10.36361 -10.35299 -10.35231 -10.34643
 Alpha  occ. eigenvalues --  -10.34150 -10.33997 -10.33664 -10.32863 -10.32297
 Alpha  occ. eigenvalues --  -10.31875 -10.31132 -10.31059 -10.31052 -10.30945
 Alpha  occ. eigenvalues --  -10.30744 -10.30399 -10.30386 -10.30362 -10.30324
 Alpha  occ. eigenvalues --  -10.30173 -10.30162 -10.30106 -10.30036 -10.29516
 Alpha  occ. eigenvalues --  -10.28709 -10.28310  -1.13480  -1.12317  -1.06375
 Alpha  occ. eigenvalues --   -1.04592  -1.03635  -1.03601  -1.00740  -0.99342
 Alpha  occ. eigenvalues --   -0.96055  -0.94693  -0.93142  -0.89805  -0.88078
 Alpha  occ. eigenvalues --   -0.87399  -0.86252  -0.85199  -0.84533  -0.83772
 Alpha  occ. eigenvalues --   -0.81725  -0.79531  -0.78273  -0.77718  -0.76340
 Alpha  occ. eigenvalues --   -0.73952  -0.73055  -0.72983  -0.72644  -0.70875
 Alpha  occ. eigenvalues --   -0.70324  -0.69544  -0.67989  -0.66453  -0.65242
 Alpha  occ. eigenvalues --   -0.63729  -0.63329  -0.62284  -0.61851  -0.60211
 Alpha  occ. eigenvalues --   -0.58870  -0.58004  -0.57564  -0.56466  -0.56202
 Alpha  occ. eigenvalues --   -0.55781  -0.55079  -0.54904  -0.54736  -0.54336
 Alpha  occ. eigenvalues --   -0.53658  -0.53209  -0.52986  -0.52413  -0.52087
 Alpha  occ. eigenvalues --   -0.51889  -0.51562  -0.51330  -0.50924  -0.50712
 Alpha  occ. eigenvalues --   -0.50519  -0.50388  -0.49942  -0.49437  -0.48335
 Alpha  occ. eigenvalues --   -0.47286  -0.46715  -0.46540  -0.46443  -0.46060
 Alpha  occ. eigenvalues --   -0.45583  -0.44956  -0.44607  -0.43944  -0.43745
 Alpha  occ. eigenvalues --   -0.43354  -0.43151  -0.42134  -0.41689  -0.41267
 Alpha  occ. eigenvalues --   -0.40729  -0.40632  -0.39892  -0.38214  -0.37563
 Alpha  occ. eigenvalues --   -0.35836  -0.35359  -0.33920  -0.33575  -0.33262
 Alpha  occ. eigenvalues --   -0.32900  -0.32020  -0.30634  -0.29158  -0.27013
 Alpha  occ. eigenvalues --   -0.24766
 Alpha virt. eigenvalues --   -0.00257   0.02894   0.03199   0.04358   0.06537
 Alpha virt. eigenvalues --    0.07197   0.08457   0.10624   0.13526   0.14912
 Alpha virt. eigenvalues --    0.15918   0.16358   0.17277   0.17675   0.18732
 Alpha virt. eigenvalues --    0.19258   0.19788   0.20368   0.20476   0.21456
 Alpha virt. eigenvalues --    0.21954   0.22329   0.22717   0.22949   0.23130
 Alpha virt. eigenvalues --    0.23851   0.23957   0.24096   0.24529   0.24642
 Alpha virt. eigenvalues --    0.24854   0.25628   0.26161   0.26333   0.26910
 Alpha virt. eigenvalues --    0.26941   0.27601   0.27995   0.28364   0.28602
 Alpha virt. eigenvalues --    0.28736   0.28984   0.29155   0.29612   0.30200
 Alpha virt. eigenvalues --    0.30878   0.31214   0.32033   0.32148   0.32606
 Alpha virt. eigenvalues --    0.33014   0.33503   0.33806   0.34065   0.34749
 Alpha virt. eigenvalues --    0.34866   0.35516   0.36728   0.37908   0.38332
 Alpha virt. eigenvalues --    0.38544   0.38752   0.39228   0.39872   0.41267
 Alpha virt. eigenvalues --    0.41362   0.41667   0.42228   0.42554   0.43194
 Alpha virt. eigenvalues --    0.44336   0.45010   0.45962   0.47317   0.47829
 Alpha virt. eigenvalues --    0.48180   0.49904   0.51398   0.52744   0.54101
 Alpha virt. eigenvalues --    0.55805   0.56613   0.57985   0.58387   0.58614
 Alpha virt. eigenvalues --    0.59188   0.59615   0.60260   0.60577   0.60985
 Alpha virt. eigenvalues --    0.61276   0.61632   0.62106   0.62354   0.62599
 Alpha virt. eigenvalues --    0.63327   0.63600   0.63985   0.64287   0.64549
 Alpha virt. eigenvalues --    0.64894   0.65213   0.65427   0.65468   0.65921
 Alpha virt. eigenvalues --    0.66058   0.66516   0.66710   0.66894   0.67286
 Alpha virt. eigenvalues --    0.67381   0.67877   0.68713   0.68781   0.69344
 Alpha virt. eigenvalues --    0.69851   0.70421   0.70697   0.70991   0.71058
 Alpha virt. eigenvalues --    0.71125   0.71480   0.72380   0.72481   0.72944
 Alpha virt. eigenvalues --    0.73136   0.73657   0.73929   0.74553   0.74996
 Alpha virt. eigenvalues --    0.75256   0.75755   0.75976   0.76899   0.77330
 Alpha virt. eigenvalues --    0.77802   0.79153   0.80167   0.80499   0.81673
 Alpha virt. eigenvalues --    0.81860   0.82696   0.82858   0.83648   0.84424
 Alpha virt. eigenvalues --    0.84508   0.85833   0.87035   0.87402   0.87841
 Alpha virt. eigenvalues --    0.88317   0.89131   0.89479   0.90434   0.90763
 Alpha virt. eigenvalues --    0.91023   0.91642   0.91788   0.91995   0.92176
 Alpha virt. eigenvalues --    0.92422   0.92673   0.93208   0.93253   0.93852
 Alpha virt. eigenvalues --    0.94093   0.94224   0.94598   0.95045   0.95448
 Alpha virt. eigenvalues --    0.95716   0.96221   0.96886   0.97565   0.97998
 Alpha virt. eigenvalues --    0.98112   0.98518   0.98644   0.98875   0.99603
 Alpha virt. eigenvalues --    0.99994   1.00158   1.00599   1.01174   1.01694
 Alpha virt. eigenvalues --    1.01789   1.02793   1.03524   1.04052   1.04692
 Alpha virt. eigenvalues --    1.05628   1.06210   1.06555   1.06936   1.07357
 Alpha virt. eigenvalues --    1.07749   1.08211   1.08780   1.08815   1.09014
 Alpha virt. eigenvalues --    1.09515   1.10302   1.11180   1.11723   1.11870
 Alpha virt. eigenvalues --    1.12423   1.12871   1.13935   1.15788   1.16263
 Alpha virt. eigenvalues --    1.16634   1.17197   1.17304   1.17946   1.19550
 Alpha virt. eigenvalues --    1.20451   1.20610   1.22502   1.23729   1.24659
 Alpha virt. eigenvalues --    1.24973   1.25289   1.26246   1.26993   1.27436
 Alpha virt. eigenvalues --    1.28657   1.29632   1.30416   1.31040   1.31980
 Alpha virt. eigenvalues --    1.32423   1.33241   1.34106   1.34732   1.34792
 Alpha virt. eigenvalues --    1.36026   1.37013   1.37679   1.37891   1.38320
 Alpha virt. eigenvalues --    1.39514   1.42477   1.42948   1.44095   1.44776
 Alpha virt. eigenvalues --    1.45588   1.47007   1.47670   1.48405   1.48854
 Alpha virt. eigenvalues --    1.48893   1.49062   1.49582   1.50205   1.51101
 Alpha virt. eigenvalues --    1.52038   1.52882   1.53145   1.53598   1.54502
 Alpha virt. eigenvalues --    1.55225   1.55722   1.56024   1.56696   1.57032
 Alpha virt. eigenvalues --    1.57518   1.57748   1.58076   1.58934   1.59018
 Alpha virt. eigenvalues --    1.59746   1.60004   1.60622   1.61436   1.62837
 Alpha virt. eigenvalues --    1.63595   1.64785   1.65249   1.66130   1.66899
 Alpha virt. eigenvalues --    1.68747   1.69751   1.71701   1.74895   1.76225
 Alpha virt. eigenvalues --    1.78850   1.80568   1.81679   1.82547   1.84314
 Alpha virt. eigenvalues --    1.84834   1.85625   1.86385   1.86596   1.87424
 Alpha virt. eigenvalues --    1.87780   1.88911   1.89751   1.90368   1.90928
 Alpha virt. eigenvalues --    1.91452   1.92416   1.92670   1.93287   1.94520
 Alpha virt. eigenvalues --    1.94753   1.94975   1.95731   1.97215   1.97823
 Alpha virt. eigenvalues --    1.99498   1.99754   2.00275   2.00558   2.00723
 Alpha virt. eigenvalues --    2.01218   2.01817   2.02197   2.03035   2.03496
 Alpha virt. eigenvalues --    2.05094   2.06650   2.06931   2.07286   2.08019
 Alpha virt. eigenvalues --    2.08646   2.08990   2.09865   2.10647   2.11771
 Alpha virt. eigenvalues --    2.12160   2.12680   2.13538   2.14066   2.15094
 Alpha virt. eigenvalues --    2.15919   2.16768   2.17799   2.19193   2.20288
 Alpha virt. eigenvalues --    2.20981   2.21567   2.21946   2.22173   2.22676
 Alpha virt. eigenvalues --    2.23089   2.23615   2.23964   2.24630   2.25148
 Alpha virt. eigenvalues --    2.25886   2.26004   2.26579   2.27461   2.27936
 Alpha virt. eigenvalues --    2.28263   2.29283   2.29845   2.31026   2.32154
 Alpha virt. eigenvalues --    2.33886   2.35006   2.35465   2.37086   2.37606
 Alpha virt. eigenvalues --    2.37866   2.38032   2.38454   2.39872   2.39939
 Alpha virt. eigenvalues --    2.40383   2.41246   2.41934   2.42259   2.42925
 Alpha virt. eigenvalues --    2.44170   2.44358   2.44557   2.44818   2.45458
 Alpha virt. eigenvalues --    2.46150   2.47940   2.48835   2.48996   2.49923
 Alpha virt. eigenvalues --    2.50287   2.50377   2.53100   2.54503   2.56956
 Alpha virt. eigenvalues --    2.57579   2.60073   2.61105   2.61422   2.62700
 Alpha virt. eigenvalues --    2.64066   2.64797   2.66361   2.66398   2.67300
 Alpha virt. eigenvalues --    2.69470   2.69947   2.71200   2.72269   2.72410
 Alpha virt. eigenvalues --    2.74074   2.74385   2.75258   2.75713   2.76242
 Alpha virt. eigenvalues --    2.76871   2.77452   2.79271   2.81350   2.81984
 Alpha virt. eigenvalues --    2.82752   2.83110   2.84049   2.84236   2.85594
 Alpha virt. eigenvalues --    2.86048   2.86417   2.87476   2.88518   2.89534
 Alpha virt. eigenvalues --    2.89743   2.91722   2.93121   2.93403   2.94125
 Alpha virt. eigenvalues --    2.95122   2.96370   2.98009   3.01899   3.03421
 Alpha virt. eigenvalues --    3.04543   3.06759   3.09052   3.10424   3.11897
 Alpha virt. eigenvalues --    3.19234   3.27936   3.29382   3.39216   3.41476
 Alpha virt. eigenvalues --    3.45230   3.53986   3.56430   3.58012   4.12834
 Alpha virt. eigenvalues --    4.13804   4.15235   4.17154   4.18159   4.18777
 Alpha virt. eigenvalues --    4.19213   4.21076   4.22085   4.23487   4.25843
 Alpha virt. eigenvalues --    4.26539   4.27282   4.30102   4.30806   4.32288
 Alpha virt. eigenvalues --    4.33575   4.34214   4.36618   4.40420   4.40709
 Alpha virt. eigenvalues --    4.41811   4.44662   4.45964   4.48591   4.49933
 Alpha virt. eigenvalues --    4.50102   4.53971   4.57142   4.60648   4.62193
 Alpha virt. eigenvalues --    4.64047   4.67964   4.70335   4.78909   4.84925
 Alpha virt. eigenvalues --    4.90416
          Condensed to atoms (all electrons):
 Mulliken atomic charges:
              1
     1  C   -0.195428
     2  C   -0.154972
     3  C    0.039066
     4  C    0.014690
     5  N   -0.432864
     6  C    0.028066
     7  C    0.290726
     8  C   -0.257048
     9  C    0.050153
    10  N   -0.494766
    11  C    0.719270
    12  N   -0.566423
    13  N   -0.810910
    14  C    0.288652
    15  C    0.120409
    16  C   -0.241420
    17  C   -0.187661
    18  C    0.364127
    19  C   -0.270704
    20  N   -0.780606
    21  C    0.612471
    22  C    0.017054
    23  C   -0.210712
    24  C   -0.226436
    25  C    0.160079
    26  C   -0.223213
    27  C   -0.178172
    28  C   -0.263888
    29  N   -0.381382
    30  C   -0.184403
    31  C   -0.182450
    32  N   -0.383742
    33  C   -0.349383
    34  C   -0.183815
    35  C   -0.185961
    36  O   -0.521018
    37  C   -0.609407
    38  H    0.186820
    39  H    0.187371
    40  H    0.189843
    41  H    0.182090
    42  H    0.181429
    43  H    0.189695
    44  H    0.370016
    45  H    0.160492
    46  H    0.213612
    47  H    0.204510
    48  H    0.362150
    49  H    0.178579
    50  H    0.170160
    51  H    0.164349
    52  H    0.201601
    53  H    0.169242
    54  H    0.169597
    55  H    0.149574
    56  H    0.158720
    57  H    0.150199
    58  H    0.173064
    59  H    0.134266
    60  H    0.165894
    61  H    0.167539
    62  H    0.153478
    63  H    0.173245
    64  H    0.159252
    65  H    0.152613
    66  H    0.183042
    67  H    0.178587
    68  H    0.190991
 Sum of Mulliken atomic charges =   0.00000
 Mulliken charges with hydrogens summed into heavy atoms:
              1
     1  C   -0.008608
     2  C    0.032399
     3  C    0.039066
     4  C    0.204534
     5  N   -0.432864
     6  C    0.210156
     7  C    0.290726
     8  C   -0.075618
     9  C    0.239848
    10  N   -0.494766
    11  C    0.719270
    12  N   -0.566423
    13  N   -0.440893
    14  C    0.288652
    15  C    0.120409
    16  C   -0.080928
    17  C    0.025951
    18  C    0.364127
    19  C   -0.066193
    20  N   -0.418455
    21  C    0.612471
    22  C    0.017054
    23  C   -0.032132
    24  C   -0.056276
    25  C    0.160079
    26  C   -0.058865
    27  C    0.023429
    28  C    0.074950
    29  N   -0.381382
    30  C    0.123891
    31  C    0.140813
    32  N   -0.383742
    33  C    0.118315
    34  C    0.142908
    35  C    0.125904
    36  O   -0.521018
    37  C   -0.056787
 Sum of Mulliken charges with hydrogens summed into heavy atoms =   0.00000
 Electronic spatial extent (au):  <R**2>=          25030.5883
 Charge=              0.0000 electrons
 Dipole moment (field-independent basis, Debye):
    X=              2.2693    Y=              6.0721    Z=             -0.1724  Tot=              6.4845
 Quadrupole moment (field-independent basis, Debye-Ang):
   XX=           -188.4969   YY=           -195.1433   ZZ=           -221.6157
   XY=              6.1951   XZ=              4.3044   YZ=              5.4994
 Traceless Quadrupole moment (field-independent basis, Debye-Ang):
   XX=             13.2551   YY=              6.6086   ZZ=            -19.8637
   XY=              6.1951   XZ=              4.3044   YZ=              5.4994
 Octapole moment (field-independent basis, Debye-Ang**2):
  XXX=             47.0282  YYY=            150.9822  ZZZ=              3.5150  XYY=             85.8497
  XXY=            -17.2472  XXZ=             31.2995  XZZ=            -10.2602  YZZ=             -1.5358
  YYZ=             27.5938  XYZ=            -23.7864
 Hexadecapole moment (field-independent basis, Debye-Ang**3):
 XXXX=         -23590.4513 YYYY=          -7316.2253 ZZZZ=          -1510.9398 XXXY=            351.7859
 XXXZ=           -113.6918 YYYX=            119.3253 YYYZ=             74.4643 ZZZX=            -11.6256
 ZZZY=             15.3016 XXYY=          -4747.9676 XXZZ=          -4385.9586 YYZZ=          -1622.1086
 XXYZ=             60.7435 YYXZ=            100.9368 ZZXY=            -19.4564
 N-N= 3.769254584401D+03 E-N=-1.121018529555D+04  KE= 1.567149213284D+03
 No NMR shielding tensors so no spin-rotation constants.
 Leave Link  601 at Wed Apr  8 23:53:41 2020, MaxMem= 2684354560 cpu:       2.8
 (Enter /opt/g09gh/gaussian/g09/l9999.exe)
 1\1\GINC-NODE56\FOpt\RwB97XD\6-31G(d)\C29H31N7O1\BDW2292\08-Apr-2020\0
 \\#P opt=(,maxcycle=400) wB97XD/6-31G* MaxDisk=100GB\\MOLECULE0 Rotata
 ble Bond Optimization on node37.bme.utexas.edu\\0,1\C,-0.156903479,1.7
 679944926,-5.9749039481\C,1.1274165033,1.2798966988,-6.1823938995\C,1.
 460256978,0.0187981577,-5.690431269\C,0.4587815435,-0.6932209389,-5.01
 89168248\N,-0.772346899,-0.2359595708,-4.8019729379\C,-1.0630724898,0.
 980787642,-5.2726986006\C,2.823344629,-0.5561233474,-5.8098207225\C,3.
 7115004373,-0.2222861035,-6.8280096246\C,4.9642932715,-0.8315145579,-6
 .772430452\N,5.3259755175,-1.6847341927,-5.8249275677\C,4.3852498758,-
 1.9523131075,-4.8953771113\N,3.1597267701,-1.4278419512,-4.8546214889\
 N,4.7834542555,-2.834800543,-3.9295837653\C,4.1130022139,-3.3272626044
 ,-2.7953207315\C,4.852385901,-4.0914373412,-1.8689350766\C,4.184368211
 1,-4.5690237151,-0.7453744468\C,2.83354817,-4.3334393269,-0.4989625458
 \C,2.1222920733,-3.5854964843,-1.432829361\C,2.7628196555,-3.088936056
 1,-2.5677774981\N,0.7528599155,-3.2786813452,-1.3414210961\C,-0.102916
 0928,-3.4196701779,-0.2832182845\C,-1.4879871216,-2.8802410588,-0.5254
 327205\C,-1.8176597036,-1.9871599215,-1.5500281637\C,-3.1282298707,-1.
 5555626332,-1.7100054309\C,-4.1380828751,-1.9814700806,-0.8467486269\C
 ,-3.8017444525,-2.8746105568,0.1735177085\C,-2.495309397,-3.3133010238
 ,0.338894511\C,-5.5597384604,-1.4604208319,-0.9978845674\N,-5.92791581
 52,-0.2519836492,-0.2792849262\C,-5.3020740977,0.9951692669,-0.7036477
 231\C,-4.0363240119,1.3576884121,0.0911288791\N,-4.2439559337,1.336053
 8314,1.5364219929\C,-5.0003770661,2.4686652171,2.0392214372\C,-4.78235
 14385,0.0393428224,1.9380690623\C,-6.0585736686,-0.3453458001,1.170726
 6165\O,0.2034974924,-3.9535005945,0.7711128228\C,6.317959068,-4.376029
 5826,-2.0793157378\H,-0.4468293982,2.7494456805,-6.3344934187\H,1.8683
 831407,1.8878317347,-6.6935695784\H,0.6753511341,-1.6917817876,-4.6498
 37283\H,-2.0703304619,1.3406299923,-5.0764077974\H,3.4503341268,0.4514
 001108,-7.6347438112\H,5.7141614611,-0.6200698988,-7.5320537228\H,5.73
 86920351,-3.1327139322,-4.0596207266\H,4.7455145946,-5.1557817655,-0.0
 224358679\H,2.3453205731,-4.7127458924,0.387383798\H,2.2163876746,-2.4
 803209834,-3.2712046992\H,0.3649113012,-2.875971592,-2.1796220477\H,-1
 .0743358703,-1.5854292086,-2.2342833314\H,-3.3593151064,-0.870288662,-
 2.5220564813\H,-4.5767453656,-3.2288429569,0.8497977463\H,-2.229572669
 6,-3.9997579391,1.1359782894\H,-5.7521774304,-1.274822668,-2.062229620
 1\H,-6.2584898395,-2.2461575987,-0.6849889519\H,-5.0738611885,0.929374
 6897,-1.7736678352\H,-6.0418949187,1.8016639078,-0.5880229167\H,-3.682
 2622553,2.3543771806,-0.1995157405\H,-3.2374559378,0.6433851154,-0.139
 565062\H,-6.0386022179,2.5496479102,1.6719593641\H,-4.4806459851,3.394
 3891714,1.7683301919\H,-5.0389794768,2.414305409,3.1327473721\H,-4.983
 7934008,0.0587044869,3.0159207652\H,-4.0032309243,-0.7111842138,1.7610
 344094\H,-6.8779726881,0.3213893339,1.478623949\H,-6.3679329937,-1.363
 8129024,1.4320062826\H,6.9129953798,-3.4545884323,-2.1272190235\H,6.50
 29702474,-4.9402030254,-3.0035872955\H,6.7152348513,-4.9750017082,-1.2
 560688384\\Version=EM64L-G09RevA.02\State=1-A\HF=-1581.7601007\RMSD=6.
 133e-09\RMSF=3.415e-06\Dipole=0.229358,1.4017364,-2.119245\Quadrupole=
 4.5442144,-2.866153,-1.6780614,-1.9398074,-10.1319078,-9.7771748\PG=C0
 1 [X(C29H31N7O1)]\\@


 IT IS WELL TO REMEMBER THAT MAN IS A PART OF NATURE AND THAT HIS WORKS,
 WHATEVER THEY MAY BE, ARE NO MORE "UNNATURAL" THAN 
 THE FLIGHT OF AN EAGLE OR THE PASSAGE OF A TORNADO.

                                    -- CHARLES MCCARRY IN "THE GREAT SOUTHWEST"
 Job cpu time:  0 days  9 hours 14 minutes 46.5 seconds.
 File lengths (MBytes):  RWF=    244 Int=      0 D2E=      0 Chk=     25 Scr=      1
 Normal termination of Gaussian 09 at Wed Apr  8 23:53:42 2020.
