
    -----------------------------------------------------------------------
          Psi4: An Open-Source Ab Initio Electronic Structure Package
                               Psi4 1.3.2 release

                         Git: Rev {HEAD} ecbda83 


    R. M. Parrish, L. A. Burns, D. G. A. Smith, A. C. Simmonett,
    A. E. DePrince III, E. G. Hohenstein, U. Bozkaya, A. Yu. Sokolov,
    R. Di Remigio, R. M. Richard, J. F. Gonthier, A. M. James,
    H. R. McAlexander, A. Kumar, M. Saitow, X. Wang, B. P. Pritchard,
    P. Verma, H. F. Schaefer III, K. Patkowski, R. A. King, E. F. Valeev,
    F. A. Evangelista, J. M. Turney, T. D. Crawford, and C. D. Sherrill,
    J. Chem. Theory Comput. 13(7) pp 3185--3197 (2017).
    (doi: 10.1021/acs.jctc.7b00174)


                         Additional Contributions by
    P. Kraus, H. Kruse, M. H. Lechner, M. C. Schieber, R. A. Shaw,
    A. Alenaizan, R. Galvelis, Z. L. Glick, S. Lehtola, and J. P. Misiewicz

    -----------------------------------------------------------------------


    Psi4 started on: Tuesday, 14 April 2020 12:44PM

    Process ID: 44638
    Host:       node80.bme.utexas.edu
    PSIDATADIR: /home/bdw2292/miniconda3/envs/p4env/share/psi4
    Memory:     500.0 MiB
    Threads:    1
    
  ==> Input File <==

--------------------------------------------------------------------------
molecule { 
0 1
 C   -1.585710    5.082299   -0.992361
 C   -2.878335    4.541829   -0.989451
 C   -3.075084    3.189971   -0.644623
 C   -1.909210    2.466936   -0.291474
 N   -0.667695    2.968695   -0.281386
 C   -0.516575    4.254210   -0.633828
 C   -4.425672    2.519170   -0.621641
 C   -5.656197    3.178972   -0.776929
 C   -6.797490    2.374186   -0.683299
 N   -6.773034    1.059952   -0.474272
 C   -5.549270    0.506048   -0.355503
 N   -4.404238    1.187435   -0.423727
 N   -5.541762   -0.862763   -0.152925
 C   -4.500475   -1.817062    0.131454
 C   -4.844037   -3.079759    0.703923
 C   -3.791739   -3.963897    0.994398
 C   -2.443534   -3.681089    0.748072
 C   -2.120884   -2.456363    0.154107
 C   -3.152081   -1.549761   -0.140168
 N   -0.798885   -2.017817   -0.172713
 C    0.435242   -2.521221    0.168598
 C    1.596214   -1.607901   -0.158516
 C    2.533629   -1.994224   -1.127605
 C    3.571840   -1.129512   -1.482804
 C    3.709455    0.139198   -0.885876
 C    2.776887    0.495572    0.107544
 C    1.742158   -0.365814    0.478719
 C    4.854868    1.078736   -1.267922
 N    6.114140    1.050847   -0.505530
 C    6.970663   -0.154559   -0.594061
 C    6.752808   -1.194605    0.535630
 N    6.837112   -0.626057    1.902403
 C    8.184666   -0.442933    2.454452
 C    5.920993    0.536197    1.988998
 C    6.134292    1.592126    0.873239
 O    0.606623   -3.615094    0.679775
 C   -6.271148   -3.488366    1.029382
 H   -1.409473    6.118257   -1.265963
 H   -3.708310    5.182395   -1.277433
 H   -1.981540    1.430599    0.023734
 H    0.506361    4.627027   -0.618824
 H   -5.765086    4.245157   -0.932612
 H   -7.801495    2.787988   -0.772790
 H   -6.492974   -1.192149   -0.086863
 H   -4.019143   -4.929050    1.445563
 H   -1.660361   -4.385373    1.000100
 H   -2.908591   -0.607682   -0.604066
 H   -0.762213   -1.139217   -0.671729
 H    2.429587   -2.966660   -1.602005
 H    4.287575   -1.453172   -2.238004
 H    2.849431    1.466340    0.597341
 H    1.019284   -0.068029    1.234227
 H    5.120438    0.883204   -2.316876
 H    4.480398    2.111088   -1.221111
 H    6.854070   -0.664835   -1.657924
 H    8.371556    0.306434   -0.507094
 H    7.571601   -2.131916    0.431532
 H    5.433683   -1.766716    0.405007
 H    8.743818    0.307882    1.884826
 H    8.736432   -1.389648    2.427267
 H    8.123840   -0.120310    3.500143
 H    6.057343    1.098006    3.170459
 H    4.659156    0.050023    1.921597
 H    7.469751    2.185376    1.079631
 H    5.374059    2.462364    0.978229
 H   -6.920052   -3.505105    0.142083
 H   -6.723777   -2.798692    1.747510
 H   -6.333798   -4.485671    1.472542
}
memory 20GB
set_num_threads(6)
psi4_io.set_default_path("/scratch/bdw2292")
set freeze_core True
E, wfn = energy('mp2/6-311++G**',return_wfn=True)
oeprop(wfn,"WIBERG_LOWDIN_INDICES")
clean()
--------------------------------------------------------------------------

  Memory set to  18.626 GiB by Python driver.
  Threads set to 6 by Python driver.
    SCF Algorithm Type (re)set to DF.

*** tstart() called on node80.bme.utexas.edu
*** at Tue Apr 14 12:44:33 2020

   => Loading Basis Set <=

    Name: 6-311++G**
    Role: ORBITAL
    Keyword: BASIS
    atoms 1-4, 6-9, 11, 14-19, 21-28, 30-31, 33-35, 37 entry C          line   119 file /home/bdw2292/miniconda3/envs/p4env/share/psi4/basis/6-311ppgss.gbs 
    atoms 5, 10, 12-13, 20, 29, 32                     entry N          line   140 file /home/bdw2292/miniconda3/envs/p4env/share/psi4/basis/6-311ppgss.gbs 
    atoms 36                                           entry O          line   161 file /home/bdw2292/miniconda3/envs/p4env/share/psi4/basis/6-311ppgss.gbs 
    atoms 38-68                                        entry H          line    42 file /home/bdw2292/miniconda3/envs/p4env/share/psi4/basis/6-311ppgss.gbs 


         ---------------------------------------------------------
                                   SCF
               by Justin Turney, Rob Parrish, Andy Simmonett
                          and Daniel G. A. Smith
                              RHF Reference
                        6 Threads,  19073 MiB Core
         ---------------------------------------------------------

  ==> Geometry <==

    Molecular point group: c1
    Full point group: C1

    Geometry (in Angstrom), charge = 0, multiplicity = 1:

       Center              X                  Y                   Z               Mass       
    ------------   -----------------  -----------------  -----------------  -----------------
         C           -1.436352598629     5.056752686004    -0.995962820418    12.000000000000
         C           -2.728977598629     4.516282686004    -0.993052820418    12.000000000000
         C           -2.925726598629     3.164424686004    -0.648224820418    12.000000000000
         C           -1.759852598629     2.441389686004    -0.295075820418    12.000000000000
         N           -0.518337598629     2.943148686004    -0.284987820418    14.003074004430
         C           -0.367217598629     4.228663686004    -0.637429820418    12.000000000000
         C           -4.276314598629     2.493623686004    -0.625242820418    12.000000000000
         C           -5.506839598629     3.153425686004    -0.780530820418    12.000000000000
         C           -6.648132598629     2.348639686004    -0.686900820418    12.000000000000
         N           -6.623676598629     1.034405686004    -0.477873820418    14.003074004430
         C           -5.399912598629     0.480501686004    -0.359104820418    12.000000000000
         N           -4.254880598629     1.161888686004    -0.427328820418    14.003074004430
         N           -5.392404598629    -0.888309313996    -0.156526820418    14.003074004430
         C           -4.351117598629    -1.842608313996     0.127852179582    12.000000000000
         C           -4.694679598629    -3.105305313996     0.700321179582    12.000000000000
         C           -3.642381598629    -3.989443313996     0.990796179582    12.000000000000
         C           -2.294176598629    -3.706635313996     0.744470179582    12.000000000000
         C           -1.971526598629    -2.481909313996     0.150505179582    12.000000000000
         C           -3.002723598629    -1.575307313996    -0.143769820418    12.000000000000
         N           -0.649527598629    -2.043363313996    -0.176314820418    14.003074004430
         C            0.584599401371    -2.546767313996     0.164996179582    12.000000000000
         C            1.745571401371    -1.633447313996    -0.162117820418    12.000000000000
         C            2.682986401371    -2.019770313996    -1.131206820418    12.000000000000
         C            3.721197401371    -1.155058313996    -1.486405820418    12.000000000000
         C            3.858812401371     0.113651686004    -0.889477820418    12.000000000000
         C            2.926244401371     0.470025686004     0.103942179582    12.000000000000
         C            1.891515401371    -0.391360313996     0.475117179582    12.000000000000
         C            5.004225401371     1.053189686004    -1.271523820418    12.000000000000
         N            6.263497401371     1.025300686004    -0.509131820418    14.003074004430
         C            7.120020401371    -0.180105313996    -0.597662820418    12.000000000000
         C            6.902165401371    -1.220151313996     0.532028179582    12.000000000000
         N            6.986469401371    -0.651603313996     1.898801179582    14.003074004430
         C            8.334023401371    -0.468479313996     2.450850179582    12.000000000000
         C            6.070350401371     0.510650686004     1.985396179582    12.000000000000
         C            6.283649401371     1.566579686004     0.869637179582    12.000000000000
         O            0.755980401371    -3.640640313996     0.676173179582    15.994914619570
         C           -6.121790598629    -3.513912313996     1.025780179582    12.000000000000
         H           -1.260115598629     6.092710686004    -1.269564820418     1.007825032230
         H           -3.558952598629     5.156848686004    -1.281034820418     1.007825032230
         H           -1.832182598629     1.405052686004     0.020132179582     1.007825032230
         H            0.655718401371     4.601480686004    -0.622425820418     1.007825032230
         H           -5.615728598629     4.219610686004    -0.936213820418     1.007825032230
         H           -7.652137598629     2.762441686004    -0.776391820418     1.007825032230
         H           -6.343616598629    -1.217695313996    -0.090464820418     1.007825032230
         H           -3.869785598629    -4.954596313996     1.441961179582     1.007825032230
         H           -1.511003598629    -4.410919313996     0.996498179582     1.007825032230
         H           -2.759233598629    -0.633228313996    -0.607667820418     1.007825032230
         H           -0.612855598629    -1.164763313996    -0.675330820418     1.007825032230
         H            2.578944401371    -2.992206313996    -1.605606820418     1.007825032230
         H            4.436932401371    -1.478718313996    -2.241605820418     1.007825032230
         H            2.998788401371     1.440793686004     0.593739179582     1.007825032230
         H            1.168641401371    -0.093575313996     1.230625179582     1.007825032230
         H            5.269795401371     0.857657686004    -2.320477820418     1.007825032230
         H            4.629755401371     2.085541686004    -1.224712820418     1.007825032230
         H            7.003427401371    -0.690381313996    -1.661525820418     1.007825032230
         H            8.520913401371     0.280887686004    -0.510695820418     1.007825032230
         H            7.720958401371    -2.157462313996     0.427930179582     1.007825032230
         H            5.583040401371    -1.792262313996     0.401405179582     1.007825032230
         H            8.893175401371     0.282335686004     1.881224179582     1.007825032230
         H            8.885789401371    -1.415194313996     2.423665179582     1.007825032230
         H            8.273197401371    -0.145856313996     3.496541179582     1.007825032230
         H            6.206700401371     1.072459686004     3.166857179582     1.007825032230
         H            4.808513401371     0.024476686004     1.917995179582     1.007825032230
         H            7.619108401371     2.159829686004     1.076029179582     1.007825032230
         H            5.523416401371     2.436817686004     0.974627179582     1.007825032230
         H           -6.770694598629    -3.530651313996     0.138481179582     1.007825032230
         H           -6.574419598629    -2.824238313996     1.743908179582     1.007825032230
         H           -6.184440598629    -4.511217313996     1.468940179582     1.007825032230

  Running in c1 symmetry.

  Rotational constants: A =      0.00506  B =      0.00157  C =      0.00125 [cm^-1]
  Rotational constants: A =    151.77860  B =     46.96120  C =     37.57746 [MHz]
  Nuclear repulsion = 3680.865285744993344

  Charge       = 0
  Multiplicity = 1
  Electrons    = 262
  Nalpha       = 131
  Nbeta        = 131

  ==> Algorithm <==

  SCF Algorithm Type is DF.
  DIIS enabled.
  MOM disabled.
  Fractional occupation disabled.
  Guess Type is SAD.
  Energy threshold   = 1.00e-08
  Density threshold  = 1.00e-08
  Integral threshold = 0.00e+00

  ==> Primary Basis <==

  Basis Set: 6-311++G**
    Blend: 6-311++G**
    Number of shells: 525
    Number of basis function: 1031
    Number of Cartesian functions: 1068
    Spherical Harmonics?: true
    Max angular momentum: 2

   => Loading Basis Set <=

    Name: (6-311++G** AUX)
    Role: JKFIT
    Keyword: DF_BASIS_SCF
    atoms 1-4, 6-9, 11, 14-19, 21-28, 30-31, 33-35, 37 entry C          line   162 file /home/bdw2292/miniconda3/envs/p4env/share/psi4/basis/aug-cc-pvtz-jkfit.gbs 
    atoms 5, 10, 12-13, 20, 29, 32                     entry N          line   224 file /home/bdw2292/miniconda3/envs/p4env/share/psi4/basis/aug-cc-pvtz-jkfit.gbs 
    atoms 36                                           entry O          line   286 file /home/bdw2292/miniconda3/envs/p4env/share/psi4/basis/aug-cc-pvtz-jkfit.gbs 
    atoms 38-68                                        entry H          line    70 file /home/bdw2292/miniconda3/envs/p4env/share/psi4/basis/aug-cc-pvtz-jkfit.gbs 

  ==> Pre-Iterations <==

   -------------------------------------------------------
    Irrep   Nso     Nmo     Nalpha   Nbeta   Ndocc  Nsocc
   -------------------------------------------------------
     A       1031    1031       0       0       0       0
   -------------------------------------------------------
    Total    1031    1031     131     131     131       0
   -------------------------------------------------------

  ==> Integral Setup <==

  ==> DiskDFJK: Density-Fitted J/K Matrices <==

    J tasked:                  Yes
    K tasked:                  Yes
    wK tasked:                  No
    OpenMP threads:              6
    Integrals threads:           6
    Memory [MiB]:            14305
    Algorithm:                Core
    Integral Cache:           NONE
    Schwarz Cutoff:          1E-12
    Fitting Condition:       1E-10

   => Auxiliary Basis Set <=

  Basis Set: (6-311++G** AUX)
    Blend: AUG-CC-PVTZ-JKFIT
    Number of shells: 1544
    Number of basis function: 5274
    Number of Cartesian functions: 6552
    Spherical Harmonics?: true
    Max angular momentum: 4

  Minimum eigenvalue in the overlap matrix is 1.3587716841E-07.
  Using Symmetric Orthogonalization.

  SCF Guess: Superposition of Atomic Densities via on-the-fly atomic UHF.

  ==> Iterations <==

                           Total Energy        Delta E     RMS |[F,P]|

   @DF-RHF iter SAD: -1571.20144746965980   -1.57120e+03   0.00000e+00 
   @DF-RHF iter   1: -1571.38686864156898   -1.85421e-01   1.21267e-03 DIIS
   @DF-RHF iter   2: -1572.14936748999162   -7.62499e-01   6.39100e-04 DIIS
   @DF-RHF iter   3: -1572.34070457711391   -1.91337e-01   1.66272e-04 DIIS
   @DF-RHF iter   4: -1572.35778046530913   -1.70759e-02   6.62601e-05 DIIS
   @DF-RHF iter   5: -1572.36038293686624   -2.60247e-03   1.36541e-05 DIIS
   @DF-RHF iter   6: -1572.36053532314054   -1.52386e-04   5.92260e-06 DIIS
   @DF-RHF iter   7: -1572.36056976451323   -3.44414e-05   1.94139e-06 DIIS
   @DF-RHF iter   8: -1572.36057519019960   -5.42569e-06   7.78029e-07 DIIS
   @DF-RHF iter   9: -1572.36057612193599   -9.31736e-07   3.21594e-07 DIIS
   @DF-RHF iter  10: -1572.36057630289656   -1.80961e-07   1.42213e-07 DIIS
   @DF-RHF iter  11: -1572.36057633776431   -3.48678e-08   6.51795e-08 DIIS
   @DF-RHF iter  12: -1572.36057634651593   -8.75161e-09   2.64438e-08 DIIS
   @DF-RHF iter  13: -1572.36057634814347   -1.62754e-09   1.12751e-08 DIIS
   @DF-RHF iter  14: -1572.36057634849726   -3.53793e-10   5.43709e-09 DIIS
  Energy and wave function converged.


  ==> Post-Iterations <==

    Orbital Energies [Eh]
    ---------------------

    Doubly Occupied:                                                      

       1A    -20.526185     2A    -15.603524     3A    -15.603296  
       4A    -15.583524     5A    -15.572839     6A    -15.568604  
       7A    -15.566208     8A    -15.551473     9A    -11.374126  
      10A    -11.365035    11A    -11.333873    12A    -11.313144  
      13A    -11.308115    14A    -11.305477    15A    -11.302831  
      16A    -11.302096    17A    -11.301708    18A    -11.298789  
      19A    -11.297758    20A    -11.292978    21A    -11.287611  
      22A    -11.278462    23A    -11.275688    24A    -11.263826  
      25A    -11.257337    26A    -11.253618    27A    -11.251683  
      28A    -11.251663    29A    -11.250822    30A    -11.247784  
      31A    -11.246564    32A    -11.245979    33A    -11.243625  
      34A    -11.240371    35A    -11.234449    36A    -11.232346  
      37A    -11.225701    38A     -1.388797    39A     -1.344816  
      40A     -1.275675    41A     -1.253115    42A     -1.242536  
      43A     -1.241757    44A     -1.208945    45A     -1.196352  
      46A     -1.161827    47A     -1.140239    48A     -1.114421  
      49A     -1.074482    50A     -1.059942    51A     -1.046843  
      52A     -1.037594    53A     -1.024056    54A     -1.008259  
      55A     -0.989124    56A     -0.974842    57A     -0.946879  
      58A     -0.925774    59A     -0.925075    60A     -0.900404  
      61A     -0.871169    62A     -0.865497    63A     -0.856680  
      64A     -0.841592    65A     -0.834200    66A     -0.824997  
      67A     -0.823968    68A     -0.804373    69A     -0.779047  
      70A     -0.753705    71A     -0.736916    72A     -0.731087  
      73A     -0.720895    74A     -0.699954    75A     -0.693042  
      76A     -0.681994    77A     -0.672516    78A     -0.665389  
      79A     -0.658670    80A     -0.656046    81A     -0.652356  
      82A     -0.642515    83A     -0.639740    84A     -0.628608  
      85A     -0.622684    86A     -0.618544    87A     -0.612255  
      88A     -0.606336    89A     -0.602504    90A     -0.601624  
      91A     -0.598379    92A     -0.594831    93A     -0.591841  
      94A     -0.585620    95A     -0.582992    96A     -0.580993  
      97A     -0.579090    98A     -0.569533    99A     -0.564383  
     100A     -0.559359   101A     -0.548577   102A     -0.542704  
     103A     -0.528915   104A     -0.525467   105A     -0.523223  
     106A     -0.519883   107A     -0.513661   108A     -0.509449  
     109A     -0.506014   110A     -0.504737   111A     -0.500406  
     112A     -0.494279   113A     -0.485191   114A     -0.481206  
     115A     -0.455969   116A     -0.450887   117A     -0.439393  
     118A     -0.434105   119A     -0.427494   120A     -0.425846  
     121A     -0.413486   122A     -0.404311   123A     -0.398426  
     124A     -0.378712   125A     -0.373075   126A     -0.344987  
     127A     -0.343289   128A     -0.341956   129A     -0.315512  
     130A     -0.309983   131A     -0.291134  

    Virtual:                                                              

     132A      0.026942   133A      0.035005   134A      0.040921  
     135A      0.042968   136A      0.044234   137A      0.046614  
     138A      0.049913   139A      0.053655   140A      0.057912  
     141A      0.061658   142A      0.062925   143A      0.065277  
     144A      0.067794   145A      0.068424   146A      0.071797  
     147A      0.075425   148A      0.078298   149A      0.079788  
     150A      0.082161   151A      0.086914   152A      0.087249  
     153A      0.091009   154A      0.094604   155A      0.095182  
     156A      0.098764   157A      0.100083   158A      0.101699  
     159A      0.102985   160A      0.106088   161A      0.110033  
     162A      0.110624   163A      0.112720   164A      0.114651  
     165A      0.115738   166A      0.118331   167A      0.121073  
     168A      0.121650   169A      0.124179   170A      0.128346  
     171A      0.132424   172A      0.137393   173A      0.140195  
     174A      0.141934   175A      0.146059   176A      0.146742  
     177A      0.148044   178A      0.149870   179A      0.152378  
     180A      0.156098   181A      0.158560   182A      0.159264  
     183A      0.160774   184A      0.162787   185A      0.165695  
     186A      0.166486   187A      0.168738   188A      0.169354  
     189A      0.172233   190A      0.173302   191A      0.175308  
     192A      0.178185   193A      0.178819   194A      0.181103  
     195A      0.182182   196A      0.183862   197A      0.186245  
     198A      0.187123   199A      0.190206   200A      0.191865  
     201A      0.193268   202A      0.196570   203A      0.198026  
     204A      0.198944   205A      0.199246   206A      0.200900  
     207A      0.204321   208A      0.205990   209A      0.207390  
     210A      0.209813   211A      0.210465   212A      0.212961  
     213A      0.213872   214A      0.216388   215A      0.218414  
     216A      0.219111   217A      0.222052   218A      0.222244  
     219A      0.223208   220A      0.225619   221A      0.226339  
     222A      0.228471   223A      0.230254   224A      0.232787  
     225A      0.233210   226A      0.238063   227A      0.238544  
     228A      0.240683   229A      0.243690   230A      0.244798  
     231A      0.247222   232A      0.248840   233A      0.250603  
     234A      0.253477   235A      0.254461   236A      0.257173  
     237A      0.259903   238A      0.262703   239A      0.264436  
     240A      0.266842   241A      0.268642   242A      0.269604  
     243A      0.273955   244A      0.276975   245A      0.278556  
     246A      0.280519   247A      0.283371   248A      0.285777  
     249A      0.288525   250A      0.289967   251A      0.292951  
     252A      0.294672   253A      0.296139   254A      0.296886  
     255A      0.302035   256A      0.304889   257A      0.306603  
     258A      0.308407   259A      0.311400   260A      0.316778  
     261A      0.318532   262A      0.320567   263A      0.321738  
     264A      0.325885   265A      0.327590   266A      0.329482  
     267A      0.330134   268A      0.331470   269A      0.333028  
     270A      0.336675   271A      0.337098   272A      0.339398  
     273A      0.341561   274A      0.343330   275A      0.343656  
     276A      0.348364   277A      0.349860   278A      0.353276  
     279A      0.355348   280A      0.358272   281A      0.358916  
     282A      0.362192   283A      0.363282   284A      0.365506  
     285A      0.366599   286A      0.367312   287A      0.369577  
     288A      0.371205   289A      0.372974   290A      0.374479  
     291A      0.375502   292A      0.376641   293A      0.381354  
     294A      0.382954   295A      0.383862   296A      0.385762  
     297A      0.386648   298A      0.388512   299A      0.390061  
     300A      0.393202   301A      0.395252   302A      0.396632  
     303A      0.399239   304A      0.401078   305A      0.402958  
     306A      0.403332   307A      0.405583   308A      0.406502  
     309A      0.408839   310A      0.411201   311A      0.413363  
     312A      0.415224   313A      0.417370   314A      0.418276  
     315A      0.420410   316A      0.421899   317A      0.424147  
     318A      0.425459   319A      0.427544   320A      0.429835  
     321A      0.432213   322A      0.434690   323A      0.435755  
     324A      0.437635   325A      0.439142   326A      0.441478  
     327A      0.442887   328A      0.446747   329A      0.448689  
     330A      0.451610   331A      0.452336   332A      0.454111  
     333A      0.456815   334A      0.458768   335A      0.461404  
     336A      0.464101   337A      0.466861   338A      0.468651  
     339A      0.471547   340A      0.473590   341A      0.477179  
     342A      0.480192   343A      0.480759   344A      0.486288  
     345A      0.487748   346A      0.489176   347A      0.493517  
     348A      0.495757   349A      0.499630   350A      0.500757  
     351A      0.504526   352A      0.506073   353A      0.509198  
     354A      0.514565   355A      0.515432   356A      0.517415  
     357A      0.519656   358A      0.521958   359A      0.529082  
     360A      0.531845   361A      0.533510   362A      0.537730  
     363A      0.539810   364A      0.540470   365A      0.543432  
     366A      0.547231   367A      0.552171   368A      0.553254  
     369A      0.561719   370A      0.563948   371A      0.570838  
     372A      0.576079   373A      0.579633   374A      0.583369  
     375A      0.589153   376A      0.598244   377A      0.599795  
     378A      0.602281   379A      0.604145   380A      0.609285  
     381A      0.616149   382A      0.621030   383A      0.623732  
     384A      0.628494   385A      0.635057   386A      0.637990  
     387A      0.651384   388A      0.657914   389A      0.667321  
     390A      0.686414   391A      0.690714   392A      0.697313  
     393A      0.701750   394A      0.702863   395A      0.708565  
     396A      0.716208   397A      0.720473   398A      0.724118  
     399A      0.729739   400A      0.734174   401A      0.737340  
     402A      0.740823   403A      0.746317   404A      0.749657  
     405A      0.755193   406A      0.755808   407A      0.760160  
     408A      0.764460   409A      0.765713   410A      0.769112  
     411A      0.772659   412A      0.777279   413A      0.782302  
     414A      0.787653   415A      0.790829   416A      0.798254  
     417A      0.800157   418A      0.804398   419A      0.806586  
     420A      0.808113   421A      0.810817   422A      0.811972  
     423A      0.813543   424A      0.818420   425A      0.822376  
     426A      0.825257   427A      0.830700   428A      0.835021  
     429A      0.837750   430A      0.841218   431A      0.844225  
     432A      0.852416   433A      0.855221   434A      0.859218  
     435A      0.863290   436A      0.865530   437A      0.868707  
     438A      0.870399   439A      0.875876   440A      0.880832  
     441A      0.883613   442A      0.885031   443A      0.888726  
     444A      0.890917   445A      0.892477   446A      0.896034  
     447A      0.900617   448A      0.904233   449A      0.906609  
     450A      0.911197   451A      0.913522   452A      0.914973  
     453A      0.919780   454A      0.922488   455A      0.926652  
     456A      0.932974   457A      0.933762   458A      0.936259  
     459A      0.937141   460A      0.939518   461A      0.941856  
     462A      0.945333   463A      0.948796   464A      0.949605  
     465A      0.952324   466A      0.960319   467A      0.962614  
     468A      0.965562   469A      0.966800   470A      0.974793  
     471A      0.976852   472A      0.978367   473A      0.981681  
     474A      0.987803   475A      0.992530   476A      0.993822  
     477A      0.996368   478A      0.998216   479A      1.004370  
     480A      1.011033   481A      1.011661   482A      1.016659  
     483A      1.019907   484A      1.024644   485A      1.027775  
     486A      1.032186   487A      1.036584   488A      1.039511  
     489A      1.046116   490A      1.050300   491A      1.056024  
     492A      1.058746   493A      1.062419   494A      1.064758  
     495A      1.070519   496A      1.073101   497A      1.077453  
     498A      1.082692   499A      1.086083   500A      1.094631  
     501A      1.096024   502A      1.096437   503A      1.107848  
     504A      1.111390   505A      1.113784   506A      1.120500  
     507A      1.126328   508A      1.133818   509A      1.138137  
     510A      1.141113   511A      1.146287   512A      1.149711  
     513A      1.151472   514A      1.156445   515A      1.159336  
     516A      1.161125   517A      1.162108   518A      1.168722  
     519A      1.173621   520A      1.174407   521A      1.178890  
     522A      1.185053   523A      1.188263   524A      1.189617  
     525A      1.195508   526A      1.201946   527A      1.204535  
     528A      1.209594   529A      1.214550   530A      1.220998  
     531A      1.224622   532A      1.229722   533A      1.230379  
     534A      1.236033   535A      1.237398   536A      1.240907  
     537A      1.243121   538A      1.249970   539A      1.254229  
     540A      1.255209   541A      1.257417   542A      1.258748  
     543A      1.265224   544A      1.267095   545A      1.272566  
     546A      1.279761   547A      1.282725   548A      1.286574  
     549A      1.292404   550A      1.296014   551A      1.306114  
     552A      1.308376   553A      1.311823   554A      1.315725  
     555A      1.320684   556A      1.330513   557A      1.334866  
     558A      1.343540   559A      1.344081   560A      1.352826  
     561A      1.356303   562A      1.368439   563A      1.370602  
     564A      1.382220   565A      1.386456   566A      1.389873  
     567A      1.400022   568A      1.405473   569A      1.410051  
     570A      1.417530   571A      1.421948   572A      1.435035  
     573A      1.440885   574A      1.445489   575A      1.453323  
     576A      1.461223   577A      1.469906   578A      1.471927  
     579A      1.474165   580A      1.488481   581A      1.495190  
     582A      1.499647   583A      1.500865   584A      1.512615  
     585A      1.527329   586A      1.531280   587A      1.542857  
     588A      1.547516   589A      1.555142   590A      1.563894  
     591A      1.572656   592A      1.586574   593A      1.597243  
     594A      1.608454   595A      1.613395   596A      1.618817  
     597A      1.633402   598A      1.635763   599A      1.641849  
     600A      1.648362   601A      1.656102   602A      1.673831  
     603A      1.676207   604A      1.687328   605A      1.693952  
     606A      1.701298   607A      1.711248   608A      1.716607  
     609A      1.722021   610A      1.729021   611A      1.738961  
     612A      1.744596   613A      1.748653   614A      1.751304  
     615A      1.758845   616A      1.763483   617A      1.769090  
     618A      1.772330   619A      1.779658   620A      1.786720  
     621A      1.788906   622A      1.792869   623A      1.801861  
     624A      1.807678   625A      1.808472   626A      1.819074  
     627A      1.819628   628A      1.823571   629A      1.824568  
     630A      1.828482   631A      1.834346   632A      1.835542  
     633A      1.838854   634A      1.844120   635A      1.848322  
     636A      1.852551   637A      1.853812   638A      1.856882  
     639A      1.860763   640A      1.861969   641A      1.867109  
     642A      1.869839   643A      1.877073   644A      1.881567  
     645A      1.890361   646A      1.895514   647A      1.897715  
     648A      1.904926   649A      1.918351   650A      1.919288  
     651A      1.926854   652A      1.932969   653A      1.934540  
     654A      1.940665   655A      1.943214   656A      1.948590  
     657A      1.956381   658A      1.962710   659A      1.966590  
     660A      1.969980   661A      1.973603   662A      1.975282  
     663A      1.979980   664A      1.983746   665A      1.989662  
     666A      1.993235   667A      1.995894   668A      2.000698  
     669A      2.005079   670A      2.007487   671A      2.010778  
     672A      2.014501   673A      2.022328   674A      2.027998  
     675A      2.030517   676A      2.039986   677A      2.041683  
     678A      2.047058   679A      2.052812   680A      2.056455  
     681A      2.063834   682A      2.069167   683A      2.071784  
     684A      2.075764   685A      2.081759   686A      2.085962  
     687A      2.092564   688A      2.101021   689A      2.108246  
     690A      2.112473   691A      2.118566   692A      2.122260  
     693A      2.127330   694A      2.136566   695A      2.144144  
     696A      2.149589   697A      2.161010   698A      2.171564  
     699A      2.176454   700A      2.180051   701A      2.184614  
     702A      2.188374   703A      2.193221   704A      2.200784  
     705A      2.207599   706A      2.216056   707A      2.224542  
     708A      2.226317   709A      2.231061   710A      2.236721  
     711A      2.240762   712A      2.245598   713A      2.251730  
     714A      2.252144   715A      2.256340   716A      2.259230  
     717A      2.261941   718A      2.268000   719A      2.271167  
     720A      2.276397   721A      2.278844   722A      2.284534  
     723A      2.292805   724A      2.295854   725A      2.301977  
     726A      2.302744   727A      2.309343   728A      2.314771  
     729A      2.327588   730A      2.334529   731A      2.337011  
     732A      2.339644   733A      2.346558   734A      2.354365  
     735A      2.360788   736A      2.368765   737A      2.370530  
     738A      2.384029   739A      2.394176   740A      2.396987  
     741A      2.401241   742A      2.406005   743A      2.416299  
     744A      2.426171   745A      2.432205   746A      2.435581  
     747A      2.445747   748A      2.453395   749A      2.457190  
     750A      2.468828   751A      2.473313   752A      2.476971  
     753A      2.492069   754A      2.494499   755A      2.517676  
     756A      2.523816   757A      2.534723   758A      2.537085  
     759A      2.542042   760A      2.543149   761A      2.553822  
     762A      2.564558   763A      2.574736   764A      2.580305  
     765A      2.583540   766A      2.594525   767A      2.604635  
     768A      2.620920   769A      2.632657   770A      2.646573  
     771A      2.650911   772A      2.661003   773A      2.668260  
     774A      2.677962   775A      2.694667   776A      2.698543  
     777A      2.700402   778A      2.706370   779A      2.718895  
     780A      2.731204   781A      2.739965   782A      2.745821  
     783A      2.756287   784A      2.778833   785A      2.780920  
     786A      2.783317   787A      2.794886   788A      2.798145  
     789A      2.811369   790A      2.815815   791A      2.824922  
     792A      2.830262   793A      2.832077   794A      2.843968  
     795A      2.851548   796A      2.855201   797A      2.867150  
     798A      2.875030   799A      2.876635   800A      2.879790  
     801A      2.887770   802A      2.896983   803A      2.899194  
     804A      2.908499   805A      2.929458   806A      2.936566  
     807A      2.942480   808A      2.944280   809A      2.948926  
     810A      2.960905   811A      2.970485   812A      2.976147  
     813A      2.979597   814A      2.980059   815A      2.987326  
     816A      2.988794   817A      3.002736   818A      3.006735  
     819A      3.012675   820A      3.014700   821A      3.031289  
     822A      3.031400   823A      3.037204   824A      3.046626  
     825A      3.048896   826A      3.056147   827A      3.061934  
     828A      3.066066   829A      3.070225   830A      3.077803  
     831A      3.086559   832A      3.091938   833A      3.097553  
     834A      3.102911   835A      3.103562   836A      3.109743  
     837A      3.113666   838A      3.120268   839A      3.122846  
     840A      3.125357   841A      3.128903   842A      3.134162  
     843A      3.138104   844A      3.142251   845A      3.145164  
     846A      3.151833   847A      3.162982   848A      3.170151  
     849A      3.186512   850A      3.193693   851A      3.198286  
     852A      3.203214   853A      3.207670   854A      3.215181  
     855A      3.228281   856A      3.230082   857A      3.242351  
     858A      3.248034   859A      3.256221   860A      3.261759  
     861A      3.269188   862A      3.271238   863A      3.277158  
     864A      3.288306   865A      3.289045   866A      3.291379  
     867A      3.302270   868A      3.302451   869A      3.307820  
     870A      3.317590   871A      3.320692   872A      3.325909  
     873A      3.333570   874A      3.334844   875A      3.343889  
     876A      3.344075   877A      3.347975   878A      3.352970  
     879A      3.362837   880A      3.363857   881A      3.366074  
     882A      3.377523   883A      3.383480   884A      3.391179  
     885A      3.396524   886A      3.404160   887A      3.410503  
     888A      3.415764   889A      3.427730   890A      3.440356  
     891A      3.446202   892A      3.461428   893A      3.464776  
     894A      3.509592   895A      3.518523   896A      3.535761  
     897A      3.591662   898A      3.594680   899A      3.609755  
     900A      3.613255   901A      3.621936   902A      3.636629  
     903A      3.650641   904A      3.654215   905A      3.668847  
     906A      3.676750   907A      3.679290   908A      3.688156  
     909A      3.762649   910A      3.773018   911A      3.780412  
     912A      3.782118   913A      3.797887   914A      3.810179  
     915A      3.814386   916A      3.851343   917A      3.856188  
     918A      3.871306   919A      3.878891   920A      3.886078  
     921A      3.899076   922A      3.910674   923A      3.919269  
     924A      3.924387   925A      3.924840   926A      3.937402  
     927A      3.949875   928A      3.956528   929A      3.973551  
     930A      3.980283   931A      3.987868   932A      4.007124  
     933A      4.047158   934A      4.059890   935A      4.068001  
     936A      4.074962   937A      4.097051   938A      4.097878  
     939A      4.119241   940A      4.123181   941A      4.145371  
     942A      4.155910   943A      4.174326   944A      4.187931  
     945A      4.190222   946A      4.203205   947A      4.208876  
     948A      4.216362   949A      4.258183   950A      4.295073  
     951A      4.353032   952A      4.360032   953A      4.380083  
     954A      4.414133   955A      4.417303   956A      4.420874  
     957A      4.426936   958A      4.429319   959A      4.437602  
     960A      4.441942   961A      4.452326   962A      4.455532  
     963A      4.517654   964A      4.541679   965A      4.551677  
     966A      4.578714   967A      4.580866   968A      4.609037  
     969A      4.620122   970A      4.651456   971A      4.708445  
     972A      4.764309   973A      4.769781   974A      4.779492  
     975A      4.907742   976A      4.936879   977A      5.003133  
     978A      5.042741   979A      5.222048   980A      5.248477  
     981A      5.264758   982A      5.278800   983A      5.289946  
     984A      5.334110   985A      5.344308   986A      5.386611  
     987A      5.420362   988A      5.589315   989A      5.690817  
     990A      5.710627   991A      5.797033   992A      5.855778  
     993A      5.879970   994A      6.386296   995A     24.773287  
     996A     24.779099   997A     24.814188   998A     24.820100  
     999A     24.838562  1000A     24.860080  1001A     24.938321  
    1002A     24.955550  1003A     25.017195  1004A     25.021498  
    1005A     25.047652  1006A     25.069701  1007A     25.070843  
    1008A     25.091065  1009A     25.100206  1010A     25.119631  
    1011A     25.124115  1012A     25.132528  1013A     25.137501  
    1014A     25.162395  1015A     25.172710  1016A     25.204489  
    1017A     25.217066  1018A     25.236087  1019A     25.243584  
    1020A     25.248215  1021A     25.250830  1022A     25.323309  
    1023A     25.328834  1024A     36.950625  1025A     36.989270  
    1026A     37.020992  1027A     37.063043  1028A     37.075724  
    1029A     37.135318  1030A     37.152997  1031A     51.751918  

    Final Occupation by Irrep:
              A 
    DOCC [   131 ]

  @DF-RHF Final Energy: -1572.36057634849726

   => Energetics <=

    Nuclear Repulsion Energy =           3680.8652857449933435
    One-Electron Energy =               -9460.2936059986059263
    Two-Electron Energy =                4207.0677439051150941
    Total Energy =                      -1572.3605763484974887

Computation Completed


Properties will be evaluated at   0.000000,   0.000000,   0.000000 [a0]

Properties computed using the SCF density matrix

  Nuclear Dipole Moment: [e a0]
     X:    43.3566      Y:     0.7868      Z:     7.1067

  Electronic Dipole Moment: [e a0]
     X:   -44.5879      Y:     1.6898      Z:    -8.0277

  Dipole Moment: [e a0]
     X:    -1.2313      Y:     2.4767      Z:    -0.9210     Total:     2.9152

  Dipole Moment: [D]
     X:    -3.1298      Y:     6.2951      Z:    -2.3409     Total:     7.4097


*** tstop() called on node80.bme.utexas.edu at Tue Apr 14 13:01:22 2020
Module time:
	user time   =    5212.77 seconds =      86.88 minutes
	system time =     125.95 seconds =       2.10 minutes
	total time  =       1009 seconds =      16.82 minutes
Total time:
	user time   =    5212.77 seconds =      86.88 minutes
	system time =     125.95 seconds =       2.10 minutes
	total time  =       1009 seconds =      16.82 minutes

*** tstart() called on node80.bme.utexas.edu
*** at Tue Apr 14 13:01:22 2020


  //>>>>>>>>>>>>>>>>>>>>>>>>>>>>>>>>>>>//
  //               DFMP2               //
  //<<<<<<<<<<<<<<<<<<<<<<<<<<<<<<<<<<<//

   => Loading Basis Set <=

    Name: (6-311++G** AUX)
    Role: RIFIT
    Keyword: DF_BASIS_MP2
    atoms 1-4, 6-9, 11, 14-19, 21-28, 30-31, 33-35, 37 entry C          line   148 file /home/bdw2292/miniconda3/envs/p4env/share/psi4/basis/aug-cc-pvtz-ri.gbs 
    atoms 5, 10, 12-13, 20, 29, 32                     entry N          line   206 file /home/bdw2292/miniconda3/envs/p4env/share/psi4/basis/aug-cc-pvtz-ri.gbs 
    atoms 36                                           entry O          line   264 file /home/bdw2292/miniconda3/envs/p4env/share/psi4/basis/aug-cc-pvtz-ri.gbs 
    atoms 38-68                                        entry H          line    30 file /home/bdw2292/miniconda3/envs/p4env/share/psi4/basis/aug-cc-pvtz-ri.gbs 

	 --------------------------------------------------------
	                          DF-MP2                         
	      2nd-Order Density-Fitted Moller-Plesset Theory     
	              RMP2 Wavefunction,   6 Threads             
	                                                         
	        Rob Parrish, Justin Turney, Andy Simmonett,      
	           Ed Hohenstein, and C. David Sherrill          
	 --------------------------------------------------------

   => Auxiliary Basis Set <=

  Basis Set: (6-311++G** AUX)
    Blend: AUG-CC-PVTZ-RI
    Number of shells: 1470
    Number of basis function: 5348
    Number of Cartesian functions: 6737
    Spherical Harmonics?: true
    Max angular momentum: 4

	 --------------------------------------------------------
	                 NBF =  1031, NAUX =  5348
	 --------------------------------------------------------
	   CLASS    FOCC     OCC    AOCC    AVIR     VIR    FVIR
	   PAIRS      37     131      94     900     900       0
	 --------------------------------------------------------

	-----------------------------------------------------------
	 ==================> DF-MP2 Energies <==================== 
	-----------------------------------------------------------
	 Reference Energy          =   -1572.3605763484972613 [Eh]
	 Singles Energy            =      -0.0000000000000000 [Eh]
	 Same-Spin Energy          =      -1.4703543028407839 [Eh]
	 Opposite-Spin Energy      =      -4.0475915322684157 [Eh]
	 Correlation Energy        =      -5.5179458351091997 [Eh]
	 Total Energy              =   -1577.8785221836064920 [Eh]
	-----------------------------------------------------------
	 ================> DF-SCS-MP2 Energies <================== 
	-----------------------------------------------------------
	 SCS Same-Spin Scale       =       0.3333333333333333 [-]
	 SCS Opposite-Spin Scale   =       1.2000000000000000 [-]
	 SCS Same-Spin Energy      =      -0.4901181009469280 [Eh]
	 SCS Opposite-Spin Energy  =      -4.8571098387220983 [Eh]
	 SCS Correlation Energy    =      -5.3472279396690263 [Eh]
	 SCS Total Energy          =   -1577.7078042881662441 [Eh]
	-----------------------------------------------------------


*** tstop() called on node80.bme.utexas.edu at Tue Apr 14 13:09:43 2020
Module time:
	user time   =    2754.30 seconds =      45.91 minutes
	system time =      27.39 seconds =       0.46 minutes
	total time  =        501 seconds =       8.35 minutes
Total time:
	user time   =    7967.07 seconds =     132.78 minutes
	system time =     153.34 seconds =       2.56 minutes
	total time  =       1510 seconds =      25.17 minutes


Properties will be evaluated at   0.000000,   0.000000,   0.000000 [a0]
OEProp: No title given, name of density matrix used for the following properties is 'SCF density'


  Wiberg Bond Indices using Orthogonal Lowdin Orbitals:

  Irrep: 1 Size: 68 x 68

                 1                   2                   3                   4                   5

    1     0.00000000000000     1.46580852166103     0.12521338532726     0.14047669674495     0.12419972433676
    2     1.46580852166103     0.00000000000000     1.40062961872800     0.12817198129309     0.12213315281262
    3     0.12521338532726     1.40062961872800     0.00000000000000     1.36227986768415     0.11935884550947
    4     0.14047669674495     0.12817198129309     1.36227986768415     0.00000000000000     1.66535765715505
    5     0.12419972433676     0.12213315281262     0.11935884550947     1.66535765715505     0.00000000000000
    6     1.46492175063135     0.13806567210293     0.13578668509588     0.15364357072538     1.63163923832893
    7     0.01465337171457     0.10310151763295     1.02137864950697     0.10439308354191     0.01399207484268
    8     0.00361875892692     0.04196416659163     0.09860036556626     0.02391431194080     0.00220277586395
    9     0.00037177918130     0.00477916895500     0.01480125437850     0.00412494889133     0.00068027524343
   10     0.00041683327229     0.00539152735074     0.00579592769897     0.00603590711874     0.00032121327688
   11     0.00086589072521     0.00332836987323     0.01795834001697     0.00679704131345     0.00042793275009
   12     0.00279372390172     0.02189767574327     0.11870588146486     0.06143536369224     0.00402040393623
   13     0.00016094037807     0.00046927503388     0.00162171684265     0.00090274607661     0.00008228955994
   14     0.00002988699001     0.00009198388026     0.00055935286345     0.00121779519102     0.00010366599078
   15     0.00001017987223     0.00002248688398     0.00006630273030     0.00013378717725     0.00001472302835
   16     0.00000207098493     0.00000562863597     0.00003970846095     0.00025522150685     0.00001161946052
   17     0.00001192118238     0.00001728630447     0.00005161766544     0.00025522247618     0.00003407728303
   18     0.00002481156245     0.00004984516663     0.00027283778281     0.00162122999359     0.00017831279535
   19     0.00015545592523     0.00022885662479     0.00185570564229     0.00952426291222     0.00053723012366
   20     0.00004724575219     0.00005720651627     0.00025610394528     0.00239688138544     0.00038691336546
   21     0.00001277217602     0.00001252958450     0.00004217090591     0.00032621289869     0.00010757607862
   22     0.00005634474206     0.00003617045064     0.00002885418181     0.00049009017168     0.00089833262108
   23     0.00001471061076     0.00000976959504     0.00001800246920     0.00020723204987     0.00078700523804
   24     0.00001073679707     0.00000839801861     0.00001842653049     0.00033699192558     0.00073480201519
   25     0.00002419508877     0.00003649495786     0.00003560785196     0.00011012345719     0.00077771828139
   26     0.00017353190821     0.00013653089830     0.00020315070770     0.00143179023474     0.00990802062980
   27     0.00026611657453     0.00015486146872     0.00019120990940     0.00297339689188     0.00982178262808
   28     0.00001292635061     0.00000972730877     0.00000828134567     0.00001467546150     0.00006886604160
   29     0.00000187098206     0.00000064806565     0.00000103444944     0.00000588502690     0.00002572731606
   30     0.00000066692502     0.00000029080871     0.00000041737151     0.00000347248744     0.00000804856143
   31     0.00000111591721     0.00000058805464     0.00000070427888     0.00000766325347     0.00001925042335
   32     0.00000130516335     0.00000060231926     0.00000103487074     0.00000702227623     0.00001411012594
   33     0.00000023732713     0.00000007019318     0.00000017484883     0.00000132414880     0.00000289422919
   34     0.00000215090662     0.00000101507613     0.00000260317092     0.00002037258232     0.00004985595124
   35     0.00000195306697     0.00000057143899     0.00000095186967     0.00000417996971     0.00002107202193
   36     0.00000214334637     0.00000257228982     0.00001034725245     0.00009996487338     0.00003267752249
   37     0.00000221450404     0.00000740834814     0.00003225369760     0.00003236357424     0.00000276715387
   38     0.88629916389070     0.07939607391259     0.01178825337131     0.00636610769510     0.01077433522811
   39     0.07757510406817     0.87044810888234     0.07282824320428     0.01175994129764     0.00397310627007
   40     0.00566700028078     0.01059800560384     0.06944299167140     0.85208266157748     0.08691322296970
   41     0.07706763770285     0.01183617103614     0.00605645121314     0.01589595654923     0.08809642361768
   42     0.00109071691317     0.01424914851055     0.01441596528150     0.00138418304579     0.00029957365922
   43     0.00004464477178     0.00027833024728     0.00143333272306     0.00031784414962     0.00007831127594
   44     0.00002449365728     0.00008201782194     0.00034975905237     0.00008975687311     0.00000771618574
   45     0.00000034639560     0.00000098652067     0.00000647349943     0.00001770744595     0.00000145660014
   46     0.00000094893917     0.00000153781667     0.00000622576558     0.00002278458502     0.00000668524652
   47     0.00012174328026     0.00017977842196     0.00176186971270     0.00685386519476     0.00047300462083
   48     0.00010216662499     0.00006567198948     0.00014399210686     0.00177474822325     0.00046892745436
   49     0.00000066091440     0.00000040419300     0.00000069678409     0.00000708028829     0.00002108529045
   50     0.00000050050089     0.00000034132885     0.00000061961630     0.00001053161042     0.00002017197169
   51     0.00003107421177     0.00003264274786     0.00005529384019     0.00014347361635     0.00157794008953
   52     0.00008440444381     0.00004813567282     0.00004124270877     0.00097028492894     0.00203257517457
   53     0.00000098650819     0.00000070292752     0.00000051798817     0.00000240669836     0.00000804418887
   54     0.00001360916598     0.00000895930757     0.00000893889351     0.00000507925144     0.00003664842801
   55     0.00000021654076     0.00000011638276     0.00000014447726     0.00000110984061     0.00000331654333
   56     0.00000008566357     0.00000009072017     0.00000010497313     0.00000124975929     0.00000227920076
   57     0.00000008402475     0.00000005692129     0.00000011637439     0.00000054430778     0.00000188447594
   58     0.00000118553187     0.00000082696672     0.00000100354468     0.00001284419057     0.00002819398474
   59     0.00000002756942     0.00000001897262     0.00000002311814     0.00000024924692     0.00000056177322
   60     0.00000002674761     0.00000001364724     0.00000001213503     0.00000007964410     0.00000033014455
   61     0.00000004036930     0.00000000916125     0.00000003205154     0.00000019297502     0.00000034554632
   62     0.00000018340201     0.00000010904114     0.00000019229854     0.00000085520633     0.00000213247513
   63     0.00000178671476     0.00000113469613     0.00000172929436     0.00001202571207     0.00004056996794
   64     0.00000031615321     0.00000006293306     0.00000013495755     0.00000211127514     0.00000810914321
   65     0.00000292797111     0.00000111061188     0.00000070853394     0.00000118359274     0.00000677705855
   66     0.00000074606149     0.00000192053151     0.00001155151894     0.00000817783240     0.00000055348707
   67     0.00000104467901     0.00000284996444     0.00000972534442     0.00000808362668     0.00000087094742
   68     0.00000023717460     0.00000064797873     0.00000358392576     0.00000713748884     0.00000038503429

                 6                   7                   8                   9                  10

    1     1.46492175063135     0.01465337171457     0.00361875892692     0.00037177918130     0.00041683327229
    2     0.13806567210293     0.10310151763295     0.04196416659163     0.00477916895500     0.00539152735074
    3     0.13578668509588     1.02137864950697     0.09860036556626     0.01480125437850     0.00579592769897
    4     0.15364357072538     0.10439308354191     0.02391431194080     0.00412494889133     0.00603590711874
    5     1.63163923832893     0.01399207484268     0.00220277586395     0.00068027524343     0.00032121327688
    6     0.00000000000000     0.00983202621618     0.00686478876459     0.00124071143968     0.00336229366139
    7     0.00983202621618     0.00000000000000     1.38703716914356     0.14627813246845     0.11216938297614
    8     0.00686478876459     1.38703716914356     0.00000000000000     1.43309963259209     0.13079501372029
    9     0.00124071143968     0.14627813246845     1.43309963259209     0.00000000000000     1.66142924934113
   10     0.00336229366139     0.11216938297614     0.13079501372029     1.66142924934113     0.00000000000000
   11     0.00084253100099     0.14209211569143     0.11334205046738     0.15245588248261     1.50709572024278
   12     0.00601096633349     1.53127622826924     0.12635284798152     0.11084698431060     0.10992666430080
   13     0.00006972724255     0.01930234555983     0.02054629715549     0.02433913893567     0.16110229905510
   14     0.00004317786800     0.00291078484186     0.00252779222009     0.00328376986097     0.01712796865898
   15     0.00000504777416     0.00050359108840     0.00145509403113     0.00093978631738     0.00315474577670
   16     0.00000387096616     0.00016225503168     0.00019645821183     0.00015778696114     0.00047605165860
   17     0.00000688643237     0.00024867449441     0.00129221346652     0.00043996271609     0.00126973572784
   18     0.00003876732146     0.00052863678766     0.00025793200969     0.00013953020220     0.00040863105393
   19     0.00017642437056     0.00548761161199     0.00305642092714     0.00150833438478     0.00430499375703
   20     0.00005338053728     0.00011670187796     0.00002601781490     0.00001722000226     0.00005619962685
   21     0.00001648311834     0.00001961822121     0.00000825140164     0.00000490158269     0.00001600562103
   22     0.00010029755297     0.00000612878934     0.00000212377309     0.00000113602163     0.00000356842825
   23     0.00023095059133     0.00000373886242     0.00000121155681     0.00000049336525     0.00000089666346
   24     0.00011728886473     0.00000355371177     0.00000105712084     0.00000037881911     0.00000026067506
   25     0.00021017523734     0.00000468474658     0.00000325514769     0.00000050156744     0.00000079959993
   26     0.00141085402810     0.00002689107347     0.00001329068569     0.00000201537289     0.00000141029131
   27     0.00097784159801     0.00003494574184     0.00001046841536     0.00000237872837     0.00000242951575
   28     0.00004102028357     0.00000096963351     0.00000069962379     0.00000011125707     0.00000029646408
   29     0.00001885104856     0.00000019377916     0.00000008228423     0.00000001734482     0.00000002425176
   30     0.00000839378216     0.00000013692931     0.00000003727740     0.00000000963379     0.00000001208908
   31     0.00001784026745     0.00000013774237     0.00000003558495     0.00000001459513     0.00000002269829
   32     0.00000691023856     0.00000019072916     0.00000011369696     0.00000002287347     0.00000002427499
   33     0.00000158919367     0.00000003970226     0.00000001788203     0.00000000411875     0.00000000363371
   34     0.00001461995014     0.00000034433856     0.00000011242636     0.00000003065917     0.00000005960029
   35     0.00002034388562     0.00000027341806     0.00000009550668     0.00000001924442     0.00000003673102
   36     0.00000618592161     0.00000977712345     0.00000822590783     0.00000389239480     0.00001096620660
   37     0.00000186958674     0.00014630754785     0.00014219016099     0.00014079579470     0.00080416120762
   38     0.08243057183147     0.00129300874818     0.00025107862625     0.00003926838352     0.00002587901964
   39     0.01172664577560     0.01614329421221     0.01497171126029     0.00116916293252     0.00040284209408
   40     0.01480887676280     0.01584507395701     0.00169278940792     0.00040253406450     0.00059190763016
   41     0.87964262075581     0.00054743352720     0.00026698233174     0.00005348664759     0.00010426738594
   42     0.00048276405251     0.07519516773689     0.87630014743020     0.08087825302543     0.01049001549689
   43     0.00004404069676     0.01167550540754     0.07508998150822     0.87538159535988     0.09036259665574
   44     0.00001165200342     0.00207102655835     0.00204174265093     0.00374957660010     0.03212652116634
   45     0.00000038697471     0.00001843624349     0.00000852817105     0.00002300906457     0.00005265517602
   46     0.00000105951130     0.00002216650639     0.00004163736664     0.00001642594359     0.00005223792434
   47     0.00016824319735     0.00385536689254     0.00085571230973     0.00041658754166     0.00072129758824
   48     0.00005645850488     0.00007103015898     0.00002302988440     0.00000889644633     0.00001686340040
   49     0.00000696287603     0.00000021695603     0.00000012987612     0.00000005571497     0.00000020530572
   50     0.00000413206193     0.00000013278422     0.00000005664826     0.00000001553993     0.00000003126208
   51     0.00031254447322     0.00000638833923     0.00000281987662     0.00000045280831     0.00000023944824
   52     0.00016430974573     0.00001104289925     0.00000295328893     0.00000088499754     0.00000098749796
   53     0.00001141103601     0.00000007014109     0.00000005630075     0.00000001391534     0.00000001810200
   54     0.00002817790835     0.00000086225430     0.00000071165560     0.00000009908048     0.00000036823371
   55     0.00000448339105     0.00000001986371     0.00000001937036     0.00000000446994     0.00000000688655
   56     0.00000141604136     0.00000006235292     0.00000000486701     0.00000000260607     0.00000000363882
   57     0.00000094723573     0.00000002161837     0.00000000875121     0.00000000187297     0.00000000384215
   58     0.00002114946960     0.00000013328250     0.00000005590681     0.00000001160440     0.00000002668659
   59     0.00000030991218     0.00000000906635     0.00000000244439     0.00000000131364     0.00000000130988
   60     0.00000034188447     0.00000000365967     0.00000000154464     0.00000000065511     0.00000000072697
   61     0.00000014741145     0.00000000373646     0.00000000213042     0.00000000048890     0.00000000061440
   62     0.00000044430321     0.00000004091689     0.00000001488037     0.00000000277232     0.00000000653077
   63     0.00001113294518     0.00000018402877     0.00000011223633     0.00000002092452     0.00000003125267
   64     0.00000636690528     0.00000002642381     0.00000001412546     0.00000000343141     0.00000001082357
   65     0.00001294463094     0.00000018659592     0.00000004828947     0.00000001162657     0.00000002683830
   66     0.00000037534896     0.00004444978101     0.00007514352898     0.00004446146690     0.00026699916492
   67     0.00000131825941     0.00004519162215     0.00010916449127     0.00004223994794     0.00032393464505
   68     0.00000013707253     0.00001451766103     0.00000568530610     0.00000436502515     0.00003490739657

                11                  12                  13                  14                  15

    1     0.00086589072521     0.00279372390172     0.00016094037807     0.00002988699001     0.00001017987223
    2     0.00332836987323     0.02189767574327     0.00046927503388     0.00009198388026     0.00002248688398
    3     0.01795834001697     0.11870588146486     0.00162171684265     0.00055935286345     0.00006630273030
    4     0.00679704131345     0.06143536369224     0.00090274607661     0.00121779519102     0.00013378717725
    5     0.00042793275009     0.00402040393623     0.00008228955994     0.00010366599078     0.00001472302835
    6     0.00084253100099     0.00601096633349     0.00006972724255     0.00004317786800     0.00000504777416
    7     0.14209211569143     1.53127622826924     0.01930234555983     0.00291078484186     0.00050359108840
    8     0.11334205046738     0.12635284798152     0.02054629715549     0.00252779222009     0.00145509403113
    9     0.15245588248261     0.11084698431060     0.02433913893567     0.00328376986097     0.00093978631738
   10     1.50709572024278     0.10992666430080     0.16110229905510     0.01712796865898     0.00315474577670
   11     0.00000000000000     1.53608387488920     1.27091399829597     0.08271952087230     0.01801118286582
   12     1.53608387488920     0.00000000000000     0.14190283590061     0.02952845140914     0.00352376016120
   13     1.27091399829597     0.14190283590061     0.00000000000000     1.12749508439727     0.10615307994770
   14     0.08271952087230     0.02952845140914     1.12749508439727     0.00000000000000     1.31637224108962
   15     0.01801118286582     0.00352376016120     0.10615307994770     1.31637224108962     0.00000000000000
   16     0.00238034438506     0.00116128682938     0.01436209478127     0.12559100611103     1.44226653361861
   17     0.00414426380913     0.00245146139972     0.01195709843691     0.11975994172832     0.12432232530104
   18     0.00240961831414     0.00465592840211     0.01314637711036     0.12250379225518     0.12016285589817
   19     0.02833520452340     0.05307746092651     0.11066881504103     1.40274624980279     0.11959109082876
   20     0.00032927413141     0.00100906170939     0.00130120954218     0.01488131338269     0.01120807136932
   21     0.00006236518442     0.00012598393695     0.00030643017964     0.00277952097401     0.00575804293185
   22     0.00001379399301     0.00003458472172     0.00005474235425     0.00036405406516     0.00042008355529
   23     0.00000332115084     0.00000462333553     0.00001274049994     0.00008833905159     0.00021103980532
   24     0.00000070234704     0.00000289808351     0.00000182181328     0.00001640516802     0.00005176991637
   25     0.00000101527235     0.00000327295186     0.00000255506589     0.00001637926388     0.00003339084377
   26     0.00000215946606     0.00000926754211     0.00000248232654     0.00001548275611     0.00005303705385
   27     0.00001011656157     0.00008168184710     0.00001460787810     0.00010592466298     0.00028447599549
   28     0.00000013519681     0.00000059457491     0.00000026809150     0.00000155424137     0.00000279043161
   29     0.00000004978266     0.00000014073420     0.00000012989766     0.00000078955996     0.00000203368778
   30     0.00000003511455     0.00000007113823     0.00000003985134     0.00000022944580     0.00000041066688
   31     0.00000004679361     0.00000013341190     0.00000004072226     0.00000031138758     0.00000068692443
   32     0.00000004383688     0.00000017929896     0.00000002391716     0.00000015386019     0.00000009085849
   33     0.00000001656168     0.00000002408065     0.00000000566934     0.00000003772510     0.00000004914826
   34     0.00000006411390     0.00000019110036     0.00000004372769     0.00000023817254     0.00000059196086
   35     0.00000004107195     0.00000015437038     0.00000007855892     0.00000029039458     0.00000027112409
   36     0.00003889265545     0.00005212135013     0.00015205019560     0.00103467576597     0.00341238357813
   37     0.00370856955620     0.00079067600916     0.03814109357591     0.09638969830541     1.05890990966750
   38     0.00008971374546     0.00031428882434     0.00001579338003     0.00000703101695     0.00000075210465
   39     0.00029294070545     0.00109231345386     0.00007014347891     0.00002534941660     0.00000417300591
   40     0.00271575934002     0.02494333691067     0.00041042018445     0.00108759009164     0.00013344539588
   41     0.00004346507105     0.00024962874742     0.00000565058361     0.00000377661873     0.00000058957291
   42     0.00575975641994     0.01070387595369     0.00104143750178     0.00012240217690     0.00006501361983
   43     0.01584812909476     0.00399056759851     0.00137263717636     0.00038721526408     0.00006281486147
   44     0.07413432796069     0.01156764272374     0.93319421771249     0.05962628125331     0.01503834703421
   45     0.00036557301816     0.00006281667111     0.00115369246565     0.01141563008064     0.07494028245367
   46     0.00014799771394     0.00015093131039     0.00051622038942     0.00526317246214     0.01053680493788
   47     0.00941053735558     0.03462809309408     0.01588352324776     0.07337947135374     0.00977123033938
   48     0.00011104010261     0.00055323430079     0.00017065566880     0.00200786649691     0.00111360527800
   49     0.00000063405032     0.00000066196206     0.00000242872771     0.00001323097947     0.00001577971585
   50     0.00000008972100     0.00000014836789     0.00000035071807     0.00000233530461     0.00000552640696
   51     0.00000042163910     0.00000159702897     0.00000039224541     0.00000167818378     0.00000307943096
   52     0.00000263862626     0.00001348489216     0.00000333920469     0.00001961907330     0.00008703033013
   53     0.00000001682919     0.00000006940056     0.00000003374200     0.00000021544479     0.00000013481271
   54     0.00000007448691     0.00000036641393     0.00000012993633     0.00000029611525     0.00000070862224
   55     0.00000000845559     0.00000002528740     0.00000001123501     0.00000004096263     0.00000006753424
   56     0.00000001108928     0.00000001478797     0.00000001439582     0.00000007600750     0.00000008124935
   57     0.00000000699021     0.00000001232171     0.00000000380541     0.00000004522372     0.00000007423107
   58     0.00000003092077     0.00000013564377     0.00000007563392     0.00000037364640     0.00000079324758
   59     0.00000000480647     0.00000001157047     0.00000000325149     0.00000001111360     0.00000001204592
   60     0.00000000137787     0.00000000468652     0.00000000118646     0.00000000428700     0.00000001283172
   61     0.00000000282563     0.00000000557356     0.00000000146987     0.00000000717475     0.00000001044677
   62     0.00000001421568     0.00000001689046     0.00000000379591     0.00000003051253     0.00000004298366
   63     0.00000005165423     0.00000039085246     0.00000015158099     0.00000035844431     0.00000092732954
   64     0.00000001188437     0.00000002416809     0.00000001978059     0.00000005667029     0.00000014791995
   65     0.00000001221505     0.00000006501542     0.00000000937552     0.00000002617965     0.00000003980234
   66     0.00081084426277     0.00026627618506     0.00950122017527     0.01636749944203     0.05721349576212
   67     0.00093640333100     0.00029308748297     0.00983111723696     0.01656938663414     0.05868750729670
   68     0.00023504705816     0.00006155234104     0.00202744786954     0.00891389603431     0.05978024042637

                16                  17                  18                  19                  20

    1     0.00000207098493     0.00001192118238     0.00002481156245     0.00015545592523     0.00004724575219
    2     0.00000562863597     0.00001728630447     0.00004984516663     0.00022885662479     0.00005720651627
    3     0.00003970846095     0.00005161766544     0.00027283778281     0.00185570564229     0.00025610394528
    4     0.00025522150685     0.00025522247618     0.00162122999359     0.00952426291222     0.00239688138544
    5     0.00001161946052     0.00003407728303     0.00017831279535     0.00053723012366     0.00038691336546
    6     0.00000387096616     0.00000688643237     0.00003876732146     0.00017642437056     0.00005338053728
    7     0.00016225503168     0.00024867449441     0.00052863678766     0.00548761161199     0.00011670187796
    8     0.00019645821183     0.00129221346652     0.00025793200969     0.00305642092714     0.00002601781490
    9     0.00015778696114     0.00043996271609     0.00013953020220     0.00150833438478     0.00001722000226
   10     0.00047605165860     0.00126973572784     0.00040863105393     0.00430499375703     0.00005619962685
   11     0.00238034438506     0.00414426380913     0.00240961831414     0.02833520452340     0.00032927413141
   12     0.00116128682938     0.00245146139972     0.00465592840211     0.05307746092651     0.00100906170939
   13     0.01436209478127     0.01195709843691     0.01314637711036     0.11066881504103     0.00130120954218
   14     0.12559100611103     0.11975994172832     0.12250379225518     1.40274624980279     0.01488131338269
   15     1.44226653361861     0.12432232530104     0.12016285589817     0.11959109082876     0.01120807136932
   16     0.00000000000000     1.44473721983492     0.13289005634198     0.12552178484655     0.01373961711068
   17     1.44473721983492     0.00000000000000     1.39967105614594     0.12191121420007     0.10505878972110
   18     0.13289005634198     1.39967105614594     0.00000000000000     1.36362501764103     1.12752900346045
   19     0.12552178484655     0.12191121420007     1.36362501764103     0.00000000000000     0.12335304615676
   20     0.01373961711068     0.10505878972110     1.12752900346045     0.12335304615676     0.00000000000000
   21     0.00280668857549     0.03156861476063     0.08673909601128     0.02252092622914     1.31562183322494
   22     0.00035700777773     0.00349148277300     0.01511455371808     0.00231499183978     0.11393739439790
   23     0.00010413934457     0.00080740792179     0.00260194140278     0.00056435113074     0.02164911752403
   24     0.00002139249529     0.00016591805753     0.00045544287958     0.00013498414700     0.00281058238219
   25     0.00001909966791     0.00014279380515     0.00062782146211     0.00009825406789     0.00321044711736
   26     0.00002189327519     0.00018183542205     0.00047431233663     0.00013941630402     0.00395338916779
   27     0.00013607484387     0.00105196829505     0.00408163047583     0.00096238324471     0.03831150725165
   28     0.00000190948242     0.00001290188543     0.00004875341499     0.00000887987382     0.00023300020953
   29     0.00000102910016     0.00000647993678     0.00002889110952     0.00000444133298     0.00011547357070
   30     0.00000028807014     0.00000182336640     0.00000645636515     0.00000179908959     0.00002758744122
   31     0.00000036902831     0.00000364520447     0.00000774778926     0.00000297430169     0.00002779080175
   32     0.00000008377172     0.00000055191150     0.00000349514832     0.00000176685361     0.00000689157947
   33     0.00000004142737     0.00000022258715     0.00000088020092     0.00000029671940     0.00000149008149
   34     0.00000030785474     0.00000301154533     0.00000702968519     0.00000313225103     0.00002907667082
   35     0.00000047392516     0.00000229260771     0.00000634015028     0.00000166631375     0.00002358595236
   36     0.00338254141727     0.04785912248427     0.03117870944577     0.00534438012987     0.19399634679848
   37     0.11550330778295     0.01436756182750     0.00737545420864     0.01400507076633     0.00071541700691
   38     0.00000031138246     0.00000068208912     0.00000472380670     0.00002186617116     0.00000420790384
   39     0.00000162799419     0.00000222953558     0.00000555110484     0.00003497580377     0.00000530557163
   40     0.00022168047954     0.00021669916013     0.00155719969761     0.00761795930377     0.00162543135757
   41     0.00000044950441     0.00000074820661     0.00000251218849     0.00001250702294     0.00000501599917
   42     0.00001109829936     0.00004684936952     0.00002883181729     0.00019252082491     0.00000610972359
   43     0.00001566335174     0.00001219039489     0.00001514917577     0.00010717484471     0.00000165551022
   44     0.00152994984549     0.00109298955006     0.00129925945600     0.01046574207149     0.00023896431421
   45     0.87131962782770     0.07897058068504     0.01174896096802     0.00564518143086     0.00103541299156
   46     0.07717335887146     0.85984511322611     0.07565983205404     0.01123878327696     0.01494915532211
   47     0.00567100376813     0.01034057666000     0.07194106273010     0.83992715863316     0.02370945956122
   48     0.00137916008693     0.01024083999538     0.06226540377240     0.02104176147241     0.93401439240189
   49     0.00001669250162     0.00009905451379     0.00023322645073     0.00006016757226     0.00227371760327
   50     0.00000312379996     0.00002250948687     0.00005380480698     0.00001696165512     0.00027532977804
   51     0.00000222990738     0.00001575129280     0.00003790922089     0.00001073383229     0.00022342731726
   52     0.00003772538864     0.00025024311203     0.00118167316757     0.00032198858158     0.00933066641214
   53     0.00000036544554     0.00000186514622     0.00001058795734     0.00000170414409     0.00005270970527
   54     0.00000045477411     0.00000265727121     0.00000952150526     0.00000216476459     0.00005260963102
   55     0.00000007110569     0.00000038773960     0.00000106491021     0.00000041532936     0.00000760601429
   56     0.00000004222903     0.00000034651925     0.00000233613750     0.00000059676784     0.00000484204386
   57     0.00000003174710     0.00000025060747     0.00000075833383     0.00000026415448     0.00000215666333
   58     0.00000073042845     0.00000515942488     0.00000848472225     0.00000419958760     0.00003223224350
   59     0.00000001055701     0.00000006114686     0.00000023035883     0.00000006593565     0.00000044936001
   60     0.00000000922317     0.00000002920700     0.00000011468827     0.00000003269173     0.00000029047804
   61     0.00000000366560     0.00000003688619     0.00000005506018     0.00000004639468     0.00000029406759
   62     0.00000001488903     0.00000017400064     0.00000037219145     0.00000017500018     0.00000195440435
   63     0.00000045273386     0.00000375229973     0.00000833276295     0.00000490476458     0.00004248210371
   64     0.00000007398417     0.00000041848231     0.00000158559252     0.00000041791167     0.00000667063721
   65     0.00000006672685     0.00000033372640     0.00000075874357     0.00000026304484     0.00000614704797
   66     0.01491036516378     0.00125697337875     0.00287927463758     0.00119145076125     0.00035726041920
   67     0.01519878004244     0.00125460798625     0.00287110699161     0.00125887011128     0.00033508159526
   68     0.02388050861381     0.00191436797556     0.00055157139084     0.00108983131799     0.00008360648761

                21                  22                  23                  24                  25

    1     0.00001277217602     0.00005634474206     0.00001471061076     0.00001073679707     0.00002419508877
    2     0.00001252958450     0.00003617045064     0.00000976959504     0.00000839801861     0.00003649495786
    3     0.00004217090591     0.00002885418181     0.00001800246920     0.00001842653049     0.00003560785196
    4     0.00032621289869     0.00049009017168     0.00020723204987     0.00033699192558     0.00011012345719
    5     0.00010757607862     0.00089833262108     0.00078700523804     0.00073480201519     0.00077771828139
    6     0.00001648311834     0.00010029755297     0.00023095059133     0.00011728886473     0.00021017523734
    7     0.00001961822121     0.00000612878934     0.00000373886242     0.00000355371177     0.00000468474658
    8     0.00000825140164     0.00000212377309     0.00000121155681     0.00000105712084     0.00000325514769
    9     0.00000490158269     0.00000113602163     0.00000049336525     0.00000037881911     0.00000050156744
   10     0.00001600562103     0.00000356842825     0.00000089666346     0.00000026067506     0.00000079959993
   11     0.00006236518442     0.00001379399301     0.00000332115084     0.00000070234704     0.00000101527235
   12     0.00012598393695     0.00003458472172     0.00000462333553     0.00000289808351     0.00000327295186
   13     0.00030643017964     0.00005474235425     0.00001274049994     0.00000182181328     0.00000255506589
   14     0.00277952097401     0.00036405406516     0.00008833905159     0.00001640516802     0.00001637926388
   15     0.00575804293185     0.00042008355529     0.00021103980532     0.00005176991637     0.00003339084377
   16     0.00280668857549     0.00035700777773     0.00010413934457     0.00002139249529     0.00001909966791
   17     0.03156861476063     0.00349148277300     0.00080740792179     0.00016591805753     0.00014279380515
   18     0.08673909601128     0.01511455371808     0.00260194140278     0.00045544287958     0.00062782146211
   19     0.02252092622914     0.00231499183978     0.00056435113074     0.00013498414700     0.00009825406789
   20     1.31562183322494     0.11393739439790     0.02164911752403     0.00281058238219     0.00321044711736
   21     0.00000000000000     0.96305350966412     0.11045084526032     0.01451148669877     0.01010998252663
   22     0.96305350966412     0.00000000000000     1.39591204646644     0.12828797329922     0.12512783781518
   23     0.11045084526032     1.39591204646644     0.00000000000000     1.46494761132128     0.12585870108020
   24     0.01451148669877     0.12828797329922     1.46494761132128     0.00000000000000     1.39967916049260
   25     0.01010998252663     0.12512783781518     0.12585870108020     1.39967916049260     0.00000000000000
   26     0.01448198496451     0.12848073833837     0.13221797314383     0.12585938536403     1.40278427211784
   27     0.10767570188469     1.40165053084149     0.12430285954024     0.13095879846945     0.12643460839608
   28     0.00070968983014     0.00920285329092     0.01444570653537     0.10956954283235     1.01705351016728
   29     0.00033786587587     0.00439054811265     0.00189500586513     0.02104069325754     0.08697043031147
   30     0.00008964730882     0.00107124586353     0.00187622941325     0.01531361155117     0.02165265696887
   31     0.00007332661235     0.00188344271989     0.00885924245566     0.02219473752330     0.02096282173012
   32     0.00005090158605     0.00065800474750     0.00097782106106     0.00240580192645     0.00401621166009
   33     0.00000749269330     0.00010585922272     0.00023800152051     0.00064055558477     0.00110344712862
   34     0.00005871204942     0.00132028331968     0.00192581854822     0.00393741561164     0.01800085736839
   35     0.00008165812951     0.00096234449538     0.00085211035885     0.00424263510922     0.02007210118386
   36     2.20342414879981     0.13870602467699     0.03890257578948     0.00336539593881     0.00430236391738
[...]
   15     0.00000008124935     0.00000007423107     0.00000079324758     0.00000001204592     0.00000001283172
   16     0.00000004222903     0.00000003174710     0.00000073042845     0.00000001055701     0.00000000922317
   17     0.00000034651925     0.00000025060747     0.00000515942488     0.00000006114686     0.00000002920700
   18     0.00000233613750     0.00000075833383     0.00000848472225     0.00000023035883     0.00000011468827
   19     0.00000059676784     0.00000026415448     0.00000419958760     0.00000006593565     0.00000003269173
   20     0.00000484204386     0.00000215666333     0.00003223224350     0.00000044936001     0.00000029047804
   21     0.00002489879948     0.00000841820194     0.00009564125110     0.00000157130140     0.00000103259503
   22     0.00023065802719     0.00010843643950     0.00222132475049     0.00001055192320     0.00001181809285
   23     0.00031240726501     0.00024947495327     0.00797015372577     0.00002076257519     0.00003417931499
   24     0.00083875123975     0.00077865296230     0.01975638938901     0.00008207426797     0.00006447087412
   25     0.00137512126506     0.00075256718173     0.01413035915283     0.00016820471287     0.00009955913151
   26     0.00054129472142     0.00027441060567     0.00508064168057     0.00008678948027     0.00004824652122
   27     0.00018161269270     0.00011272729614     0.00224826733833     0.00002302236891     0.00002463778914
   28     0.01186402560865     0.00108101626999     0.00652247634278     0.00063443581081     0.00011451595706
   29     0.06363550003931     0.01119881102468     0.01174625166273     0.00297348961157     0.00062303790390
   30     0.79565747546229     0.05809370010456     0.04377222208942     0.01241456620655     0.00384987172444
   31     0.04800263736013     0.86419576413087     0.78207624368403     0.01628658159352     0.01941562384611
   32     0.01325382210255     0.05467107486667     0.05836028267037     0.06825754242060     0.06293991377601
   33     0.01418567295081     0.02107199823795     0.01227766425910     0.91036619729472     0.91977294391082
   34     0.00777798928171     0.01389769197557     0.01980868932952     0.01639795051518     0.01267961973692
   35     0.02071712893904     0.00218138670830     0.00722058823506     0.01251983674314     0.00169221859535
   36     0.00000658315952     0.00000219325857     0.00004306484832     0.00000030973612     0.00000056585380
   37     0.00000002458298     0.00000002715248     0.00000008017638     0.00000000287511     0.00000000613292
   38     0.00000001237105     0.00000001348682     0.00000018437398     0.00000000356366     0.00000000396505
   39     0.00000000274093     0.00000001318403     0.00000011440549     0.00000000115814     0.00000000056287
   40     0.00000066254986     0.00000019756368     0.00000424998057     0.00000005296810     0.00000003868724
   41     0.00000099374169     0.00000018495195     0.00000848688610     0.00000006547618     0.00000007405383
   42     0.00000000065188     0.00000000058460     0.00000001588582     0.00000000022101     0.00000000010530
   43     0.00000000050645     0.00000000022445     0.00000000295330     0.00000000013798     0.00000000006038
   44     0.00000000181028     0.00000000044422     0.00000000903867     0.00000000025510     0.00000000012143
   45     0.00000002855196     0.00000000926592     0.00000010342697     0.00000000272048     0.00000000150283
   46     0.00000012412659     0.00000004355762     0.00000262553453     0.00000000871655     0.00000000449214
   47     0.00000023906820     0.00000022416352     0.00000169069915     0.00000003085805     0.00000001537876
   48     0.00000268616780     0.00000121622996     0.00002566630090     0.00000036511491     0.00000014102741
   49     0.00003887692697     0.00002522936416     0.00061895949376     0.00000211010363     0.00000302789413
   50     0.00011752117942     0.00013591347682     0.00333076947409     0.00003362144188     0.00001495349550
   51     0.00012242314009     0.00002143245540     0.00038646205878     0.00004043979856     0.00001011985925
   52     0.00001099453458     0.00000381600334     0.00007247225427     0.00000168546716     0.00000096542996
   53     0.00115315821742     0.00010665403698     0.00089070122635     0.00006657967611     0.00002129389873
   54     0.00055150360777     0.00030597708398     0.00038744285038     0.00006441627882     0.00002057974005
   55     0.02128295216968     0.00567446719876     0.00836646544845     0.00047127917301     0.00012646597903
   56     0.00000000000000     0.00909109657981     0.02048780248044     0.00691349507276     0.00153872774379
   57     0.00909109657981     0.00000000000000     0.01960362993564     0.00296593510858     0.00664553135551
   58     0.02048780248044     0.01960362993564     0.00000000000000     0.00095143265620     0.00104841190983
   59     0.00691349507276     0.00296593510858     0.00095143265620     0.00000000000000     0.03489807871527
   60     0.00153872774379     0.00664553135551     0.00104841190983     0.03489807871527     0.00000000000000
   61     0.00058691330008     0.00113257398745     0.00066598109749     0.03485513628212     0.03771256106675
   62     0.00039626007724     0.00124273874686     0.00099731312683     0.00311320248754     0.00115616441698
   63     0.00086197639701     0.00094030952305     0.00521838347375     0.00091767102099     0.00068250246104
   64     0.00524101054921     0.00040282826703     0.00080279260882     0.00699611614236     0.00059795463479
   65     0.00080526099523     0.00037600023349     0.00042677760560     0.00049570073347     0.00022047486199
   66     0.00000000383376     0.00000000165679     0.00000002656091     0.00000000043751     0.00000000048196
   67     0.00000000322028     0.00000000130160     0.00000005687091     0.00000000041717     0.00000000026167
   68     0.00000000158826     0.00000000035619     0.00000000877415     0.00000000069291     0.00000000028370

                61                  62                  63                  64                  65

    1     0.00000004036930     0.00000018340201     0.00000178671476     0.00000031615321     0.00000292797111
    2     0.00000000916125     0.00000010904114     0.00000113469613     0.00000006293306     0.00000111061188
    3     0.00000003205154     0.00000019229854     0.00000172929436     0.00000013495755     0.00000070853394
    4     0.00000019297502     0.00000085520633     0.00001202571207     0.00000211127514     0.00000118359274
    5     0.00000034554632     0.00000213247513     0.00004056996794     0.00000810914321     0.00000677705855
    6     0.00000014741145     0.00000044430321     0.00001113294518     0.00000636690528     0.00001294463094
    7     0.00000000373646     0.00000004091689     0.00000018402877     0.00000002642381     0.00000018659592
    8     0.00000000213042     0.00000001488037     0.00000011223633     0.00000001412546     0.00000004828947
    9     0.00000000048890     0.00000000277232     0.00000002092452     0.00000000343141     0.00000001162657
   10     0.00000000061440     0.00000000653077     0.00000003125267     0.00000001082357     0.00000002683830
   11     0.00000000282563     0.00000001421568     0.00000005165423     0.00000001188437     0.00000001221505
   12     0.00000000557356     0.00000001689046     0.00000039085246     0.00000002416809     0.00000006501542
   13     0.00000000146987     0.00000000379591     0.00000015158099     0.00000001978059     0.00000000937552
   14     0.00000000717475     0.00000003051253     0.00000035844431     0.00000005667029     0.00000002617965
   15     0.00000001044677     0.00000004298366     0.00000092732954     0.00000014791995     0.00000003980234
   16     0.00000000366560     0.00000001488903     0.00000045273386     0.00000007398417     0.00000006672685
   17     0.00000003688619     0.00000017400064     0.00000375229973     0.00000041848231     0.00000033372640
   18     0.00000005506018     0.00000037219145     0.00000833276295     0.00000158559252     0.00000075874357
   19     0.00000004639468     0.00000017500018     0.00000490476458     0.00000041791167     0.00000026304484
   20     0.00000029406759     0.00000195440435     0.00004248210371     0.00000667063721     0.00000614704797
   21     0.00000066630666     0.00000458257472     0.00006418481800     0.00002098242244     0.00002031523526
   22     0.00001035150605     0.00008349557126     0.00140379977244     0.00019642152165     0.00018156683868
   23     0.00002382890331     0.00010387306050     0.00185357978095     0.00012121868755     0.00014892128111
   24     0.00003918125912     0.00018725609095     0.00315254177016     0.00046986977197     0.00047436875762
   25     0.00009432236810     0.00062409124647     0.01120250715660     0.00136670626714     0.00536447159729
   26     0.00007472807771     0.00084488013281     0.02219203566718     0.00085575545480     0.00604861693371
   27     0.00003185602039     0.00026091493974     0.00817352656905     0.00032607014567     0.00042893151784
   28     0.00011490761095     0.00102987840575     0.00590593012038     0.01195484100246     0.02061287689712
   29     0.00064064638021     0.01185786592024     0.01179761579491     0.06394219904307     0.05543289053919
   30     0.00169639494210     0.00203077840787     0.00712817585806     0.02074010182266     0.01246350217004
   31     0.01261055243646     0.01439441186473     0.01992805534381     0.00771204871661     0.00242884108714
   32     0.06296692718913     0.05315031788309     0.05768190749372     0.01327684290990     0.01078778657837
   33     0.91989355725100     0.02198675259824     0.01172584676776     0.01420151180447     0.00153940233498
   34     0.01997873376451     0.85084146577420     0.80509456689387     0.04872315996756     0.05876159184061
   35     0.00384866073533     0.05751133785525     0.04462450992047     0.79679420402865     0.87798790624671
   36     0.00000043578050     0.00000248734732     0.00002724005125     0.00000822528096     0.00001020043849
   37     0.00000000099232     0.00000000410862     0.00000008482632     0.00000001010794     0.00000000706332
   38     0.00000000226858     0.00000000985546     0.00000016507019     0.00000002740425     0.00000010120051
   39     0.00000000130419     0.00000000523539     0.00000007069470     0.00000001157922     0.00000008720175
   40     0.00000001597440     0.00000008398292     0.00000297837831     0.00000020808656     0.00000025534935
   41     0.00000004031184     0.00000013079543     0.00000133918377     0.00000076260239     0.00000377530041
   42     0.00000000019525     0.00000000036697     0.00000000710523     0.00000000136469     0.00000000823889
   43     0.00000000007735     0.00000000032801     0.00000000165656     0.00000000043436     0.00000000050956
   44     0.00000000011474     0.00000000094593     0.00000001182988     0.00000000353616     0.00000000279646
   45     0.00000000063894     0.00000000397585     0.00000013806945     0.00000001318659     0.00000000626450
   46     0.00000000483875     0.00000004353638     0.00000140124653     0.00000015666701     0.00000014844234
   47     0.00000002566907     0.00000009001410     0.00000102678062     0.00000015606481     0.00000006455654
   48     0.00000024342582     0.00000100399600     0.00002404389699     0.00000247718732     0.00000365075577
   49     0.00000122952197     0.00000369391021     0.00005256856570     0.00001188353262     0.00002181298875
   50     0.00000612099792     0.00001796224031     0.00018033601839     0.00010969776037     0.00007226844222
   51     0.00002079891170     0.00022306691936     0.00403739246021     0.00011074447710     0.00274974958563
   52     0.00000200620521     0.00002257791623     0.00062413662320     0.00004070817193     0.00002806900857
   53     0.00002154622564     0.00034804061961     0.00034170883881     0.00050657564919     0.00107477346079
   54     0.00001983019381     0.00009570683697     0.00085999198193     0.00113380382298     0.00629460743883
   55     0.00022390562950     0.00041289009790     0.00039561135234     0.00081237266293     0.00114640416742
   56     0.00058691330008     0.00039626007724     0.00086197639701     0.00524101054921     0.00080526099523
   57     0.00113257398745     0.00124273874686     0.00094030952305     0.00040282826703     0.00037600023349
   58     0.00066598109749     0.00099731312683     0.00521838347375     0.00080279260882     0.00042677760560
   59     0.03485513628212     0.00311320248754     0.00091767102099     0.00699611614236     0.00049570073347
   60     0.03771256106675     0.00115616441698     0.00068250246104     0.00059795463479     0.00022047486199
   61     0.00000000000000     0.00698836547056     0.00101964765888     0.00149858784311     0.00013233949385
   62     0.00698836547056     0.00000000000000     0.01975936748428     0.00924108280071     0.00570808341192
   63     0.00101964765888     0.01975936748428     0.00000000000000     0.01805543647703     0.00806434575004
   64     0.00149858784311     0.00924108280071     0.01805543647703     0.00000000000000     0.02197313943780
   65     0.00013233949385     0.00570808341192     0.00806434575004     0.02197313943780     0.00000000000000
   66     0.00000000036113     0.00000000109336     0.00000003340579     0.00000000543933     0.00000000271828
   67     0.00000000051294     0.00000000152913     0.00000005804791     0.00000000734097     0.00000000111984
   68     0.00000000013437     0.00000000023068     0.00000000826916     0.00000000080867     0.00000000095794

                66                  67                  68

    1     0.00000074606149     0.00000104467901     0.00000023717460
    2     0.00000192053151     0.00000284996444     0.00000064797873
    3     0.00001155151894     0.00000972534442     0.00000358392576
    4     0.00000817783240     0.00000808362668     0.00000713748884
    5     0.00000055348707     0.00000087094742     0.00000038503429
    6     0.00000037534896     0.00000131825941     0.00000013707253
    7     0.00004444978101     0.00004519162215     0.00001451766103
    8     0.00007514352898     0.00010916449127     0.00000568530610
    9     0.00004446146690     0.00004223994794     0.00000436502515
   10     0.00026699916492     0.00032393464505     0.00003490739657
   11     0.00081084426277     0.00093640333100     0.00023504705816
   12     0.00026627618506     0.00029308748297     0.00006155234104
   13     0.00950122017527     0.00983111723696     0.00202744786954
   14     0.01636749944203     0.01656938663414     0.00891389603431
   15     0.05721349576212     0.05868750729670     0.05978024042637
   16     0.01491036516378     0.01519878004244     0.02388050861381
   17     0.00125697337875     0.00125460798625     0.00191436797556
   18     0.00287927463758     0.00287110699161     0.00055157139084
   19     0.00119145076125     0.00125887011128     0.00108983131799
   20     0.00035726041920     0.00033508159526     0.00008360648761
   21     0.00020536516574     0.00020933271270     0.00003035342464
   22     0.00001403162723     0.00001791268533     0.00000674051931
   23     0.00000731738504     0.00000854817047     0.00000150912080
   24     0.00000192210688     0.00000223693441     0.00000026209321
   25     0.00000129393260     0.00000133687223     0.00000023765672
   26     0.00000218180738     0.00000195620940     0.00000032385629
   27     0.00001081748482     0.00001105139484     0.00000224134386
   28     0.00000012147533     0.00000011871072     0.00000003775057
   29     0.00000008439776     0.00000008110592     0.00000001538715
   30     0.00000002111192     0.00000001085413     0.00000000772610
   31     0.00000002217723     0.00000002398316     0.00000000607952
   32     0.00000000306833     0.00000000636892     0.00000000122921
   33     0.00000000135668     0.00000000147620     0.00000000134776
   34     0.00000002237956     0.00000002392983     0.00000000668135
   35     0.00000001027201     0.00000000850164     0.00000000671236
   36     0.00012230341953     0.00012980904276     0.00001564697341
   37     0.91867910942223     0.91922706338451     0.92054362326682
   38     0.00000009437520     0.00000008779425     0.00000003773878
   39     0.00000027224162     0.00000028672626     0.00000009612114
   40     0.00000648116951     0.00000702938053     0.00000673904282
   41     0.00000005616337     0.00000007084571     0.00000004064097
   42     0.00000329659094     0.00000432263643     0.00000045457560
   43     0.00000304243350     0.00000309529320     0.00000063876003
   44     0.00518199814337     0.00407668264914     0.00105935489071
   45     0.00123300430917     0.00124635433254     0.00771850721394
   46     0.00021268324765     0.00021219964854     0.00012934920460
   47     0.00018354243557     0.00018537599574     0.00035259232878
   48     0.00003763698555     0.00004344071414     0.00003860487583
   49     0.00000046145115     0.00000079999956     0.00000033213207
   50     0.00000029878870     0.00000020090888     0.00000007360626
   51     0.00000010205951     0.00000019057124     0.00000005828474
   52     0.00000320477528     0.00000359661162     0.00000059624421
   53     0.00000000916532     0.00000000636425     0.00000000683233
   54     0.00000003439631     0.00000003061892     0.00000000823531
   55     0.00000000332439     0.00000000252813     0.00000000141928
   56     0.00000000383376     0.00000000322028     0.00000000158826
   57     0.00000000165679     0.00000000130160     0.00000000035619
   58     0.00000002656091     0.00000005687091     0.00000000877415
   59     0.00000000043751     0.00000000041717     0.00000000069291
   60     0.00000000048196     0.00000000026167     0.00000000028370
   61     0.00000000036113     0.00000000051294     0.00000000013437
   62     0.00000000109336     0.00000000152913     0.00000000023068
   63     0.00000003340579     0.00000005804791     0.00000000826916
   64     0.00000000543933     0.00000000734097     0.00000000080867
   65     0.00000000271828     0.00000000111984     0.00000000095794
   66     0.00000000000000     0.03541268478871     0.03904890356153
   67     0.03541268478871     0.00000000000000     0.03914036368449
   68     0.03904890356153     0.03914036368449     0.00000000000000



  Atomic Valences: 

 #  #
 Irrep: 1
      1:  4.3925021
      2:  4.4238682
      3:  4.6041973
      4:  4.5767706
      5:  3.9038482
      6:  4.5457714
      7:  4.7425834
      8:  4.3690817
      9:  4.5233217
     10:  3.8670562
     11:  5.0052801
     12:  3.9566621
     13:  4.0403877
     14:  4.6655228
     15:  4.6245207
     16:  4.4376929
     17:  4.4029071
     18:  4.6712541
     19:  4.4220458
     20:  4.0851788
     21:  5.0230603
     22:  4.6414024
     23:  4.4346140
     24:  4.4752734
     25:  4.7210146
     26:  4.4913942
     27:  4.4508850
     28:  4.5081939
     29:  4.2444876
     30:  4.5577119
     31:  4.5679735
     32:  4.2206264
     33:  4.2822733
     34:  4.5737708
     35:  4.5592110
     36:  2.7572000
     37:  4.1498254
     38:  1.0983356
     39:  1.1017220
     40:  1.1103064
     41:  1.0916012
     42:  1.1097103
     43:  1.0860384
     44:  1.1764920
     45:  1.0998315
     46:  1.1071431
     47:  1.1307530
     48:  1.1759067
     49:  1.0960682
     50:  1.1067444
     51:  1.1092151
     52:  1.1005149
     53:  1.1093051
     54:  1.1090290
     55:  1.0957108
     56:  1.0478240
     57:  1.0773617
     58:  1.0577470
     59:  1.1330334
     60:  1.1060717
     61:  1.1069149
     62:  1.0646491
     63:  1.0741293
     64:  1.0482753
     65:  1.1023238
     66:  1.1055816
     67:  1.1077268
     68:  1.1067075


    Psi4 stopped on: Tuesday, 14 April 2020 01:09PM
    Psi4 wall time for execution: 0:25:10.76

*** Psi4 exiting successfully. Buy a developer a beer!
