68
MOLECULE0-opt-29-28-25-24-007.log	Energy: -992575.5508161
C         -0.80153        3.96187       -0.33530
C          0.56499        4.09260       -0.11787
C          1.40212        3.01820       -0.41446
C          0.80669        1.86086       -0.93321
N         -0.50058        1.72032       -1.14276
C         -1.28527        2.75887       -0.83930
C          2.86523        3.03237       -0.16334
C          3.63931        4.18833       -0.11211
C          4.99579        4.00378        0.15316
N          5.55768        2.81743        0.34506
C          4.72074        1.76339        0.26166
N          3.41194        1.82870        0.02105
N          5.31032        0.54316        0.44904
C          4.75906       -0.75018        0.36550
C          5.63664       -1.84368        0.22082
C          5.07479       -3.11379        0.12019
C          3.70174       -3.34813        0.13859
C          2.85565       -2.25231        0.28520
C          3.38801       -0.97073        0.42588
N          1.45209       -2.31529        0.27535
C          0.62294       -3.36757       -0.01988
C         -0.81142       -2.95731       -0.19612
C         -1.17455       -1.70495       -0.70170
C         -2.51139       -1.36226       -0.83916
C         -3.51555       -2.25624       -0.46686
C         -3.15077       -3.51144        0.02315
C         -1.81224       -3.86694        0.14385
C         -4.97034       -1.86952       -0.63011
N         -5.20224       -0.46245       -0.35448
C         -6.49792       -0.00393       -0.83601
C         -6.62144        1.50672       -0.61514
N         -6.42545        1.91607        0.76998
C         -7.56496        1.63963        1.62780
C         -5.17180        1.36556        1.27072
C         -5.03229       -0.14352        1.05904
O          0.99361       -4.52586       -0.11888
C          7.13047       -1.64918        0.16205
H         -1.48519        4.77149       -0.10336
H          0.96777        5.00828        0.30575
H          1.43643        1.01297       -1.19115
H         -2.35071        2.61665       -1.00646
H          3.22981        5.17587       -0.28498
H          5.66613        4.85925        0.20892
H          6.30810        0.61305        0.58152
H          5.74268       -3.96418        0.00754
H          3.29374       -4.34398        0.03448
H          2.72500       -0.12719        0.54634
H          0.99500       -1.42908        0.42927
H         -0.43087       -0.98251       -1.02611
H         -2.78157       -0.38458       -1.22461
H         -3.92241       -4.21812        0.31930
H         -1.52559       -4.84513        0.51680
H         -5.26971       -2.05683       -1.66977
H         -5.60278       -2.52484        0.00078
H         -6.57423       -0.22203       -1.90755
H         -7.33159       -0.53511       -0.33433
H         -7.60002        1.86080       -0.95751
H         -5.85389        2.00165       -1.22455
H         -7.80289        0.57029        1.76243
H         -8.45234        2.12929        1.21302
H         -7.37907        2.06713        2.61891
H         -5.07543        1.60632        2.33500
H         -4.34698        1.86112        0.74123
H         -5.76729       -0.69284        1.68092
H         -4.03575       -0.46546        1.37743
H          7.53149       -1.22076        1.09093
H          7.42492       -0.98729       -0.66252
H          7.63584       -2.60594        0.00835
