 Entering Gaussian System, Link 0=g09
 Input=MOLECULE0-opt-2-3-7-8-143.com
 Output=MOLECULE0-opt-2-3-7-8-143.log
 Initial command:
 /opt/g09gh/gaussian/g09/l1.exe /scratch/bdw2292/Gau-MOLECULE0/Gau-73928.inp -scrdir=/scratch/bdw2292/Gau-MOLECULE0/
 Entering Link 1 = /opt/g09gh/gaussian/g09/l1.exe PID=     73929.
  
 Copyright (c) 1988,1990,1992,1993,1995,1998,2003,2009, Gaussian, Inc.
                  All Rights Reserved.
  
 This is part of the Gaussian(R) 09 program.  It is based on
 the Gaussian(R) 03 system (copyright 2003, Gaussian, Inc.),
 the Gaussian(R) 98 system (copyright 1998, Gaussian, Inc.),
 the Gaussian(R) 94 system (copyright 1995, Gaussian, Inc.),
 the Gaussian 92(TM) system (copyright 1992, Gaussian, Inc.),
 the Gaussian 90(TM) system (copyright 1990, Gaussian, Inc.),
 the Gaussian 88(TM) system (copyright 1988, Gaussian, Inc.),
 the Gaussian 86(TM) system (copyright 1986, Carnegie Mellon
 University), and the Gaussian 82(TM) system (copyright 1983,
 Carnegie Mellon University). Gaussian is a federally registered
 trademark of Gaussian, Inc.
  
 This software contains proprietary and confidential information,
 including trade secrets, belonging to Gaussian, Inc.
  
 This software is provided under written license and may be
 used, copied, transmitted, or stored only in accord with that
 written license.
  
 The following legend is applicable only to US Government
 contracts under FAR:
  
                    RESTRICTED RIGHTS LEGEND
  
 Use, reproduction and disclosure by the US Government is
 subject to restrictions as set forth in subparagraphs (a)
 and (c) of the Commercial Computer Software - Restricted
 Rights clause in FAR 52.227-19.
  
 Gaussian, Inc.
 340 Quinnipiac St., Bldg. 40, Wallingford CT 06492
  
  
 ---------------------------------------------------------------
 Warning -- This program may not be used in any manner that
 competes with the business of Gaussian, Inc. or will provide
 assistance to any competitor of Gaussian, Inc.  The licensee
 of this program is prohibited from giving any competitor of
 Gaussian, Inc. access to this program.  By using this program,
 the user acknowledges that Gaussian, Inc. is engaged in the
 business of creating and licensing software in the field of
 computational chemistry and represents and warrants to the
 licensee that it is not a competitor of Gaussian, Inc. and that
 it will not use this program in any manner prohibited above.
 ---------------------------------------------------------------
  

 Cite this work as:
 Gaussian 09, Revision A.02,
 M. J. Frisch, G. W. Trucks, H. B. Schlegel, G. E. Scuseria, 
 M. A. Robb, J. R. Cheeseman, G. Scalmani, V. Barone, B. Mennucci, 
 G. A. Petersson, H. Nakatsuji, M. Caricato, X. Li, H. P. Hratchian, 
 A. F. Izmaylov, J. Bloino, G. Zheng, J. L. Sonnenberg, M. Hada, 
 M. Ehara, K. Toyota, R. Fukuda, J. Hasegawa, M. Ishida, T. Nakajima, 
 Y. Honda, O. Kitao, H. Nakai, T. Vreven, J. A. Montgomery, Jr., 
 J. E. Peralta, F. Ogliaro, M. Bearpark, J. J. Heyd, E. Brothers, 
 K. N. Kudin, V. N. Staroverov, R. Kobayashi, J. Normand, 
 K. Raghavachari, A. Rendell, J. C. Burant, S. S. Iyengar, J. Tomasi, 
 M. Cossi, N. Rega, J. M. Millam, M. Klene, J. E. Knox, J. B. Cross, 
 V. Bakken, C. Adamo, J. Jaramillo, R. Gomperts, R. E. Stratmann, 
 O. Yazyev, A. J. Austin, R. Cammi, C. Pomelli, J. W. Ochterski, 
 R. L. Martin, K. Morokuma, V. G. Zakrzewski, G. A. Voth, 
 P. Salvador, J. J. Dannenberg, S. Dapprich, A. D. Daniels, 
 O. Farkas, J. B. Foresman, J. V. Ortiz, J. Cioslowski, 
 and D. J. Fox, Gaussian, Inc., Wallingford CT, 2009.
 
 ******************************************
 Gaussian 09:  EM64L-G09RevA.02 11-Jun-2009
                25-Mar-2020 
 ******************************************
 %RWF=/scratch/bdw2292/Gau-MOLECULE0/,100GB
 %Nosave
 %Chk=MOLECULE0-opt-2-3-7-8-143.chk
 %Mem=20GB
 %Nproc=6
 Will use up to    6 processors via shared memory.
 --------------------------------------------------
 #P opt=(,maxcycle=400) wB97XD/6-31G* MaxDisk=100GB
 --------------------------------------------------
 1/6=400,14=-1,18=20,19=15,26=3,38=1/1,3;
 2/9=110,12=2,17=6,18=5,40=1/2;
 3/5=1,6=6,7=1,11=2,16=1,25=1,30=1,71=1,74=-58/1,2,3;
 4//1;
 5/5=2,38=5/2;
 6/7=2,8=2,9=2,10=2,28=1/1;
 7//1,2,3,16;
 1/6=400,14=-1,18=20,19=15/3(2);
 2/9=110/2;
 99//99;
 2/9=110/2;
 3/5=1,6=6,7=1,11=2,16=1,25=1,30=1,71=1,74=-58/1,2,3;
 4/5=5,16=3/1;
 5/5=2,38=5/2;
 7//1,2,3,16;
 1/6=400,14=-1,18=20,19=15/3(-5);
 2/9=110/2;
 6/7=2,8=2,9=2,10=2,19=2,28=1/1;
 99/9=1/99;
 Leave Link    1 at Wed Mar 25 12:57:51 2020, MaxMem= 2684354560 cpu:       0.2
 (Enter /opt/g09gh/gaussian/g09/l101.exe)
 --------------------------------------------------------------
 MOLECULE0 Rotatable Bond Optimization on node37.bme.utexas.edu
 --------------------------------------------------------------
 Symbolic Z-matrix:
 Charge =  0 Multiplicity = 1
 C                    -0.19154   4.28993  -0.96195 
 C                     1.13388   4.1874   -0.5219 
 C                     1.85737   3.00186  -0.75465 
 C                     1.1668    1.95699  -1.40971 
 N                    -0.10047   2.03921  -1.83468 
 C                    -0.7585    3.18884  -1.61484 
 C                     3.27979   2.81101  -0.31678 
 C                     3.83996   1.62405   0.17527 
 C                     5.20016   1.6936    0.49819 
 N                     5.9498    2.78587   0.36862 
 C                     5.31903   3.88031  -0.10792 
 N                     4.0284    3.92036  -0.44569 
 N                     6.101     5.01464  -0.24747 
 C                     5.80765   6.37388  -0.6326 
 C                     6.75631   7.40069  -0.34071 
 C                     6.42758   8.70885  -0.73392 
 C                     5.23305   9.05397  -1.37622 
 C                     4.31335   8.03765  -1.65433 
 C                     4.61476   6.71753  -1.28224 
 N                     3.03798   8.21166  -2.27936 
 C                     2.34279   9.34877  -2.61573 
 C                     0.88879   9.17633  -3.00728 
 C                     0.04451   8.23716  -2.39232 
 C                    -1.27611   8.08779  -2.8198 
 C                    -1.79975   8.86971  -3.86646 
 C                    -0.95244   9.83217  -4.44875 
 C                     0.36461   10.00108  -4.01517 
 C                    -3.21926   8.64001  -4.38654 
 N                    -3.45387   7.5754   -5.37762 
 C                    -3.4487    6.16455  -4.93065 
 C                    -2.08249   5.44909  -5.09001 
 N                    -1.51913   5.52655  -6.45847 
 C                    -2.02719   4.55637  -7.43591 
 C                    -1.48789   6.9457   -6.88999 
 C                    -2.83311   7.69906  -6.7164 
 O                     2.85298   10.4571  -2.62864 
 C                     8.07572   7.14496   0.36745 
 H                    -0.77118   5.19349  -0.80027 
 H                     1.59559   5.02632  -0.00575 
 H                     1.66864   1.01459  -1.62054 
 H                    -1.78502   3.22381  -1.97604 
 H                     3.27836   0.70744   0.31412 
 H                     5.71777   0.81674   0.88582 
 H                     7.03778   4.82171   0.07396 
 H                     7.12748   9.51782  -0.52795 
 H                     5.01261   10.07898  -1.64852 
 H                     3.90382   5.9312   -1.4911 
 H                     2.53852   7.34779  -2.43928 
 H                     0.42775   7.62733  -1.57807 
 H                    -1.90228   7.33845  -2.33512 
 H                    -1.31681   10.45739  -5.26323 
 H                     1.01228   10.75003  -4.46399 
 H                    -3.87776   8.44035  -3.52885 
 H                    -3.58551   9.57628  -4.83191 
 H                    -3.84629   6.07693  -3.95898 
 H                    -4.43665   5.38673  -5.8839 
 H                    -2.30381   3.99828  -4.75016 
 H                    -1.30869   5.86047  -4.36684 
 H                    -3.08738   4.73185  -7.65076 
 H                    -1.90725   3.53616  -7.05387 
 H                    -1.46121   4.63224  -8.37149 
 H                    -1.11431   7.00808  -7.94571 
 H                    -0.47874   7.63889  -6.01561 
 H                    -3.82071   7.02924  -7.74394 
 H                    -2.74337   8.78065  -7.01055 
 H                     8.7306    6.49335  -0.22809 
 H                     7.92169   6.65831   1.3409 
 H                     8.64225   8.06546   0.56449 
 
 NAtoms=     68 NQM=     68 NQMF=      0 NMic=      0 NMicF=      0 NTot=     68.
                    Isotopes and Nuclear Properties:
 (Nuclear quadrupole moments (NQMom) in fm**2, nuclear magnetic moments (NMagM)
  in nuclear magnetons)

  Atom         1           2           3           4           5           6           7           8           9          10
 IAtWgt=          12          12          12          12          14          12          12          12          12          14
 AtmWgt=  12.0000000  12.0000000  12.0000000  12.0000000  14.0030740  12.0000000  12.0000000  12.0000000  12.0000000  14.0030740
 NucSpn=           0           0           0           0           2           0           0           0           0           2
 AtZEff=   0.0000000   0.0000000   0.0000000   0.0000000   0.0000000   0.0000000   0.0000000   0.0000000   0.0000000   0.0000000
 NQMom=    0.0000000   0.0000000   0.0000000   0.0000000   2.0440000   0.0000000   0.0000000   0.0000000   0.0000000   2.0440000
 NMagM=    0.0000000   0.0000000   0.0000000   0.0000000   0.4037610   0.0000000   0.0000000   0.0000000   0.0000000   0.4037610

  Atom        11          12          13          14          15          16          17          18          19          20
 IAtWgt=          12          14          14          12          12          12          12          12          12          14
 AtmWgt=  12.0000000  14.0030740  14.0030740  12.0000000  12.0000000  12.0000000  12.0000000  12.0000000  12.0000000  14.0030740
 NucSpn=           0           2           2           0           0           0           0           0           0           2
 AtZEff=   0.0000000   0.0000000   0.0000000   0.0000000   0.0000000   0.0000000   0.0000000   0.0000000   0.0000000   0.0000000
 NQMom=    0.0000000   2.0440000   2.0440000   0.0000000   0.0000000   0.0000000   0.0000000   0.0000000   0.0000000   2.0440000
 NMagM=    0.0000000   0.4037610   0.4037610   0.0000000   0.0000000   0.0000000   0.0000000   0.0000000   0.0000000   0.4037610

  Atom        21          22          23          24          25          26          27          28          29          30
 IAtWgt=          12          12          12          12          12          12          12          12          14          12
 AtmWgt=  12.0000000  12.0000000  12.0000000  12.0000000  12.0000000  12.0000000  12.0000000  12.0000000  14.0030740  12.0000000
 NucSpn=           0           0           0           0           0           0           0           0           2           0
 AtZEff=   0.0000000   0.0000000   0.0000000   0.0000000   0.0000000   0.0000000   0.0000000   0.0000000   0.0000000   0.0000000
 NQMom=    0.0000000   0.0000000   0.0000000   0.0000000   0.0000000   0.0000000   0.0000000   0.0000000   2.0440000   0.0000000
 NMagM=    0.0000000   0.0000000   0.0000000   0.0000000   0.0000000   0.0000000   0.0000000   0.0000000   0.4037610   0.0000000

  Atom        31          32          33          34          35          36          37          38          39          40
 IAtWgt=          12          14          12          12          12          16          12           1           1           1
 AtmWgt=  12.0000000  14.0030740  12.0000000  12.0000000  12.0000000  15.9949146  12.0000000   1.0078250   1.0078250   1.0078250
 NucSpn=           0           2           0           0           0           0           0           1           1           1
 AtZEff=   0.0000000   0.0000000   0.0000000   0.0000000   0.0000000   0.0000000   0.0000000   0.0000000   0.0000000   0.0000000
 NQMom=    0.0000000   2.0440000   0.0000000   0.0000000   0.0000000   0.0000000   0.0000000   0.0000000   0.0000000   0.0000000
 NMagM=    0.0000000   0.4037610   0.0000000   0.0000000   0.0000000   0.0000000   0.0000000   2.7928460   2.7928460   2.7928460

  Atom        41          42          43          44          45          46          47          48          49          50
 IAtWgt=           1           1           1           1           1           1           1           1           1           1
 AtmWgt=   1.0078250   1.0078250   1.0078250   1.0078250   1.0078250   1.0078250   1.0078250   1.0078250   1.0078250   1.0078250
 NucSpn=           1           1           1           1           1           1           1           1           1           1
 AtZEff=   0.0000000   0.0000000   0.0000000   0.0000000   0.0000000   0.0000000   0.0000000   0.0000000   0.0000000   0.0000000
 NQMom=    0.0000000   0.0000000   0.0000000   0.0000000   0.0000000   0.0000000   0.0000000   0.0000000   0.0000000   0.0000000
 NMagM=    2.7928460   2.7928460   2.7928460   2.7928460   2.7928460   2.7928460   2.7928460   2.7928460   2.7928460   2.7928460

  Atom        51          52          53          54          55          56          57          58          59          60
 IAtWgt=           1           1           1           1           1           1           1           1           1           1
 AtmWgt=   1.0078250   1.0078250   1.0078250   1.0078250   1.0078250   1.0078250   1.0078250   1.0078250   1.0078250   1.0078250
 NucSpn=           1           1           1           1           1           1           1           1           1           1
 AtZEff=   0.0000000   0.0000000   0.0000000   0.0000000   0.0000000   0.0000000   0.0000000   0.0000000   0.0000000   0.0000000
 NQMom=    0.0000000   0.0000000   0.0000000   0.0000000   0.0000000   0.0000000   0.0000000   0.0000000   0.0000000   0.0000000
 NMagM=    2.7928460   2.7928460   2.7928460   2.7928460   2.7928460   2.7928460   2.7928460   2.7928460   2.7928460   2.7928460

  Atom        61          62          63          64          65          66          67          68
 IAtWgt=           1           1           1           1           1           1           1           1
 AtmWgt=   1.0078250   1.0078250   1.0078250   1.0078250   1.0078250   1.0078250   1.0078250   1.0078250
 NucSpn=           1           1           1           1           1           1           1           1
 AtZEff=   0.0000000   0.0000000   0.0000000   0.0000000   0.0000000   0.0000000   0.0000000   0.0000000
 NQMom=    0.0000000   0.0000000   0.0000000   0.0000000   0.0000000   0.0000000   0.0000000   0.0000000
 NMagM=    2.7928460   2.7928460   2.7928460   2.7928460   2.7928460   2.7928460   2.7928460   2.7928460
 Leave Link  101 at Wed Mar 25 12:57:51 2020, MaxMem= 2684354560 cpu:       0.4
 (Enter /opt/g09gh/gaussian/g09/l103.exe)

 GradGradGradGradGradGradGradGradGradGradGradGradGradGradGradGradGradGrad
 Berny optimization.
 Initialization pass.
                           ----------------------------
                           !    Initial Parameters    !
                           ! (Angstroms and Degrees)  !
 --------------------------                            --------------------------
 ! Name  Definition              Value          Derivative Info.                !
 --------------------------------------------------------------------------------
 ! R1    R(1,2)                  1.4003         estimate D2E/DX2                !
 ! R2    R(1,6)                  1.4            estimate D2E/DX2                !
 ! R3    R(1,38)                 1.0856         estimate D2E/DX2                !
 ! R4    R(2,3)                  1.4082         estimate D2E/DX2                !
 ! R5    R(2,39)                 1.0878         estimate D2E/DX2                !
 ! R6    R(3,4)                  1.4134         estimate D2E/DX2                !
 ! R7    R(3,7)                  1.5005         estimate D2E/DX2                !
 ! R8    R(4,5)                  1.3392         estimate D2E/DX2                !
 ! R9    R(4,40)                 1.0883         estimate D2E/DX2                !
 ! R10   R(5,6)                  1.3428         estimate D2E/DX2                !
 ! R11   R(6,41)                 1.0888         estimate D2E/DX2                !
 ! R12   R(7,8)                  1.4017         estimate D2E/DX2                !
 ! R13   R(7,12)                 1.3445         estimate D2E/DX2                !
 ! R14   R(8,9)                  1.3997         estimate D2E/DX2                !
 ! R15   R(8,42)                 1.0839         estimate D2E/DX2                !
 ! R16   R(9,10)                 1.3311         estimate D2E/DX2                !
 ! R17   R(9,43)                 1.0895         estimate D2E/DX2                !
 ! R18   R(10,11)                1.3501         estimate D2E/DX2                !
 ! R19   R(11,12)                1.3347         estimate D2E/DX2                !
 ! R20   R(11,13)                1.3848         estimate D2E/DX2                !
 ! R21   R(13,14)                1.4429         estimate D2E/DX2                !
 ! R22   R(13,44)                1.009          estimate D2E/DX2                !
 ! R23   R(14,15)                1.4281         estimate D2E/DX2                !
 ! R24   R(14,19)                1.4011         estimate D2E/DX2                !
 ! R25   R(15,16)                1.405          estimate D2E/DX2                !
 ! R26   R(15,37)                1.5191         estimate D2E/DX2                !
 ! R27   R(16,17)                1.3995         estimate D2E/DX2                !
 ! R28   R(16,45)                1.0894         estimate D2E/DX2                !
 ! R29   R(17,18)                1.3986         estimate D2E/DX2                !
 ! R30   R(17,46)                1.0832         estimate D2E/DX2                !
 ! R31   R(18,19)                1.4043         estimate D2E/DX2                !
 ! R32   R(18,20)                1.4309         estimate D2E/DX2                !
 ! R33   R(19,47)                1.0804         estimate D2E/DX2                !
 ! R34   R(20,21)                1.3746         estimate D2E/DX2                !
 ! R35   R(20,48)                1.0106         estimate D2E/DX2                !
 ! R36   R(21,22)                1.5156         estimate D2E/DX2                !
 ! R37   R(21,36)                1.2202         estimate D2E/DX2                !
 ! R38   R(22,23)                1.4046         estimate D2E/DX2                !
 ! R39   R(22,27)                1.4039         estimate D2E/DX2                !
 ! R40   R(23,24)                1.3961         estimate D2E/DX2                !
 ! R41   R(23,49)                1.0871         estimate D2E/DX2                !
 ! R42   R(24,25)                1.4075         estimate D2E/DX2                !
 ! R43   R(24,50)                1.0902         estimate D2E/DX2                !
 ! R44   R(25,26)                1.4083         estimate D2E/DX2                !
 ! R45   R(25,28)                1.5291         estimate D2E/DX2                !
 ! R46   R(26,27)                1.3968         estimate D2E/DX2                !
 ! R47   R(26,51)                1.0895         estimate D2E/DX2                !
 ! R48   R(27,52)                1.0871         estimate D2E/DX2                !
 ! R49   R(28,29)                1.4733         estimate D2E/DX2                !
 ! R50   R(28,53)                1.0996         estimate D2E/DX2                !
 ! R51   R(28,54)                1.0996         estimate D2E/DX2                !
 ! R52   R(29,30)                1.48           estimate D2E/DX2                !
 ! R53   R(29,35)                1.4809         estimate D2E/DX2                !
 ! R54   R(30,31)                1.5504         estimate D2E/DX2                !
 ! R55   R(30,55)                1.0535         estimate D2E/DX2                !
 ! R56   R(30,56)                1.5779         estimate D2E/DX2                !
 ! R57   R(31,32)                1.4819         estimate D2E/DX2                !
 ! R58   R(31,57)                1.5064         estimate D2E/DX2                !
 ! R59   R(31,58)                1.1362         estimate D2E/DX2                !
 ! R60   R(32,33)                1.4679         estimate D2E/DX2                !
 ! R61   R(32,34)                1.4836         estimate D2E/DX2                !
 ! R62   R(33,59)                1.0959         estimate D2E/DX2                !
 ! R63   R(33,60)                1.096          estimate D2E/DX2                !
 ! R64   R(33,61)                1.0961         estimate D2E/DX2                !
 ! R65   R(34,35)                1.5515         estimate D2E/DX2                !
 ! R66   R(34,62)                1.1216         estimate D2E/DX2                !
 ! R67   R(34,63)                1.5045         estimate D2E/DX2                !
 ! R68   R(35,64)                1.5748         estimate D2E/DX2                !
 ! R69   R(35,65)                1.1245         estimate D2E/DX2                !
 ! R70   R(37,66)                1.0991         estimate D2E/DX2                !
 ! R71   R(37,67)                1.0992         estimate D2E/DX2                !
 ! R72   R(37,68)                1.0987         estimate D2E/DX2                !
 ! A1    A(2,1,6)              118.1809         estimate D2E/DX2                !
 ! A2    A(2,1,38)             121.2995         estimate D2E/DX2                !
 ! A3    A(6,1,38)             120.5189         estimate D2E/DX2                !
 ! A4    A(1,2,3)              119.7346         estimate D2E/DX2                !
 ! A5    A(1,2,39)             119.6277         estimate D2E/DX2                !
 ! A6    A(3,2,39)             120.6374         estimate D2E/DX2                !
 ! A7    A(2,3,4)              116.6113         estimate D2E/DX2                !
 ! A8    A(2,3,7)              123.0849         estimate D2E/DX2                !
 ! A9    A(4,3,7)              120.2904         estimate D2E/DX2                !
 ! A10   A(3,4,5)              124.3358         estimate D2E/DX2                !
 ! A11   A(3,4,40)             120.307          estimate D2E/DX2                !
 ! A12   A(5,4,40)             115.3442         estimate D2E/DX2                !
 ! A13   A(4,5,6)              117.669          estimate D2E/DX2                !
 ! A14   A(1,6,5)              123.4533         estimate D2E/DX2                !
 ! A15   A(1,6,41)             120.7472         estimate D2E/DX2                !
 ! A16   A(5,6,41)             115.7992         estimate D2E/DX2                !
 ! A17   A(3,7,8)              126.0856         estimate D2E/DX2                !
 ! A18   A(3,7,12)             113.26           estimate D2E/DX2                !
 ! A19   A(8,7,12)             120.6526         estimate D2E/DX2                !
 ! A20   A(7,8,9)              115.2932         estimate D2E/DX2                !
 ! A21   A(7,8,42)             123.6421         estimate D2E/DX2                !
 ! A22   A(9,8,42)             121.062          estimate D2E/DX2                !
 ! A23   A(8,9,10)             124.4433         estimate D2E/DX2                !
 ! A24   A(8,9,43)             120.2482         estimate D2E/DX2                !
 ! A25   A(10,9,43)            115.3084         estimate D2E/DX2                !
 ! A26   A(9,10,11)            115.8767         estimate D2E/DX2                !
 ! A27   A(10,11,12)           124.432          estimate D2E/DX2                !
 ! A28   A(10,11,13)           115.8343         estimate D2E/DX2                !
 ! A29   A(12,11,13)           119.7327         estimate D2E/DX2                !
 ! A30   A(7,12,11)            119.3006         estimate D2E/DX2                !
 ! A31   A(11,13,14)           133.1368         estimate D2E/DX2                !
 ! A32   A(11,13,44)           109.6046         estimate D2E/DX2                !
 ! A33   A(14,13,44)           116.9949         estimate D2E/DX2                !
 ! A34   A(13,14,15)           119.1902         estimate D2E/DX2                !
 ! A35   A(13,14,19)           121.8638         estimate D2E/DX2                !
 ! A36   A(15,14,19)           118.9457         estimate D2E/DX2                !
 ! A37   A(14,15,16)           117.1826         estimate D2E/DX2                !
 ! A38   A(14,15,37)           123.4489         estimate D2E/DX2                !
 ! A39   A(16,15,37)           119.368          estimate D2E/DX2                !
 ! A40   A(15,16,17)           123.9016         estimate D2E/DX2                !
 ! A41   A(15,16,45)           119.222          estimate D2E/DX2                !
 ! A42   A(17,16,45)           116.8743         estimate D2E/DX2                !
 ! A43   A(16,17,18)           118.2515         estimate D2E/DX2                !
 ! A44   A(16,17,46)           121.4949         estimate D2E/DX2                !
 ! A45   A(18,17,46)           120.252          estimate D2E/DX2                !
 ! A46   A(17,18,19)           119.2933         estimate D2E/DX2                !
 ! A47   A(17,18,20)           125.7741         estimate D2E/DX2                !
 ! A48   A(19,18,20)           114.9211         estimate D2E/DX2                !
 ! A49   A(14,19,18)           122.4228         estimate D2E/DX2                !
 ! A50   A(14,19,47)           118.1217         estimate D2E/DX2                !
 ! A51   A(18,19,47)           119.4529         estimate D2E/DX2                !
 ! A52   A(18,20,21)           131.1679         estimate D2E/DX2                !
 ! A53   A(18,20,48)           113.9329         estimate D2E/DX2                !
 ! A54   A(21,20,48)           114.7374         estimate D2E/DX2                !
 ! A55   A(20,21,22)           117.0189         estimate D2E/DX2                !
 ! A56   A(20,21,36)           122.8565         estimate D2E/DX2                !
 ! A57   A(22,21,36)           120.1141         estimate D2E/DX2                !
 ! A58   A(21,22,23)           122.6557         estimate D2E/DX2                !
 ! A59   A(21,22,27)           118.4789         estimate D2E/DX2                !
 ! A60   A(23,22,27)           118.8612         estimate D2E/DX2                !
 ! A61   A(22,23,24)           120.4011         estimate D2E/DX2                !
 ! A62   A(22,23,49)           119.4129         estimate D2E/DX2                !
 ! A63   A(24,23,49)           120.1859         estimate D2E/DX2                !
 ! A64   A(23,24,25)           121.344          estimate D2E/DX2                !
 ! A65   A(23,24,50)           118.7324         estimate D2E/DX2                !
 ! A66   A(25,24,50)           119.9187         estimate D2E/DX2                !
 ! A67   A(24,25,26)           117.5999         estimate D2E/DX2                !
 ! A68   A(24,25,28)           120.9858         estimate D2E/DX2                !
 ! A69   A(26,25,28)           121.3692         estimate D2E/DX2                !
 ! A70   A(25,26,27)           121.4384         estimate D2E/DX2                !
 ! A71   A(25,26,51)           120.0039         estimate D2E/DX2                !
 ! A72   A(27,26,51)           118.5543         estimate D2E/DX2                !
 ! A73   A(22,27,26)           120.2568         estimate D2E/DX2                !
 ! A74   A(22,27,52)           118.5995         estimate D2E/DX2                !
 ! A75   A(26,27,52)           121.1239         estimate D2E/DX2                !
 ! A76   A(25,28,29)           119.0226         estimate D2E/DX2                !
 ! A77   A(25,28,53)           108.5364         estimate D2E/DX2                !
 ! A78   A(25,28,54)           108.6055         estimate D2E/DX2                !
 ! A79   A(29,28,53)           107.3454         estimate D2E/DX2                !
 ! A80   A(29,28,54)           106.844          estimate D2E/DX2                !
 ! A81   A(53,28,54)           105.7283         estimate D2E/DX2                !
 ! A82   A(28,29,30)           119.0206         estimate D2E/DX2                !
 ! A83   A(28,29,35)           118.7536         estimate D2E/DX2                !
 ! A84   A(30,29,35)           110.5599         estimate D2E/DX2                !
 ! A85   A(29,30,31)           114.3272         estimate D2E/DX2                !
 ! A86   A(29,30,55)           110.8868         estimate D2E/DX2                !
 ! A87   A(29,30,56)           106.5757         estimate D2E/DX2                !
 ! A88   A(31,30,55)           112.8906         estimate D2E/DX2                !
 ! A89   A(31,30,56)           105.1977         estimate D2E/DX2                !
 ! A90   A(55,30,56)           106.2546         estimate D2E/DX2                !
 ! A91   A(30,31,32)           113.9402         estimate D2E/DX2                !
 ! A92   A(30,31,57)           106.9643         estimate D2E/DX2                !
 ! A93   A(30,31,58)           111.5689         estimate D2E/DX2                !
 ! A94   A(32,31,57)           108.3324         estimate D2E/DX2                !
 ! A95   A(32,31,58)           108.0541         estimate D2E/DX2                !
 ! A96   A(57,31,58)           107.768          estimate D2E/DX2                !
 ! A97   A(31,32,33)           116.6642         estimate D2E/DX2                !
 ! A98   A(31,32,34)           109.062          estimate D2E/DX2                !
 ! A99   A(33,32,34)           116.4756         estimate D2E/DX2                !
 ! A100  A(32,33,59)           111.0731         estimate D2E/DX2                !
 ! A101  A(32,33,60)           110.1966         estimate D2E/DX2                !
 ! A102  A(32,33,61)           110.1143         estimate D2E/DX2                !
 ! A103  A(59,33,60)           108.8607         estimate D2E/DX2                !
 ! A104  A(59,33,61)           108.7311         estimate D2E/DX2                !
 ! A105  A(60,33,61)           107.7857         estimate D2E/DX2                !
 ! A106  A(32,34,35)           114.4348         estimate D2E/DX2                !
 ! A107  A(32,34,62)           109.5101         estimate D2E/DX2                !
 ! A108  A(32,34,63)           106.6071         estimate D2E/DX2                !
 ! A109  A(35,34,62)           111.5363         estimate D2E/DX2                !
 ! A110  A(35,34,63)           107.0272         estimate D2E/DX2                !
 ! A111  A(62,34,63)           107.3378         estimate D2E/DX2                !
 ! A112  A(29,35,34)           115.0902         estimate D2E/DX2                !
 ! A113  A(29,35,64)           106.9467         estimate D2E/DX2                !
 ! A114  A(29,35,65)           110.5042         estimate D2E/DX2                !
 ! A115  A(34,35,64)           105.3201         estimate D2E/DX2                !
 ! A116  A(34,35,65)           111.628          estimate D2E/DX2                !
 ! A117  A(64,35,65)           106.7678         estimate D2E/DX2                !
 ! A118  A(15,37,66)           111.3889         estimate D2E/DX2                !
 ! A119  A(15,37,67)           111.4485         estimate D2E/DX2                !
 ! A120  A(15,37,68)           112.9805         estimate D2E/DX2                !
 ! A121  A(66,37,67)           107.5098         estimate D2E/DX2                !
 ! A122  A(66,37,68)           106.6569         estimate D2E/DX2                !
 ! A123  A(67,37,68)           106.5214         estimate D2E/DX2                !
 ! D1    D(6,1,2,3)              0.5992         estimate D2E/DX2                !
 ! D2    D(6,1,2,39)          -179.5793         estimate D2E/DX2                !
 ! D3    D(38,1,2,3)          -179.7074         estimate D2E/DX2                !
 ! D4    D(38,1,2,39)            0.1141         estimate D2E/DX2                !
 ! D5    D(2,1,6,5)              0.3397         estimate D2E/DX2                !
 ! D6    D(2,1,6,41)          -179.8733         estimate D2E/DX2                !
 ! D7    D(38,1,6,5)          -179.3563         estimate D2E/DX2                !
 ! D8    D(38,1,6,41)            0.4308         estimate D2E/DX2                !
 ! D9    D(1,2,3,4)             -1.3513         estimate D2E/DX2                !
 ! D10   D(1,2,3,7)            179.9781         estimate D2E/DX2                !
 ! D11   D(39,2,3,4)           178.829          estimate D2E/DX2                !
 ! D12   D(39,2,3,7)             0.1584         estimate D2E/DX2                !
 ! D13   D(2,3,4,5)              1.3219         estimate D2E/DX2                !
 ! D14   D(2,3,4,40)           179.9471         estimate D2E/DX2                !
 ! D15   D(7,3,4,5)           -179.968          estimate D2E/DX2                !
 ! D16   D(7,3,4,40)            -1.3428         estimate D2E/DX2                !
 ! D17   D(2,3,7,8)            142.7054         estimate D2E/DX2                !
 ! D18   D(2,3,7,12)           -37.7939         estimate D2E/DX2                !
 ! D19   D(4,3,7,8)            -35.9181         estimate D2E/DX2                !
 ! D20   D(4,3,7,12)           143.5825         estimate D2E/DX2                !
 ! D21   D(3,4,5,6)             -0.4393         estimate D2E/DX2                !
 ! D22   D(40,4,5,6)          -179.126          estimate D2E/DX2                !
 ! D23   D(4,5,6,1)             -0.4291         estimate D2E/DX2                !
 ! D24   D(4,5,6,41)           179.7741         estimate D2E/DX2                !
 ! D25   D(3,7,8,9)            179.0167         estimate D2E/DX2                !
 ! D26   D(3,7,8,42)            -1.5692         estimate D2E/DX2                !
 ! D27   D(12,7,8,9)            -0.45           estimate D2E/DX2                !
 ! D28   D(12,7,8,42)          178.9641         estimate D2E/DX2                !
 ! D29   D(3,7,12,11)         -179.0863         estimate D2E/DX2                !
 ! D30   D(8,7,12,11)            0.4446         estimate D2E/DX2                !
 ! D31   D(7,8,9,10)             0.1838         estimate D2E/DX2                !
 ! D32   D(7,8,9,43)          -179.8818         estimate D2E/DX2                !
 ! D33   D(42,8,9,10)         -179.2468         estimate D2E/DX2                !
 ! D34   D(42,8,9,43)            0.6877         estimate D2E/DX2                !
 ! D35   D(8,9,10,11)            0.0869         estimate D2E/DX2                !
 ! D36   D(43,9,10,11)        -179.8504         estimate D2E/DX2                !
 ! D37   D(9,10,11,12)          -0.1122         estimate D2E/DX2                !
 ! D38   D(9,10,11,13)        -179.7487         estimate D2E/DX2                !
 ! D39   D(10,11,12,7)          -0.1532         estimate D2E/DX2                !
 ! D40   D(13,11,12,7)         179.47           estimate D2E/DX2                !
 ! D41   D(10,11,13,14)       -175.6376         estimate D2E/DX2                !
 ! D42   D(10,11,13,44)         -1.8947         estimate D2E/DX2                !
 ! D43   D(12,11,13,14)          4.7077         estimate D2E/DX2                !
 ! D44   D(12,11,13,44)        178.4506         estimate D2E/DX2                !
 ! D45   D(11,13,14,15)        163.2414         estimate D2E/DX2                !
 ! D46   D(11,13,14,19)        -16.5506         estimate D2E/DX2                !
 ! D47   D(44,13,14,15)        -10.142          estimate D2E/DX2                !
 ! D48   D(44,13,14,19)        170.066          estimate D2E/DX2                !
 ! D49   D(13,14,15,16)       -179.9778         estimate D2E/DX2                !
 ! D50   D(13,14,15,37)         -0.243          estimate D2E/DX2                !
 ! D51   D(19,14,15,16)         -0.1798         estimate D2E/DX2                !
 ! D52   D(19,14,15,37)        179.5551         estimate D2E/DX2                !
 ! D53   D(13,14,19,18)        179.5681         estimate D2E/DX2                !
 ! D54   D(13,14,19,47)          0.1637         estimate D2E/DX2                !
 ! D55   D(15,14,19,18)         -0.2243         estimate D2E/DX2                !
 ! D56   D(15,14,19,47)       -179.6287         estimate D2E/DX2                !
 ! D57   D(14,15,16,17)          0.5569         estimate D2E/DX2                !
 ! D58   D(14,15,16,45)       -179.9806         estimate D2E/DX2                !
 ! D59   D(37,15,16,17)       -179.1893         estimate D2E/DX2                !
 ! D60   D(37,15,16,45)          0.2732         estimate D2E/DX2                !
 ! D61   D(14,15,37,66)         63.8641         estimate D2E/DX2                !
 ! D62   D(14,15,37,67)        -56.205          estimate D2E/DX2                !
 ! D63   D(14,15,37,68)       -176.1043         estimate D2E/DX2                !
 ! D64   D(16,15,37,66)       -116.4065         estimate D2E/DX2                !
 ! D65   D(16,15,37,67)        123.5244         estimate D2E/DX2                !
 ! D66   D(16,15,37,68)          3.6251         estimate D2E/DX2                !
 ! D67   D(15,16,17,18)         -0.5095         estimate D2E/DX2                !
 ! D68   D(15,16,17,46)        179.0225         estimate D2E/DX2                !
 ! D69   D(45,16,17,18)       -179.9836         estimate D2E/DX2                !
 ! D70   D(45,16,17,46)         -0.4516         estimate D2E/DX2                !
 ! D71   D(16,17,18,19)          0.0788         estimate D2E/DX2                !
 ! D72   D(16,17,18,20)        178.7765         estimate D2E/DX2                !
 ! D73   D(46,17,18,19)       -179.4593         estimate D2E/DX2                !
 ! D74   D(46,17,18,20)         -0.7615         estimate D2E/DX2                !
 ! D75   D(17,18,19,14)          0.2789         estimate D2E/DX2                !
 ! D76   D(17,18,19,47)        179.6757         estimate D2E/DX2                !
 ! D77   D(20,18,19,14)       -178.5561         estimate D2E/DX2                !
 ! D78   D(20,18,19,47)          0.8407         estimate D2E/DX2                !
 ! D79   D(17,18,20,21)         -8.0658         estimate D2E/DX2                !
 ! D80   D(17,18,20,48)        176.8811         estimate D2E/DX2                !
 ! D81   D(19,18,20,21)        170.6819         estimate D2E/DX2                !
 ! D82   D(19,18,20,48)         -4.3713         estimate D2E/DX2                !
 ! D83   D(18,20,21,22)       -167.6153         estimate D2E/DX2                !
 ! D84   D(18,20,21,36)         13.567          estimate D2E/DX2                !
 ! D85   D(48,20,21,22)          7.4063         estimate D2E/DX2                !
 ! D86   D(48,20,21,36)       -171.4114         estimate D2E/DX2                !
 ! D87   D(20,21,22,23)         36.6974         estimate D2E/DX2                !
 ! D88   D(20,21,22,27)       -144.0496         estimate D2E/DX2                !
 ! D89   D(36,21,22,23)       -144.4507         estimate D2E/DX2                !
 ! D90   D(36,21,22,27)         34.8023         estimate D2E/DX2                !
 ! D91   D(21,22,23,24)       -177.9077         estimate D2E/DX2                !
 ! D92   D(21,22,23,49)          2.1916         estimate D2E/DX2                !
 ! D93   D(27,22,23,24)          2.8421         estimate D2E/DX2                !
 ! D94   D(27,22,23,49)       -177.0586         estimate D2E/DX2                !
 ! D95   D(21,22,27,26)        177.0081         estimate D2E/DX2                !
 ! D96   D(21,22,27,52)         -1.3915         estimate D2E/DX2                !
 ! D97   D(23,22,27,26)         -3.71           estimate D2E/DX2                !
 ! D98   D(23,22,27,52)        177.8904         estimate D2E/DX2                !
 ! D99   D(22,23,24,25)         -0.2653         estimate D2E/DX2                !
 ! D100  D(22,23,24,50)        178.934          estimate D2E/DX2                !
 ! D101  D(49,23,24,25)        179.6346         estimate D2E/DX2                !
 ! D102  D(49,23,24,50)         -1.1661         estimate D2E/DX2                !
 ! D103  D(23,24,25,26)         -1.4331         estimate D2E/DX2                !
 ! D104  D(23,24,25,28)        176.1589         estimate D2E/DX2                !
 ! D105  D(50,24,25,26)        179.3769         estimate D2E/DX2                !
 ! D106  D(50,24,25,28)         -3.0312         estimate D2E/DX2                !
 ! D107  D(24,25,26,27)          0.5483         estimate D2E/DX2                !
 ! D108  D(24,25,26,51)        179.8669         estimate D2E/DX2                !
 ! D109  D(28,25,26,27)       -177.0338         estimate D2E/DX2                !
 ! D110  D(28,25,26,51)          2.2847         estimate D2E/DX2                !
 ! D111  D(24,25,28,29)        -82.9713         estimate D2E/DX2                !
 ! D112  D(24,25,28,53)         40.0967         estimate D2E/DX2                !
 ! D113  D(24,25,28,54)        154.5877         estimate D2E/DX2                !
 ! D114  D(26,25,28,29)         94.5293         estimate D2E/DX2                !
 ! D115  D(26,25,28,53)       -142.4028         estimate D2E/DX2                !
 ! D116  D(26,25,28,54)        -27.9117         estimate D2E/DX2                !
 ! D117  D(25,26,27,22)          2.0389         estimate D2E/DX2                !
 ! D118  D(25,26,27,52)       -179.6025         estimate D2E/DX2                !
 ! D119  D(51,26,27,22)       -177.2892         estimate D2E/DX2                !
 ! D120  D(51,26,27,52)          1.0694         estimate D2E/DX2                !
 ! D121  D(25,28,29,30)         74.9829         estimate D2E/DX2                !
 ! D122  D(25,28,29,35)        -64.7025         estimate D2E/DX2                !
 ! D123  D(53,28,29,30)        -48.6707         estimate D2E/DX2                !
 ! D124  D(53,28,29,35)        171.6439         estimate D2E/DX2                !
 ! D125  D(54,28,29,30)       -161.705          estimate D2E/DX2                !
 ! D126  D(54,28,29,35)         58.6096         estimate D2E/DX2                !
 ! D127  D(28,29,30,31)        -94.4938         estimate D2E/DX2                !
 ! D128  D(28,29,30,55)         34.5133         estimate D2E/DX2                !
 ! D129  D(28,29,30,56)        149.7378         estimate D2E/DX2                !
 ! D130  D(35,29,30,31)         48.2202         estimate D2E/DX2                !
 ! D131  D(35,29,30,55)        177.2273         estimate D2E/DX2                !
 ! D132  D(35,29,30,56)        -67.5482         estimate D2E/DX2                !
 ! D133  D(28,29,35,34)         96.0784         estimate D2E/DX2                !
 ! D134  D(28,29,35,64)       -147.3281         estimate D2E/DX2                !
 ! D135  D(28,29,35,65)        -31.4828         estimate D2E/DX2                !
 ! D136  D(30,29,35,34)        -46.7474         estimate D2E/DX2                !
 ! D137  D(30,29,35,64)         69.846          estimate D2E/DX2                !
 ! D138  D(30,29,35,65)       -174.3087         estimate D2E/DX2                !
 ! D139  D(29,30,31,32)        -53.5695         estimate D2E/DX2                !
 ! D140  D(29,30,31,57)       -173.2541         estimate D2E/DX2                !
 ! D141  D(29,30,31,58)         69.1226         estimate D2E/DX2                !
 ! D142  D(55,30,31,32)        178.4355         estimate D2E/DX2                !
 ! D143  D(55,30,31,57)         58.7509         estimate D2E/DX2                !
 ! D144  D(55,30,31,58)        -58.8724         estimate D2E/DX2                !
 ! D145  D(56,30,31,32)         62.9971         estimate D2E/DX2                !
 ! D146  D(56,30,31,57)        -56.6876         estimate D2E/DX2                !
 ! D147  D(56,30,31,58)       -174.3108         estimate D2E/DX2                !
 ! D148  D(30,31,32,33)        -82.001          estimate D2E/DX2                !
 ! D149  D(30,31,32,34)         52.5328         estimate D2E/DX2                !
 ! D150  D(57,31,32,33)         36.9079         estimate D2E/DX2                !
 ! D151  D(57,31,32,34)        171.4418         estimate D2E/DX2                !
 ! D152  D(58,31,32,33)        153.4038         estimate D2E/DX2                !
 ! D153  D(58,31,32,34)        -72.0623         estimate D2E/DX2                !
 ! D154  D(31,32,33,59)         65.9586         estimate D2E/DX2                !
 ! D155  D(31,32,33,60)        -54.764          estimate D2E/DX2                !
 ! D156  D(31,32,33,61)       -173.5364         estimate D2E/DX2                !
 ! D157  D(34,32,33,59)        -65.2178         estimate D2E/DX2                !
 ! D158  D(34,32,33,60)        174.0596         estimate D2E/DX2                !
 ! D159  D(34,32,33,61)         55.2873         estimate D2E/DX2                !
 ! D160  D(31,32,34,35)        -50.9057         estimate D2E/DX2                !
 ! D161  D(31,32,34,62)       -176.9741         estimate D2E/DX2                !
 ! D162  D(31,32,34,63)         67.2028         estimate D2E/DX2                !
 ! D163  D(33,32,34,35)         83.7239         estimate D2E/DX2                !
 ! D164  D(33,32,34,62)        -42.3445         estimate D2E/DX2                !
 ! D165  D(33,32,34,63)       -158.1676         estimate D2E/DX2                !
 ! D166  D(32,34,35,29)         50.2658         estimate D2E/DX2                !
 ! D167  D(32,34,35,64)        -67.249          estimate D2E/DX2                !
 ! D168  D(32,34,35,65)        177.2584         estimate D2E/DX2                !
 ! D169  D(62,34,35,29)        175.2722         estimate D2E/DX2                !
 ! D170  D(62,34,35,64)         57.7574         estimate D2E/DX2                !
 ! D171  D(62,34,35,65)        -57.7353         estimate D2E/DX2                !
 ! D172  D(63,34,35,29)        -67.6038         estimate D2E/DX2                !
 ! D173  D(63,34,35,64)        174.8814         estimate D2E/DX2                !
 ! D174  D(63,34,35,65)         59.3888         estimate D2E/DX2                !
 --------------------------------------------------------------------------------
 Trust Radius=3.00D-01 FncErr=1.00D-07 GrdErr=1.00D-06
 Number of steps in this run= 400 maximum allowed number of steps= 408.
 GradGradGradGradGradGradGradGradGradGradGradGradGradGradGradGradGradGrad

 Leave Link  103 at Wed Mar 25 12:57:51 2020, MaxMem= 2684354560 cpu:       0.1
 (Enter /opt/g09gh/gaussian/g09/l202.exe)
 Stoichiometry    C29H31N7O
 Framework group  C1[X(C29H31N7O)]
 Deg. of freedom   198
 Full point group                 C1      NOp   1
 Largest Abelian subgroup         C1      NOp   1
 Largest concise Abelian subgroup C1      NOp   1
                         Standard orientation:                         
 ---------------------------------------------------------------------
 Center     Atomic      Atomic             Coordinates (Angstroms)
 Number     Number       Type             X           Y           Z
 ---------------------------------------------------------------------
      1          6           0       -0.215950    2.475657   -1.744877
      2          6           0        1.118830    2.188708   -1.433540
      3          6           0        1.848618    3.067941   -0.610455
      4          6           0        1.172753    4.227067   -0.166181
      5          7           0       -0.102155    4.516105   -0.456728
      6          6           0       -0.777729    3.649433   -1.228389
      7          6           0        3.280861    2.834064   -0.229146
      8          6           0        4.270481    3.817557   -0.094279
      9          6           0        5.530980    3.348391    0.293389
     10          7           0        5.819781    2.069885    0.525365
     11          6           0        4.802405    1.197244    0.363524
     12          7           0        3.565309    1.539754   -0.002115
     13          7           0        5.102434   -0.131944    0.610330
     14          6           0        4.347567   -1.354574    0.478923
     15          6           0        5.040281   -2.603400    0.471110
     16          6           0        4.264006   -3.767146    0.340557
     17          6           0        2.870764   -3.765367    0.208509
     18          6           0        2.206565   -2.534557    0.216745
     19          6           0        2.952020   -1.352433    0.354176
     20          7           0        0.796094   -2.344183    0.069036
     21          6           0       -0.207398   -3.227036   -0.251930
     22          6           0       -1.557582   -2.635947   -0.605181
     23          6           0       -1.695480   -1.438118   -1.325745
     24          6           0       -2.962294   -0.913238   -1.587996
     25          6           0       -4.130008   -1.564209   -1.147812
     26          6           0       -3.977297   -2.782716   -0.458431
     27          6           0       -2.714523   -3.324531   -0.207493
     28          6           0       -5.508714   -0.938877   -1.363209
     29          7           0       -5.992401    0.072054   -0.406776
     30          6           0       -5.425794    1.438286   -0.458329
     31          6           0       -4.242617    1.676183    0.514977
     32          7           0       -4.543630    1.328604    1.923754
     33          6           0       -5.262917    2.336800    2.711753
     34          6           0       -5.074282   -0.055801    1.978501
     35          6           0       -6.241377   -0.335146    0.995064
     36          8           0       -0.053148   -4.437381   -0.240080
     37          6           0        6.549951   -2.724274    0.589536
     38          1           0       -0.803512    1.813277   -2.373017
     39          1           0        1.581056    1.286419   -1.828001
     40          1           0        1.679568    4.947113    0.473414
     41          1           0       -1.812413    3.912298   -1.442322
     42          1           0        4.099060    4.871451   -0.280743
     43          1           0        6.359166    4.044130    0.424239
     44          1           0        6.078845   -0.219939    0.849024
     45          1           0        4.758312   -4.737858    0.330981
     46          1           0        2.311946   -4.686305    0.094612
     47          1           0        2.442061   -0.399908    0.355573
     48          1           0        0.501516   -1.381020    0.151835
     49          1           0       -0.806245   -0.922680   -1.679795
     50          1           0       -3.037101    0.027181   -2.134381
     51          1           0       -4.854871   -3.318650   -0.098327
     52          1           0       -2.602819   -4.268766    0.319581
     53          1           0       -5.533072   -0.482220   -2.363198
     54          1           0       -6.259014   -1.742436   -1.384127
     55          1           0       -5.202681    1.715205   -1.450011
     56          1           0       -6.564444    2.416467    0.027841
     57          1           0       -3.908287    3.143606    0.450049
     58          1           0       -3.318468    1.095694    0.198808
     59          1           0       -6.277699    2.487611    2.326518
     60          1           0       -4.727266    3.292530    2.682760
     61          1           0       -5.327450    2.020804    3.759321
     62          1           0       -5.356535   -0.307286    3.034477
     63          1           0       -3.941841   -0.966117    1.588191
     64          1           0       -7.444467    0.535368    1.519141
     65          1           0       -6.573627   -1.408441    1.040362
     66          1           0        6.906645   -2.355003    1.561409
     67          1           0        7.062042   -2.145719   -0.192249
     68          1           0        6.906038   -3.759433    0.495993
 ---------------------------------------------------------------------
 Rotational constants (GHZ):      0.1319486      0.0606564      0.0452237
 Leave Link  202 at Wed Mar 25 12:57:51 2020, MaxMem= 2684354560 cpu:       0.0
 (Enter /opt/g09gh/gaussian/g09/l301.exe)
 Standard basis: 6-31G(d) (6D, 7F)
 Ernie: Thresh=  0.10000D-02 Tol=  0.10000D-05 Strict=F.
 There are   617 symmetry adapted basis functions of A   symmetry.
 Integral buffers will be    131072 words long.
 Raffenetti 2 integral format.
 Two-electron integral symmetry is turned on.
   617 basis functions,  1160 primitive gaussians,   617 cartesian basis functions
   131 alpha electrons      131 beta electrons
       nuclear repulsion energy      3775.3971828011 Hartrees.
 IExCor= 4639 DFT=T Ex+Corr=wB97XD ExCW=0 ScaHFX=  1.000000
 ScaDFX=  1.000000  1.000000  1.000000  1.000000 ScalE2=  1.000000  1.000000
 IRadAn=      0 IRanWt=     -1 IRanGd=            0 ICorTp=0
  HFx wShort=  0.000000 wLong=  0.200000 cFull=  0.222036 cShort=  0.000000 cLong=  0.777964
  DFx wShort=  0.000000 wLong=  0.200000 cFull=  0.000000 cShort=  0.000000 cLong=  1.000000
 NAtoms=   68 NActive=   68 NUniq=   68 SFac= 7.50D-01 NAtFMM=   80 NAOKFM=F Big=T
 R6Disp: Dispersion energy =        -0.0581517991 Hartrees.
 Nuclear repulsion after empirical dispersion term =     3775.3390310020 Hartrees.
 Leave Link  301 at Wed Mar 25 12:57:51 2020, MaxMem= 2684354560 cpu:       0.3
 (Enter /opt/g09gh/gaussian/g09/l302.exe)
 NPDir=0 NMtPBC=     1 NCelOv=     1 NCel=       1 NClECP=     1 NCelD=      1
         NCelK=      1 NCelE2=     1 NClLst=     1 CellRange=     0.0.
 One-electron integrals computed using PRISM.
 NBasis=   617 RedAO= T  NBF=   617
 NBsUse=   617 1.00D-06 NBFU=   617
 Precomputing XC quadrature grid using
 IXCGrd= 2 IRadAn=           0 IRanWt=          -1 IRanGd=           0 AccXCQ= 1.00D-10.
 NRdTot=    4373 NPtTot=      558940 NUsed=      590448 NTot=      590480
 NSgBfM=   601   601   601   601   601 NAtAll=    68    68.
 Leave Link  302 at Wed Mar 25 12:57:53 2020, MaxMem= 2684354560 cpu:       7.4
 (Enter /opt/g09gh/gaussian/g09/l303.exe)
 DipDrv:  MaxL=1.
 Leave Link  303 at Wed Mar 25 12:57:53 2020, MaxMem= 2684354560 cpu:       0.5
 (Enter /opt/g09gh/gaussian/g09/l401.exe)
 Harris functional with IExCor= 4639 diagonalized for initial guess.
 ExpMin= 1.61D-01 ExpMax= 5.48D+03 ExpMxC= 8.25D+02 IAcc=1 IRadAn=         1 AccDes= 0.00D+00
 HarFok:  IExCor= 4639 AccDes= 0.00D+00 IRadAn=         1 IDoV= 1
 ScaDFX=  1.000000  1.000000  1.000000  1.000000
 FoFCou: FMM=F IPFlag=           0 FMFlag=      100000 FMFlg1=           1
         NFxFlg=           0 DoJE=T BraDBF=F KetDBF=T FulRan=T
         Omega=  0.000000  0.000000  1.000000  0.000000  0.000000 ICntrl=     500 IOpCl=  0
         NMat0=    1 NMatS0=    1 NMatT0=    0 NMatD0=    1 NMtDS0=    0 NMtDT0=    0
         I1Cent=           4 NGrid=           0.
 Petite list used in FoFCou.
 Harris En= -1512.39801219828    
 Initial guess orbital symmetries:
       Occupied  (A) (A) (A) (A) (A) (A) (A) (A) (A) (A) (A) (A)
                 (A) (A) (A) (A) (A) (A) (A) (A) (A) (A) (A) (A)
                 (A) (A) (A) (A) (A) (A) (A) (A) (A) (A) (A) (A)
                 (A) (A) (A) (A) (A) (A) (A) (A) (A) (A) (A) (A)
                 (A) (A) (A) (A) (A) (A) (A) (A) (A) (A) (A) (A)
                 (A) (A) (A) (A) (A) (A) (A) (A) (A) (A) (A) (A)
                 (A) (A) (A) (A) (A) (A) (A) (A) (A) (A) (A) (A)
                 (A) (A) (A) (A) (A) (A) (A) (A) (A) (A) (A) (A)
                 (A) (A) (A) (A) (A) (A) (A) (A) (A) (A) (A) (A)
                 (A) (A) (A) (A) (A) (A) (A) (A) (A) (A) (A) (A)
                 (A) (A) (A) (A) (A) (A) (A) (A) (A) (A) (A)
       Virtual   (A) (A) (A) (A) (A) (A) (A) (A) (A) (A) (A) (A)
                 (A) (A) (A) (A) (A) (A) (A) (A) (A) (A) (A) (A)
                 (A) (A) (A) (A) (A) (A) (A) (A) (A) (A) (A) (A)
                 (A) (A) (A) (A) (A) (A) (A) (A) (A) (A) (A) (A)
                 (A) (A) (A) (A) (A) (A) (A) (A) (A) (A) (A) (A)
                 (A) (A) (A) (A) (A) (A) (A) (A) (A) (A) (A) (A)
                 (A) (A) (A) (A) (A) (A) (A) (A) (A) (A) (A) (A)
                 (A) (A) (A) (A) (A) (A) (A) (A) (A) (A) (A) (A)
                 (A) (A) (A) (A) (A) (A) (A) (A) (A) (A) (A) (A)
                 (A) (A) (A) (A) (A) (A) (A) (A) (A) (A) (A) (A)
                 (A) (A) (A) (A) (A) (A) (A) (A) (A) (A) (A) (A)
                 (A) (A) (A) (A) (A) (A) (A) (A) (A) (A) (A) (A)
                 (A) (A) (A) (A) (A) (A) (A) (A) (A) (A) (A) (A)
                 (A) (A) (A) (A) (A) (A) (A) (A) (A) (A) (A) (A)
                 (A) (A) (A) (A) (A) (A) (A) (A) (A) (A) (A) (A)
                 (A) (A) (A) (A) (A) (A) (A) (A) (A) (A) (A) (A)
                 (A) (A) (A) (A) (A) (A) (A) (A) (A) (A) (A) (A)
                 (A) (A) (A) (A) (A) (A) (A) (A) (A) (A) (A) (A)
                 (A) (A) (A) (A) (A) (A) (A) (A) (A) (A) (A) (A)
                 (A) (A) (A) (A) (A) (A) (A) (A) (A) (A) (A) (A)
                 (A) (A) (A) (A) (A) (A) (A) (A) (A) (A) (A) (A)
                 (A) (A) (A) (A) (A) (A) (A) (A) (A) (A) (A) (A)
                 (A) (A) (A) (A) (A) (A) (A) (A) (A) (A) (A) (A)
                 (A) (A) (A) (A) (A) (A) (A) (A) (A) (A) (A) (A)
                 (A) (A) (A) (A) (A) (A) (A) (A) (A) (A) (A) (A)
                 (A) (A) (A) (A) (A) (A) (A) (A) (A) (A) (A) (A)
                 (A) (A) (A) (A) (A) (A) (A) (A) (A) (A) (A) (A)
                 (A) (A) (A) (A) (A) (A) (A) (A) (A) (A) (A) (A)
                 (A) (A) (A) (A) (A) (A) (A) (A) (A) (A) (A) (A)
                 (A) (A) (A) (A) (A) (A) (A) (A) (A) (A) (A) (A)
                 (A) (A) (A) (A) (A) (A) (A) (A) (A) (A) (A) (A)
                 (A) (A) (A) (A) (A) (A) (A) (A) (A) (A) (A) (A)
                 (A) (A) (A) (A) (A) (A) (A) (A) (A) (A) (A) (A)
                 (A) (A) (A) (A) (A) (A) (A) (A) (A) (A) (A) (A)
                 (A) (A) (A) (A) (A) (A) (A) (A) (A) (A) (A) (A)
                 (A) (A) (A) (A) (A) (A) (A) (A) (A) (A) (A) (A)
                 (A) (A) (A) (A) (A) (A) (A) (A) (A) (A) (A) (A)
                 (A) (A) (A) (A) (A) (A) (A) (A) (A) (A) (A) (A)
                 (A) (A) (A) (A) (A) (A) (A) (A) (A) (A) (A) (A)
                 (A) (A) (A) (A) (A) (A) (A) (A) (A) (A) (A) (A)
                 (A) (A) (A) (A) (A) (A)
 The electronic state of the initial guess is 1-A.
 Leave Link  401 at Wed Mar 25 12:57:55 2020, MaxMem= 2684354560 cpu:      14.9
 (Enter /opt/g09gh/gaussian/g09/l502.exe)
 Closed shell SCF:
 Requested convergence on RMS density matrix=1.00D-08 within 128 cycles.
 Requested convergence on MAX density matrix=1.00D-06.
 Requested convergence on             energy=1.00D-06.
 No special actions if energy rises.
 Using DIIS extrapolation, IDIIS=  1040.
 Integral symmetry usage will be decided dynamically.
       589823 words used for storage of precomputed grid.
 IEnd=     1758403 IEndB=     1758403 NGot=  2684354560 MDV=  2682994104
 LenX=  2682994104 LenY=  2682612798
 Fock matrices will be formed incrementally for  20 cycles.
 Integral accuracy reduced to 1.0D-05 until final iterations.

 Cycle   1  Pass 0  IDiag  1:
 FoFJK:  IHMeth= 1 ICntrl=     0 DoSepK=T KAlg= 1 I1Cent= 0 FoldK=F
 FoFCou: FMM=T IPFlag=           0 FMFlag=      100000 FMFlg1=           1
         NFxFlg=           0 DoJE=T BraDBF=F KetDBF=F FulRan=T
         Omega=  0.000000  0.000000  1.000000  0.000000  0.000000 ICntrl=     500 IOpCl=  0
         NMat0=    1 NMatS0=    1 NMatT0=    0 NMatD0=    1 NMtDS0=    0 NMtDT0=    0
         I1Cent=           0 NGrid=           0.
 Symmetry not used in FoFCou.
 FMM levels:  10  Number of levels for PrismC:   9
 E= -1581.16204980937    
 DIIS: error= 5.43D-02 at cycle   1 NSaved=   1.
 NSaved= 1 IEnMin= 1 EnMin= -1581.16204980937     IErMin= 1 ErrMin= 5.43D-02
 ErrMax= 5.43D-02 EMaxC= 1.00D-01 BMatC= 1.46D+00 BMatP= 1.46D+00
 IDIUse=3 WtCom= 4.57D-01 WtEn= 5.43D-01
 Coeff-Com:  0.100D+01
 Coeff-En:   0.100D+01
 Coeff:      0.100D+01
 Gap=     0.282 Goal=   None    Shift=    0.000
 GapD=    0.282 DampG=1.000 DampE=0.500 DampFc=0.5000 IDamp=-1.
 Damping current iteration by 5.00D-01
 RMSDP=1.86D-03 MaxDP=8.56D-02              OVMax= 1.71D-01

 Cycle   2  Pass 0  IDiag  1:
 RMSU=  6.58D-04    CP:  1.00D+00
 FoFJK:  IHMeth= 1 ICntrl=     0 DoSepK=T KAlg= 1 I1Cent= 0 FoldK=F
 E= -1581.33807569718     Delta-E=       -0.176025887806 Rises=F Damp=T
 DIIS: error= 2.71D-02 at cycle   2 NSaved=   2.
 NSaved= 2 IEnMin= 2 EnMin= -1581.33807569718     IErMin= 2 ErrMin= 2.71D-02
 ErrMax= 2.71D-02 EMaxC= 1.00D-01 BMatC= 3.22D-01 BMatP= 1.46D+00
 IDIUse=3 WtCom= 7.29D-01 WtEn= 2.71D-01
 Coeff-Com: -0.655D+00 0.165D+01
 Coeff-En:   0.000D+00 0.100D+01
 Coeff:     -0.477D+00 0.148D+01
 Gap=     0.297 Goal=   None    Shift=    0.000
 RMSDP=8.69D-04 MaxDP=3.69D-02 DE=-1.76D-01 OVMax= 1.22D-01

 Cycle   3  Pass 0  IDiag  1:
 RMSU=  5.64D-04    CP:  1.00D+00  1.37D+00
 FoFJK:  IHMeth= 1 ICntrl=     0 DoSepK=T KAlg= 1 I1Cent= 0 FoldK=F
 E= -1581.46719212139     Delta-E=       -0.129116424207 Rises=F Damp=F
 DIIS: error= 8.61D-03 at cycle   3 NSaved=   3.
 NSaved= 3 IEnMin= 3 EnMin= -1581.46719212139     IErMin= 3 ErrMin= 8.61D-03
 ErrMax= 8.61D-03 EMaxC= 1.00D-01 BMatC= 6.30D-02 BMatP= 3.22D-01
 IDIUse=3 WtCom= 9.14D-01 WtEn= 8.61D-02
 Coeff-Com: -0.366D+00 0.756D+00 0.610D+00
 Coeff-En:   0.000D+00 0.000D+00 0.100D+01
 Coeff:     -0.335D+00 0.691D+00 0.644D+00
 Gap=     0.274 Goal=   None    Shift=    0.000
 RMSDP=4.67D-04 MaxDP=3.26D-02 DE=-1.29D-01 OVMax= 6.38D-02

 Cycle   4  Pass 0  IDiag  1:
 RMSU=  1.35D-04    CP:  1.00D+00  1.67D+00  5.96D-01
 FoFJK:  IHMeth= 1 ICntrl=     0 DoSepK=T KAlg= 1 I1Cent= 0 FoldK=F
 E= -1581.52268852815     Delta-E=       -0.055496406758 Rises=F Damp=F
 DIIS: error= 1.86D-03 at cycle   4 NSaved=   4.
 NSaved= 4 IEnMin= 4 EnMin= -1581.52268852815     IErMin= 4 ErrMin= 1.86D-03
 ErrMax= 1.86D-03 EMaxC= 1.00D-01 BMatC= 3.55D-03 BMatP= 6.30D-02
 IDIUse=3 WtCom= 9.81D-01 WtEn= 1.86D-02
 Coeff-Com: -0.161D+00 0.327D+00 0.342D+00 0.491D+00
 Coeff-En:   0.000D+00 0.000D+00 0.000D+00 0.100D+01
 Coeff:     -0.158D+00 0.321D+00 0.336D+00 0.501D+00
 Gap=     0.267 Goal=   None    Shift=    0.000
 RMSDP=9.72D-05 MaxDP=9.12D-03 DE=-5.55D-02 OVMax= 1.01D-02

 Cycle   5  Pass 0  IDiag  1:
 RMSU=  4.45D-05    CP:  1.00D+00  1.65D+00  6.61D-01  7.41D-01
 FoFJK:  IHMeth= 1 ICntrl=     0 DoSepK=T KAlg= 1 I1Cent= 0 FoldK=F
 E= -1581.52568788085     Delta-E=       -0.002999352700 Rises=F Damp=F
 DIIS: error= 4.79D-04 at cycle   5 NSaved=   5.
 NSaved= 5 IEnMin= 5 EnMin= -1581.52568788085     IErMin= 5 ErrMin= 4.79D-04
 ErrMax= 4.79D-04 EMaxC= 1.00D-01 BMatC= 8.46D-05 BMatP= 3.55D-03
 IDIUse=3 WtCom= 9.95D-01 WtEn= 4.79D-03
 Coeff-Com: -0.125D-01 0.244D-01 0.492D-01 0.156D+00 0.783D+00
 Coeff-En:   0.000D+00 0.000D+00 0.000D+00 0.000D+00 0.100D+01
 Coeff:     -0.124D-01 0.243D-01 0.489D-01 0.155D+00 0.784D+00
 Gap=     0.266 Goal=   None    Shift=    0.000
 RMSDP=2.46D-05 MaxDP=2.63D-03 DE=-3.00D-03 OVMax= 2.95D-03

 Cycle   6  Pass 0  IDiag  1:
 RMSU=  1.34D-05    CP:  1.00D+00  1.66D+00  6.68D-01  8.10D-01  9.85D-01
 FoFJK:  IHMeth= 1 ICntrl=     0 DoSepK=T KAlg= 1 I1Cent= 0 FoldK=F
 E= -1581.52577263286     Delta-E=       -0.000084752018 Rises=F Damp=F
 DIIS: error= 2.16D-04 at cycle   6 NSaved=   6.
 NSaved= 6 IEnMin= 6 EnMin= -1581.52577263286     IErMin= 6 ErrMin= 2.16D-04
 ErrMax= 2.16D-04 EMaxC= 1.00D-01 BMatC= 2.80D-05 BMatP= 8.46D-05
 IDIUse=3 WtCom= 9.98D-01 WtEn= 2.16D-03
 Coeff-Com:  0.243D-01-0.503D-01-0.382D-01-0.181D-01 0.411D+00 0.671D+00
 Coeff-En:   0.000D+00 0.000D+00 0.000D+00 0.000D+00 0.000D+00 0.100D+01
 Coeff:      0.243D-01-0.502D-01-0.381D-01-0.180D-01 0.410D+00 0.672D+00
 Gap=     0.267 Goal=   None    Shift=    0.000
 RMSDP=1.30D-05 MaxDP=8.24D-04 DE=-8.48D-05 OVMax= 1.62D-03

 Cycle   7  Pass 0  IDiag  1:
 RMSU=  5.64D-06    CP:  1.00D+00  1.66D+00  6.72D-01  8.39D-01  1.10D+00
                    CP:  8.99D-01
 FoFJK:  IHMeth= 1 ICntrl=     0 DoSepK=T KAlg= 1 I1Cent= 0 FoldK=F
 E= -1581.52580372372     Delta-E=       -0.000031090861 Rises=F Damp=F
 DIIS: error= 7.09D-05 at cycle   7 NSaved=   7.
 NSaved= 7 IEnMin= 7 EnMin= -1581.52580372372     IErMin= 7 ErrMin= 7.09D-05
 ErrMax= 7.09D-05 EMaxC= 1.00D-01 BMatC= 1.53D-06 BMatP= 2.80D-05
 IDIUse=1 WtCom= 1.00D+00 WtEn= 0.00D+00
 Coeff-Com:  0.930D-02-0.190D-01-0.166D-01-0.213D-01 0.657D-01 0.218D+00
 Coeff-Com:  0.764D+00
 Coeff:      0.930D-02-0.190D-01-0.166D-01-0.213D-01 0.657D-01 0.218D+00
 Coeff:      0.764D+00
 Gap=     0.267 Goal=   None    Shift=    0.000
 RMSDP=4.09D-06 MaxDP=2.50D-04 DE=-3.11D-05 OVMax= 6.51D-04

 Initial convergence to 1.0D-05 achieved.  Increase integral accuracy.
 Cycle   8  Pass 1  IDiag  1:
 FoFJK:  IHMeth= 1 ICntrl=     0 DoSepK=T KAlg= 1 I1Cent= 0 FoldK=F
 E= -1581.52413755043     Delta-E=        0.001666173293 Rises=F Damp=F
 DIIS: error= 9.66D-05 at cycle   1 NSaved=   1.
 NSaved= 1 IEnMin= 1 EnMin= -1581.52413755043     IErMin= 1 ErrMin= 9.66D-05
 ErrMax= 9.66D-05 EMaxC= 1.00D-01 BMatC= 1.26D-05 BMatP= 1.26D-05
 IDIUse=1 WtCom= 1.00D+00 WtEn= 0.00D+00
 Coeff-Com:  0.100D+01
 Coeff:      0.100D+01
 Gap=     0.267 Goal=   None    Shift=    0.000
 RMSDP=4.09D-06 MaxDP=2.50D-04 DE= 1.67D-03 OVMax= 3.83D-04

 Cycle   9  Pass 1  IDiag  1:
 RMSU=  1.74D-05    CP:  1.00D+00
 FoFJK:  IHMeth= 1 ICntrl=     0 DoSepK=T KAlg= 1 I1Cent= 0 FoldK=F
 E= -1581.52414752653     Delta-E=       -0.000009976102 Rises=F Damp=F
 DIIS: error= 3.66D-05 at cycle   2 NSaved=   2.
 NSaved= 2 IEnMin= 2 EnMin= -1581.52414752653     IErMin= 2 ErrMin= 3.66D-05
 ErrMax= 3.66D-05 EMaxC= 1.00D-01 BMatC= 6.95D-07 BMatP= 1.26D-05
 IDIUse=1 WtCom= 1.00D+00 WtEn= 0.00D+00
 Coeff-Com:  0.291D-01 0.971D+00
 Coeff:      0.291D-01 0.971D+00
 Gap=     0.267 Goal=   None    Shift=    0.000
 RMSDP=3.09D-06 MaxDP=2.21D-04 DE=-9.98D-06 OVMax= 3.33D-04

 Cycle  10  Pass 1  IDiag  1:
 RMSU=  2.01D-06    CP:  1.00D+00  1.05D+00
 FoFJK:  IHMeth= 1 ICntrl=     0 DoSepK=T KAlg= 1 I1Cent= 0 FoldK=F
 E= -1581.52414759260     Delta-E=       -0.000000066071 Rises=F Damp=F
 DIIS: error= 3.92D-05 at cycle   3 NSaved=   3.
 NSaved= 3 IEnMin= 3 EnMin= -1581.52414759260     IErMin= 2 ErrMin= 3.66D-05
 ErrMax= 3.92D-05 EMaxC= 1.00D-01 BMatC= 8.33D-07 BMatP= 6.95D-07
 IDIUse=1 WtCom= 1.00D+00 WtEn= 0.00D+00
 Coeff-Com: -0.392D-01 0.540D+00 0.499D+00
 Coeff:     -0.392D-01 0.540D+00 0.499D+00
 Gap=     0.267 Goal=   None    Shift=    0.000
 RMSDP=1.52D-06 MaxDP=1.23D-04 DE=-6.61D-08 OVMax= 1.61D-04

 Cycle  11  Pass 1  IDiag  1:
 RMSU=  6.08D-07    CP:  1.00D+00  1.06D+00  5.66D-01
 FoFJK:  IHMeth= 1 ICntrl=     0 DoSepK=T KAlg= 1 I1Cent= 0 FoldK=F
 E= -1581.52414833761     Delta-E=       -0.000000745007 Rises=F Damp=F
 DIIS: error= 6.63D-06 at cycle   4 NSaved=   4.
 NSaved= 4 IEnMin= 4 EnMin= -1581.52414833761     IErMin= 4 ErrMin= 6.63D-06
 ErrMax= 6.63D-06 EMaxC= 1.00D-01 BMatC= 2.13D-08 BMatP= 6.95D-07
 IDIUse=1 WtCom= 1.00D+00 WtEn= 0.00D+00
 Coeff-Com: -0.166D-01 0.127D+00 0.175D+00 0.715D+00
 Coeff:     -0.166D-01 0.127D+00 0.175D+00 0.715D+00
 Gap=     0.267 Goal=   None    Shift=    0.000
 RMSDP=3.35D-07 MaxDP=3.55D-05 DE=-7.45D-07 OVMax= 3.77D-05

 Cycle  12  Pass 1  IDiag  1:
 RMSU=  2.06D-07    CP:  1.00D+00  1.06D+00  6.20D-01  1.05D+00
 FoFJK:  IHMeth= 1 ICntrl=     0 DoSepK=T KAlg= 1 I1Cent= 0 FoldK=F
 E= -1581.52414835896     Delta-E=       -0.000000021350 Rises=F Damp=F
 DIIS: error= 2.62D-06 at cycle   5 NSaved=   5.
 NSaved= 5 IEnMin= 5 EnMin= -1581.52414835896     IErMin= 5 ErrMin= 2.62D-06
 ErrMax= 2.62D-06 EMaxC= 1.00D-01 BMatC= 4.84D-09 BMatP= 2.13D-08
 IDIUse=1 WtCom= 1.00D+00 WtEn= 0.00D+00
 Coeff-Com:  0.233D-03-0.441D-01-0.151D-01 0.317D+00 0.742D+00
 Coeff:      0.233D-03-0.441D-01-0.151D-01 0.317D+00 0.742D+00
 Gap=     0.267 Goal=   None    Shift=    0.000
 RMSDP=1.93D-07 MaxDP=1.22D-05 DE=-2.14D-08 OVMax= 3.09D-05

 Cycle  13  Pass 1  IDiag  1:
 RMSU=  9.27D-08    CP:  1.00D+00  1.06D+00  6.38D-01  1.20D+00  9.49D-01
 FoFJK:  IHMeth= 1 ICntrl=     0 DoSepK=T KAlg= 1 I1Cent= 0 FoldK=F
 E= -1581.52414836560     Delta-E=       -0.000000006637 Rises=F Damp=F
 DIIS: error= 6.83D-07 at cycle   6 NSaved=   6.
 NSaved= 6 IEnMin= 6 EnMin= -1581.52414836560     IErMin= 6 ErrMin= 6.83D-07
 ErrMax= 6.83D-07 EMaxC= 1.00D-01 BMatC= 5.37D-10 BMatP= 4.84D-09
 IDIUse=1 WtCom= 1.00D+00 WtEn= 0.00D+00
 Coeff-Com:  0.206D-02-0.298D-01-0.259D-01 0.273D-01 0.276D+00 0.750D+00
 Coeff:      0.206D-02-0.298D-01-0.259D-01 0.273D-01 0.276D+00 0.750D+00
 Gap=     0.267 Goal=   None    Shift=    0.000
 RMSDP=7.89D-08 MaxDP=4.20D-06 DE=-6.64D-09 OVMax= 1.43D-05

 Cycle  14  Pass 1  IDiag  1:
 RMSU=  3.45D-08    CP:  1.00D+00  1.06D+00  6.42D-01  1.26D+00  1.08D+00
                    CP:  1.02D+00
 FoFJK:  IHMeth= 1 ICntrl=     0 DoSepK=T KAlg= 1 I1Cent= 0 FoldK=F
 E= -1581.52414836665     Delta-E=       -0.000000001054 Rises=F Damp=F
 DIIS: error= 3.61D-07 at cycle   7 NSaved=   7.
 NSaved= 7 IEnMin= 7 EnMin= -1581.52414836665     IErMin= 7 ErrMin= 3.61D-07
 ErrMax= 3.61D-07 EMaxC= 1.00D-01 BMatC= 1.08D-10 BMatP= 5.37D-10
 IDIUse=1 WtCom= 1.00D+00 WtEn= 0.00D+00
 Coeff-Com:  0.754D-03-0.378D-02-0.832D-02-0.553D-01-0.354D-01 0.294D+00
 Coeff-Com:  0.808D+00
 Coeff:      0.754D-03-0.378D-02-0.832D-02-0.553D-01-0.354D-01 0.294D+00
 Coeff:      0.808D+00
 Gap=     0.267 Goal=   None    Shift=    0.000
 RMSDP=4.40D-08 MaxDP=2.65D-06 DE=-1.05D-09 OVMax= 8.61D-06

 Cycle  15  Pass 1  IDiag  1:
 RMSU=  1.41D-08    CP:  1.00D+00  1.06D+00  6.46D-01  1.28D+00  1.14D+00
                    CP:  1.21D+00  1.09D+00
 FoFJK:  IHMeth= 1 ICntrl=     0 DoSepK=T KAlg= 1 I1Cent= 0 FoldK=F
 E= -1581.52414836691     Delta-E=       -0.000000000256 Rises=F Damp=F
 DIIS: error= 1.23D-07 at cycle   8 NSaved=   8.
 NSaved= 8 IEnMin= 8 EnMin= -1581.52414836691     IErMin= 8 ErrMin= 1.23D-07
 ErrMax= 1.23D-07 EMaxC= 1.00D-01 BMatC= 1.40D-11 BMatP= 1.08D-10
 IDIUse=1 WtCom= 1.00D+00 WtEn= 0.00D+00
 Coeff-Com: -0.103D-03 0.392D-02 0.177D-02-0.218D-01-0.547D-01-0.278D-01
 Coeff-Com:  0.262D+00 0.836D+00
 Coeff:     -0.103D-03 0.392D-02 0.177D-02-0.218D-01-0.547D-01-0.278D-01
 Coeff:      0.262D+00 0.836D+00
 Gap=     0.267 Goal=   None    Shift=    0.000
 RMSDP=1.72D-08 MaxDP=1.09D-06 DE=-2.56D-10 OVMax= 3.77D-06

 Cycle  16  Pass 1  IDiag  1:
 RMSU=  5.66D-09    CP:  1.00D+00  1.06D+00  6.47D-01  1.29D+00  1.16D+00
                    CP:  1.27D+00  1.28D+00  1.10D+00
 FoFJK:  IHMeth= 1 ICntrl=     0 DoSepK=T KAlg= 1 I1Cent= 0 FoldK=F
 E= -1581.52414836696     Delta-E=       -0.000000000055 Rises=F Damp=F
 DIIS: error= 6.38D-08 at cycle   9 NSaved=   9.
 NSaved= 9 IEnMin= 9 EnMin= -1581.52414836696     IErMin= 9 ErrMin= 6.38D-08
 ErrMax= 6.38D-08 EMaxC= 1.00D-01 BMatC= 2.59D-12 BMatP= 1.40D-11
 IDIUse=1 WtCom= 1.00D+00 WtEn= 0.00D+00
 Coeff-Com: -0.155D-03 0.207D-02 0.202D-02 0.538D-03-0.156D-01-0.627D-01
 Coeff-Com: -0.369D-01 0.302D+00 0.808D+00
 Coeff:     -0.155D-03 0.207D-02 0.202D-02 0.538D-03-0.156D-01-0.627D-01
 Coeff:     -0.369D-01 0.302D+00 0.808D+00
 Gap=     0.267 Goal=   None    Shift=    0.000
 RMSDP=7.11D-09 MaxDP=4.08D-07 DE=-5.46D-11 OVMax= 1.46D-06

 SCF Done:  E(RwB97XD) =  -1581.52414837     A.U. after   16 cycles
             Convg  =    0.7107D-08             -V/T =  2.0109
 KE= 1.564442157744D+03 PE=-1.121840942264D+04 EE= 4.297104085526D+03
 Leave Link  502 at Wed Mar 25 13:00:35 2020, MaxMem= 2684354560 cpu:     958.8
 (Enter /opt/g09gh/gaussian/g09/l601.exe)
 Copying SCF densities to generalized density rwf, IOpCl= 0 IROHF=0.

 **********************************************************************

            Population analysis using the SCF density.

 **********************************************************************

 Orbital symmetries:
       Occupied  (A) (A) (A) (A) (A) (A) (A) (A) (A) (A) (A) (A)
                 (A) (A) (A) (A) (A) (A) (A) (A) (A) (A) (A) (A)
                 (A) (A) (A) (A) (A) (A) (A) (A) (A) (A) (A) (A)
                 (A) (A) (A) (A) (A) (A) (A) (A) (A) (A) (A) (A)
                 (A) (A) (A) (A) (A) (A) (A) (A) (A) (A) (A) (A)
                 (A) (A) (A) (A) (A) (A) (A) (A) (A) (A) (A) (A)
                 (A) (A) (A) (A) (A) (A) (A) (A) (A) (A) (A) (A)
                 (A) (A) (A) (A) (A) (A) (A) (A) (A) (A) (A) (A)
                 (A) (A) (A) (A) (A) (A) (A) (A) (A) (A) (A) (A)
                 (A) (A) (A) (A) (A) (A) (A) (A) (A) (A) (A) (A)
                 (A) (A) (A) (A) (A) (A) (A) (A) (A) (A) (A)
       Virtual   (A) (A) (A) (A) (A) (A) (A) (A) (A) (A) (A) (A)
                 (A) (A) (A) (A) (A) (A) (A) (A) (A) (A) (A) (A)
                 (A) (A) (A) (A) (A) (A) (A) (A) (A) (A) (A) (A)
                 (A) (A) (A) (A) (A) (A) (A) (A) (A) (A) (A) (A)
                 (A) (A) (A) (A) (A) (A) (A) (A) (A) (A) (A) (A)
                 (A) (A) (A) (A) (A) (A) (A) (A) (A) (A) (A) (A)
                 (A) (A) (A) (A) (A) (A) (A) (A) (A) (A) (A) (A)
                 (A) (A) (A) (A) (A) (A) (A) (A) (A) (A) (A) (A)
                 (A) (A) (A) (A) (A) (A) (A) (A) (A) (A) (A) (A)
                 (A) (A) (A) (A) (A) (A) (A) (A) (A) (A) (A) (A)
                 (A) (A) (A) (A) (A) (A) (A) (A) (A) (A) (A) (A)
                 (A) (A) (A) (A) (A) (A) (A) (A) (A) (A) (A) (A)
                 (A) (A) (A) (A) (A) (A) (A) (A) (A) (A) (A) (A)
                 (A) (A) (A) (A) (A) (A) (A) (A) (A) (A) (A) (A)
                 (A) (A) (A) (A) (A) (A) (A) (A) (A) (A) (A) (A)
                 (A) (A) (A) (A) (A) (A) (A) (A) (A) (A) (A) (A)
                 (A) (A) (A) (A) (A) (A) (A) (A) (A) (A) (A) (A)
                 (A) (A) (A) (A) (A) (A) (A) (A) (A) (A) (A) (A)
                 (A) (A) (A) (A) (A) (A) (A) (A) (A) (A) (A) (A)
                 (A) (A) (A) (A) (A) (A) (A) (A) (A) (A) (A) (A)
                 (A) (A) (A) (A) (A) (A) (A) (A) (A) (A) (A) (A)
                 (A) (A) (A) (A) (A) (A) (A) (A) (A) (A) (A) (A)
                 (A) (A) (A) (A) (A) (A) (A) (A) (A) (A) (A) (A)
                 (A) (A) (A) (A) (A) (A) (A) (A) (A) (A) (A) (A)
                 (A) (A) (A) (A) (A) (A) (A) (A) (A) (A) (A) (A)
                 (A) (A) (A) (A) (A) (A) (A) (A) (A) (A) (A) (A)
                 (A) (A) (A) (A) (A) (A) (A) (A) (A) (A) (A) (A)
                 (A) (A) (A) (A) (A) (A) (A) (A) (A) (A) (A) (A)
                 (A) (A) (A) (A) (A) (A) (A) (A) (A) (A) (A) (A)
                 (A) (A) (A) (A) (A) (A) (A) (A) (A) (A) (A) (A)
                 (A) (A) (A) (A) (A) (A) (A) (A) (A) (A) (A) (A)
                 (A) (A) (A) (A) (A) (A) (A) (A) (A) (A) (A) (A)
                 (A) (A) (A) (A) (A) (A) (A) (A) (A) (A) (A) (A)
                 (A) (A) (A) (A) (A) (A) (A) (A) (A) (A) (A) (A)
                 (A) (A) (A) (A) (A) (A) (A) (A) (A) (A) (A) (A)
                 (A) (A) (A) (A) (A) (A) (A) (A) (A) (A) (A) (A)
                 (A) (A) (A) (A) (A) (A) (A) (A) (A) (A) (A) (A)
                 (A) (A) (A) (A) (A) (A) (A) (A) (A) (A) (A) (A)
                 (A) (A) (A) (A) (A) (A) (A) (A) (A) (A) (A) (A)
                 (A) (A) (A) (A) (A) (A) (A) (A) (A) (A) (A) (A)
                 (A) (A) (A) (A) (A) (A)
 The electronic state is 1-A.
 Alpha  occ. eigenvalues --  -19.24143 -14.49585 -14.49513 -14.47070 -14.46204
 Alpha  occ. eigenvalues --  -14.46104 -14.45799 -14.44959 -10.42019 -10.41251
 Alpha  occ. eigenvalues --  -10.37883 -10.37006 -10.36424 -10.36252 -10.36228
 Alpha  occ. eigenvalues --  -10.36157 -10.36012 -10.35283 -10.35118 -10.34969
 Alpha  occ. eigenvalues --  -10.34826 -10.33826 -10.33749 -10.32795 -10.32769
 Alpha  occ. eigenvalues --  -10.32734 -10.32603 -10.32183 -10.32131 -10.31916
 Alpha  occ. eigenvalues --  -10.31860 -10.31626 -10.31126 -10.30532 -10.30405
 Alpha  occ. eigenvalues --  -10.29909 -10.29423  -1.14255  -1.11666  -1.05232
 Alpha  occ. eigenvalues --   -1.04068  -1.03929  -1.03396  -1.00181  -0.99891
 Alpha  occ. eigenvalues --   -0.97033  -0.94785  -0.91995  -0.89719  -0.88744
 Alpha  occ. eigenvalues --   -0.87037  -0.86666  -0.85976  -0.84208  -0.83971
 Alpha  occ. eigenvalues --   -0.82451  -0.79837  -0.78301  -0.77795  -0.75910
 Alpha  occ. eigenvalues --   -0.73360  -0.73302  -0.72424  -0.72247  -0.71452
 Alpha  occ. eigenvalues --   -0.71020  -0.70004  -0.68722  -0.66824  -0.64756
 Alpha  occ. eigenvalues --   -0.63461  -0.62755  -0.61560  -0.61380  -0.60324
 Alpha  occ. eigenvalues --   -0.58976  -0.58547  -0.57415  -0.57255  -0.56355
 Alpha  occ. eigenvalues --   -0.56123  -0.55862  -0.54991  -0.54660  -0.54323
 Alpha  occ. eigenvalues --   -0.53885  -0.53276  -0.52909  -0.52516  -0.52171
 Alpha  occ. eigenvalues --   -0.51871  -0.51695  -0.51254  -0.51141  -0.50667
 Alpha  occ. eigenvalues --   -0.50428  -0.50036  -0.49669  -0.49522  -0.48828
 Alpha  occ. eigenvalues --   -0.47679  -0.47505  -0.46993  -0.46703  -0.46202
 Alpha  occ. eigenvalues --   -0.45904  -0.45301  -0.44801  -0.44138  -0.44062
 Alpha  occ. eigenvalues --   -0.43750  -0.43339  -0.42963  -0.41179  -0.40717
 Alpha  occ. eigenvalues --   -0.40152  -0.38384  -0.38072  -0.37171  -0.36186
 Alpha  occ. eigenvalues --   -0.35309  -0.34864  -0.34625  -0.34011  -0.33778
 Alpha  occ. eigenvalues --   -0.33512  -0.32832  -0.31600  -0.29724  -0.27709
 Alpha  occ. eigenvalues --   -0.26474
 Alpha virt. eigenvalues --    0.00211   0.02101   0.03631   0.03924   0.04814
 Alpha virt. eigenvalues --    0.06647   0.07071   0.07552   0.09443   0.09642
 Alpha virt. eigenvalues --    0.11713   0.12949   0.13015   0.13640   0.15647
 Alpha virt. eigenvalues --    0.16543   0.17388   0.18317   0.18769   0.19054
 Alpha virt. eigenvalues --    0.19631   0.20144   0.20391   0.20703   0.21978
 Alpha virt. eigenvalues --    0.22282   0.22516   0.22844   0.23067   0.23185
 Alpha virt. eigenvalues --    0.23643   0.23817   0.24139   0.24321   0.24929
 Alpha virt. eigenvalues --    0.25388   0.25543   0.25599   0.26146   0.26836
 Alpha virt. eigenvalues --    0.27058   0.27403   0.27646   0.28148   0.28286
 Alpha virt. eigenvalues --    0.28698   0.29033   0.29917   0.30546   0.30618
 Alpha virt. eigenvalues --    0.31334   0.31741   0.31946   0.32750   0.32818
 Alpha virt. eigenvalues --    0.33465   0.34172   0.35248   0.35879   0.36882
 Alpha virt. eigenvalues --    0.37541   0.37728   0.38480   0.39034   0.39338
 Alpha virt. eigenvalues --    0.39567   0.40036   0.40752   0.41091   0.41490
 Alpha virt. eigenvalues --    0.41888   0.43472   0.44495   0.45728   0.46101
 Alpha virt. eigenvalues --    0.47836   0.49244   0.50332   0.51955   0.53011
 Alpha virt. eigenvalues --    0.54972   0.55384   0.56148   0.57253   0.57714
 Alpha virt. eigenvalues --    0.58212   0.58424   0.58752   0.59327   0.59919
 Alpha virt. eigenvalues --    0.60070   0.60721   0.60837   0.61294   0.61876
 Alpha virt. eigenvalues --    0.62156   0.62671   0.62957   0.63143   0.63546
 Alpha virt. eigenvalues --    0.63850   0.64510   0.64713   0.64764   0.65270
 Alpha virt. eigenvalues --    0.65487   0.65653   0.65802   0.66137   0.66198
 Alpha virt. eigenvalues --    0.66582   0.66802   0.67201   0.67685   0.67945
 Alpha virt. eigenvalues --    0.68459   0.68598   0.68750   0.69327   0.70078
 Alpha virt. eigenvalues --    0.70259   0.70455   0.70933   0.71557   0.71819
 Alpha virt. eigenvalues --    0.71880   0.72260   0.72422   0.72520   0.73157
 Alpha virt. eigenvalues --    0.74014   0.74973   0.75179   0.75565   0.75774
 Alpha virt. eigenvalues --    0.77227   0.78021   0.78356   0.79441   0.79893
 Alpha virt. eigenvalues --    0.80121   0.80970   0.81525   0.81974   0.82481
 Alpha virt. eigenvalues --    0.82900   0.83424   0.84245   0.84464   0.85204
 Alpha virt. eigenvalues --    0.86204   0.86771   0.86848   0.87922   0.87970
 Alpha virt. eigenvalues --    0.88550   0.88720   0.89668   0.90193   0.90309
 Alpha virt. eigenvalues --    0.90903   0.91033   0.91557   0.91734   0.92107
 Alpha virt. eigenvalues --    0.92253   0.92579   0.93013   0.93510   0.93714
 Alpha virt. eigenvalues --    0.94003   0.94141   0.94454   0.94916   0.95272
 Alpha virt. eigenvalues --    0.95816   0.96376   0.96874   0.97294   0.97746
 Alpha virt. eigenvalues --    0.98047   0.98505   0.99007   0.99303   1.00088
 Alpha virt. eigenvalues --    1.00363   1.00647   1.00990   1.01745   1.02082
 Alpha virt. eigenvalues --    1.02668   1.03247   1.03811   1.04497   1.05385
 Alpha virt. eigenvalues --    1.06339   1.06490   1.06720   1.07244   1.07660
[...]
   D74       -0.01329  -0.00059   0.00000  -0.00143  -0.00143  -0.01472
   D75        0.00487   0.00084   0.00000   0.00201   0.00201   0.00688
   D76        3.13593  -0.00005   0.00000  -0.00008  -0.00008   3.13585
   D77       -3.11639   0.00111   0.00000   0.00254   0.00254  -3.11385
   D78        0.01467   0.00021   0.00000   0.00045   0.00045   0.01512
   D79       -0.14077   0.00074   0.00000   0.00183   0.00183  -0.13895
   D80        3.08716   0.00072   0.00000   0.00182   0.00182   3.08897
   D81        2.97896   0.00058   0.00000   0.00139   0.00140   2.98036
   D82       -0.07629   0.00056   0.00000   0.00138   0.00138  -0.07491
   D83       -2.92544   0.00061   0.00000   0.00143   0.00143  -2.92401
   D84        0.23679  -0.00024   0.00000  -0.00068  -0.00068   0.23611
   D85        0.12926   0.00049   0.00000   0.00127   0.00127   0.13053
   D86       -2.99169  -0.00036   0.00000  -0.00084  -0.00084  -2.99253
   D87        0.64049  -0.00036   0.00000  -0.00088  -0.00088   0.63961
   D88       -2.51414  -0.00050   0.00000  -0.00124  -0.00124  -2.51538
   D89       -2.52114   0.00047   0.00000   0.00117   0.00117  -2.51997
   D90        0.60741   0.00034   0.00000   0.00081   0.00081   0.60822
   D91       -3.10508  -0.00115   0.00000  -0.00275  -0.00275  -3.10782
   D92        0.03825  -0.00014   0.00000  -0.00037  -0.00037   0.03788
   D93        0.04960  -0.00101   0.00000  -0.00238  -0.00238   0.04722
   D94       -3.09026  -0.00001   0.00000  -0.00001  -0.00001  -3.09026
   D95        3.08937   0.00075   0.00000   0.00173   0.00173   3.09111
   D96       -0.02429   0.00024   0.00000   0.00052   0.00053  -0.02376
   D97       -0.06475   0.00058   0.00000   0.00134   0.00134  -0.06342
   D98        3.10477   0.00006   0.00000   0.00013   0.00013   3.10490
   D99       -0.00463   0.00113   0.00000   0.00266   0.00266  -0.00198
   D100       3.12299   0.00092   0.00000   0.00217   0.00217   3.12516
   D101       3.13521   0.00012   0.00000   0.00027   0.00027   3.13549
   D102      -0.02035  -0.00009   0.00000  -0.00021  -0.00021  -0.02057
   D103      -0.02501  -0.00071   0.00000  -0.00172  -0.00172  -0.02674
   D104       3.07455  -0.00040   0.00000  -0.00091  -0.00091   3.07364
   D105       3.13072  -0.00052   0.00000  -0.00126  -0.00127   3.12945
   D106      -0.05290  -0.00021   0.00000  -0.00045  -0.00045  -0.05336
   D107       0.00957   0.00024   0.00000   0.00064   0.00064   0.01021
   D108       3.13927   0.00048   0.00000   0.00120   0.00120   3.14047
   D109      -3.08982  -0.00002   0.00000  -0.00012  -0.00012  -3.08994
   D110       0.03988   0.00023   0.00000   0.00044   0.00044   0.04031
   D111      -1.44812   0.00166   0.00000   0.00362   0.00362  -1.44450
   D112       0.69982  -0.00171   0.00000  -0.00243  -0.00243   0.69739
   D113       2.69807   0.00160   0.00000   0.00316   0.00316   2.70123
   D114       1.64985   0.00211   0.00000   0.00459   0.00459   1.65444
   D115      -2.48540  -0.00126   0.00000  -0.00145  -0.00146  -2.48686
   D116      -0.48715   0.00205   0.00000   0.00413   0.00413  -0.48302
   D117       0.03559  -0.00021   0.00000  -0.00052  -0.00051   0.03507
   D118      -3.13465   0.00033   0.00000   0.00074   0.00074  -3.13391
   D119      -3.09428  -0.00043   0.00000  -0.00103  -0.00103  -3.09531
   D120       0.01866   0.00011   0.00000   0.00022   0.00022   0.01889
   D121       1.30870   0.00037   0.00000  -0.00020  -0.00019   1.30851
   D122      -1.12927  -0.00158   0.00000  -0.00299  -0.00298  -1.13225
   D123      -0.84946   0.00161   0.00000   0.00266   0.00266  -0.84681
   D124       2.99575  -0.00034   0.00000  -0.00012  -0.00013   2.99562
   D125      -2.82229   0.00044   0.00000   0.00044   0.00044  -2.82185
   D126       1.02293  -0.00151   0.00000  -0.00235  -0.00235   1.02058
   D127      -1.64923  -0.00205   0.00000  -0.00490  -0.00490  -1.65413
   D128       0.60237   0.00064   0.00000   0.00011   0.00012   0.60249
   D129       2.61342  -0.00201   0.00000  -0.00443  -0.00443   2.60899
   D130       0.84160  -0.00189   0.00000  -0.00448  -0.00448   0.83712
   D131       3.09320   0.00079   0.00000   0.00054   0.00053   3.09373
   D132      -1.17894  -0.00185   0.00000  -0.00401  -0.00402  -1.18295
   D133       1.67689   0.00171   0.00000   0.00507   0.00507   1.68196
   D134      -2.57136   0.00071   0.00000   0.00227   0.00227  -2.56909
   D135      -0.54948  -0.00201   0.00000  -0.00270  -0.00270  -0.55218
   D136      -0.81590   0.00258   0.00000   0.00591   0.00592  -0.80998
   D137       1.21904   0.00158   0.00000   0.00312   0.00312   1.22216
   D138      -3.04226  -0.00114   0.00000  -0.00186  -0.00185  -3.04411
   D139      -0.93496   0.00221   0.00000   0.00370   0.00370  -0.93126
   D140      -3.02386   0.00123   0.00000   0.00182   0.00181  -3.02204
   D141       1.20642   0.00267   0.00000   0.00491   0.00491   1.21132
   D142       3.11429   0.00036   0.00000   0.00030   0.00031   3.11459
   D143       1.02540  -0.00061   0.00000  -0.00158  -0.00158   1.02381
   D144      -1.02752   0.00082   0.00000   0.00151   0.00151  -1.02601
   D145       1.09951  -0.00021   0.00000  -0.00034  -0.00034   1.09917
   D146      -0.98939  -0.00119   0.00000  -0.00222  -0.00223  -0.99161
   D147      -3.04230   0.00025   0.00000   0.00087   0.00087  -3.04143
   D148      -1.43119   0.00136   0.00000   0.00284   0.00283  -1.42835
   D149       0.91687  -0.00090   0.00000  -0.00189  -0.00189   0.91498
   D150       0.64416   0.00322   0.00000   0.00640   0.00639   0.65056
   D151       2.99222   0.00096   0.00000   0.00167   0.00167   2.99389
   D152       2.67740   0.00165   0.00000   0.00318   0.00318   2.68059
   D153      -1.25772  -0.00061   0.00000  -0.00154  -0.00154  -1.25927
   D154       1.15119  -0.00101   0.00000  -0.00215  -0.00215   1.14904
   D155      -0.95581  -0.00228   0.00000  -0.00443  -0.00440  -0.96021
   D156      -3.02878   0.00083   0.00000   0.00117   0.00114  -3.02764
   D157      -1.13827   0.00026   0.00000   0.00052   0.00051  -1.13775
   D158       3.03791  -0.00102   0.00000  -0.00177  -0.00173   3.03618
   D159       0.96494   0.00210   0.00000   0.00383   0.00381   0.96875
   D160      -0.88847   0.00237   0.00000   0.00496   0.00497  -0.88351
   D161      -3.08878  -0.00041   0.00000  -0.00018  -0.00018  -3.08896
   D162       1.17291   0.00049   0.00000   0.00180   0.00180   1.17471
   D163       1.46126   0.00160   0.00000   0.00228   0.00228   1.46354
   D164      -0.73905  -0.00119   0.00000  -0.00286  -0.00286  -0.74192
   D165      -2.76055  -0.00029   0.00000  -0.00088  -0.00088  -2.76143
   D166       0.87730  -0.00404   0.00000  -0.00801  -0.00801   0.86929
   D167      -1.17372  -0.00136   0.00000  -0.00283  -0.00283  -1.17654
   D168       3.09374  -0.00105   0.00000  -0.00166  -0.00165   3.09209
   D169       3.05908  -0.00117   0.00000  -0.00260  -0.00260   3.05647
   D170       1.00806   0.00150   0.00000   0.00258   0.00258   1.01064
   D171      -1.00767   0.00182   0.00000   0.00375   0.00376  -1.00391
   D172      -1.17991  -0.00303   0.00000  -0.00633  -0.00633  -1.18624
   D173       3.05226  -0.00036   0.00000  -0.00115  -0.00115   3.05111
   D174       1.03653  -0.00004   0.00000   0.00002   0.00003   1.03656
         Item               Value     Threshold  Converged?
 Maximum Force            0.091226     0.000450     NO 
 RMS     Force            0.011183     0.000300     NO 
 Maximum Displacement     0.300147     0.001800     NO 
 RMS     Displacement     0.079427     0.001200     NO 
 Predicted change in Energy=-5.634554D-02
 GradGradGradGradGradGradGradGradGradGradGradGradGradGradGradGradGradGrad

 Leave Link  103 at Wed Mar 25 13:01:27 2020, MaxMem= 2684354560 cpu:       2.3
 (Enter /opt/g09gh/gaussian/g09/l202.exe)
 Stoichiometry    C29H31N7O
 Framework group  C1[X(C29H31N7O)]
 Deg. of freedom   198
 Full point group                 C1      NOp   1
 Largest Abelian subgroup         C1      NOp   1
 Largest concise Abelian subgroup C1      NOp   1
                         Standard orientation:                         
 ---------------------------------------------------------------------
 Center     Atomic      Atomic             Coordinates (Angstroms)
 Number     Number       Type             X           Y           Z
 ---------------------------------------------------------------------
      1          6           0       -0.339449    2.336331   -1.696934
      2          6           0        1.004650    2.098210   -1.403927
      3          6           0        1.710231    3.011215   -0.606131
      4          6           0        1.006462    4.148943   -0.165324
      5          7           0       -0.279250    4.392206   -0.438161
      6          6           0       -0.933221    3.494417   -1.187812
      7          6           0        3.148468    2.821886   -0.247080
      8          6           0        4.100094    3.840522   -0.137817
      9          6           0        5.382964    3.428041    0.234176
     10          7           0        5.724266    2.166065    0.474064
     11          6           0        4.736074    1.259493    0.334283
     12          7           0        3.480373    1.543164   -0.014338
     13          7           0        5.087026   -0.048510    0.589262
     14          6           0        4.357386   -1.272199    0.470895
     15          6           0        5.067140   -2.502441    0.467147
     16          6           0        4.312099   -3.676390    0.349042
     17          6           0        2.920283   -3.695155    0.224637
     18          6           0        2.242303   -2.474915    0.227892
     19          6           0        2.966286   -1.283014    0.354576
     20          7           0        0.836272   -2.311198    0.084106
     21          6           0       -0.141571   -3.221685   -0.226413
     22          6           0       -1.491366   -2.642723   -0.579728
     23          6           0       -1.631451   -1.450661   -1.303929
     24          6           0       -2.897355   -0.934251   -1.571656
     25          6           0       -4.057413   -1.588133   -1.129979
     26          6           0       -3.903958   -2.799523   -0.436188
     27          6           0       -2.642085   -3.334079   -0.180515
     28          6           0       -5.434172   -0.970462   -1.351086
     29          7           0       -5.909445    0.042229   -0.401877
     30          6           0       -5.342819    1.392635   -0.467866
     31          6           0       -4.164526    1.631529    0.496145
     32          7           0       -4.460639    1.296773    1.897064
     33          6           0       -5.175924    2.307524    2.676767
     34          6           0       -4.992995   -0.072261    1.962934
     35          6           0       -6.152455   -0.355056    0.987790
     36          8           0        0.033786   -4.429415   -0.207368
     37          6           0        6.575884   -2.584278    0.578659
     38          1           0       -0.912628    1.646300   -2.307985
     39          1           0        1.495816    1.208566   -1.790855
     40          1           0        1.500586    4.891206    0.458632
     41          1           0       -1.979095    3.717770   -1.389815
     42          1           0        3.882434    4.884002   -0.332430
     43          1           0        6.183744    4.157869    0.344430
     44          1           0        6.067708   -0.114625    0.819286
     45          1           0        4.824575   -4.636692    0.343520
     46          1           0        2.373698   -4.624000    0.119491
     47          1           0        2.445215   -0.335412    0.352165
     48          1           0        0.522679   -1.353372    0.159550
     49          1           0       -0.744701   -0.932058   -1.659721
     50          1           0       -2.978670    0.001927   -2.123114
     51          1           0       -4.781627   -3.334790   -0.077295
     52          1           0       -2.527438   -4.275065    0.350346
     53          1           0       -5.461126   -0.516513   -2.351196
     54          1           0       -6.183781   -1.773663   -1.366219
     55          1           0       -5.122139    1.663911   -1.473282
     56          1           0       -6.425986    2.328925   -0.011398
     57          1           0       -3.838217    3.023969    0.425634
     58          1           0       -3.252592    1.052499    0.183303
     59          1           0       -6.194369    2.469410    2.303002
     60          1           0       -4.631080    3.256762    2.637761
     61          1           0       -5.233548    1.993119    3.724809
     62          1           0       -5.271221   -0.315077    3.012703
     63          1           0       -3.918875   -0.946901    1.596135
     64          1           0       -7.297435    0.480951    1.480947
     65          1           0       -6.487808   -1.417095    1.038544
     66          1           0        6.930158   -2.200437    1.545550
     67          1           0        7.070307   -2.000010   -0.209678
     68          1           0        6.947522   -3.612402    0.489926
 ---------------------------------------------------------------------
 Rotational constants (GHZ):      0.1356320      0.0622656      0.0464193
 Leave Link  202 at Wed Mar 25 13:01:28 2020, MaxMem= 2684354560 cpu:       0.0
 (Enter /opt/g09gh/gaussian/g09/l301.exe)
 Standard basis: 6-31G(d) (6D, 7F)
 Ernie: Thresh=  0.10000D-02 Tol=  0.10000D-05 Strict=F.
 There are   617 symmetry adapted basis functions of A   symmetry.
 Integral buffers will be    131072 words long.
 Raffenetti 2 integral format.
 Two-electron integral symmetry is turned on.
   617 basis functions,  1160 primitive gaussians,   617 cartesian basis functions
   131 alpha electrons      131 beta electrons
       nuclear repulsion energy      3812.0474615243 Hartrees.
 IExCor= 4639 DFT=T Ex+Corr=wB97XD ExCW=0 ScaHFX=  1.000000
 ScaDFX=  1.000000  1.000000  1.000000  1.000000 ScalE2=  1.000000  1.000000
 IRadAn=      0 IRanWt=     -1 IRanGd=            0 ICorTp=0
  HFx wShort=  0.000000 wLong=  0.200000 cFull=  0.222036 cShort=  0.000000 cLong=  0.777964
  DFx wShort=  0.000000 wLong=  0.200000 cFull=  0.000000 cShort=  0.000000 cLong=  1.000000
 NAtoms=   68 NActive=   68 NUniq=   68 SFac= 7.50D-01 NAtFMM=   80 NAOKFM=F Big=T
 R6Disp: Dispersion energy =        -0.0595974379 Hartrees.
 Nuclear repulsion after empirical dispersion term =     3811.9878640864 Hartrees.
 Leave Link  301 at Wed Mar 25 13:01:28 2020, MaxMem= 2684354560 cpu:       0.3
 (Enter /opt/g09gh/gaussian/g09/l302.exe)
 NPDir=0 NMtPBC=     1 NCelOv=     1 NCel=       1 NClECP=     1 NCelD=      1
         NCelK=      1 NCelE2=     1 NClLst=     1 CellRange=     0.0.
 One-electron integrals computed using PRISM.
 NBasis=   617 RedAO= T  NBF=   617
 NBsUse=   617 1.00D-06 NBFU=   617
 Precomputing XC quadrature grid using
 IXCGrd= 2 IRadAn=           0 IRanWt=          -1 IRanGd=           0 AccXCQ= 1.00D-10.
 NRdTot=    4371 NPtTot=      558794 NUsed=      590288 NTot=      590320
 NSgBfM=   601   601   601   601   601 NAtAll=    68    68.
 Leave Link  302 at Wed Mar 25 13:01:29 2020, MaxMem= 2684354560 cpu:       7.5
 (Enter /opt/g09gh/gaussian/g09/l303.exe)
 DipDrv:  MaxL=1.
 Leave Link  303 at Wed Mar 25 13:01:29 2020, MaxMem= 2684354560 cpu:       0.5
 (Enter /opt/g09gh/gaussian/g09/l401.exe)
 Initial guess read from the read-write file.
 B after Tr=     0.000000    0.000000    0.000000
         Rot=    1.000000    0.000000    0.000000    0.000000 Ang=   0.00 deg.
 Guess basis will be translated and rotated to current coordinates.
 Initial guess orbital symmetries:
       Occupied  (A) (A) (A) (A) (A) (A) (A) (A) (A) (A) (A) (A)
                 (A) (A) (A) (A) (A) (A) (A) (A) (A) (A) (A) (A)
                 (A) (A) (A) (A) (A) (A) (A) (A) (A) (A) (A) (A)
                 (A) (A) (A) (A) (A) (A) (A) (A) (A) (A) (A) (A)
                 (A) (A) (A) (A) (A) (A) (A) (A) (A) (A) (A) (A)
                 (A) (A) (A) (A) (A) (A) (A) (A) (A) (A) (A) (A)
                 (A) (A) (A) (A) (A) (A) (A) (A) (A) (A) (A) (A)
                 (A) (A) (A) (A) (A) (A) (A) (A) (A) (A) (A) (A)
                 (A) (A) (A) (A) (A) (A) (A) (A) (A) (A) (A) (A)
                 (A) (A) (A) (A) (A) (A) (A) (A) (A) (A) (A) (A)
                 (A) (A) (A) (A) (A) (A) (A) (A) (A) (A) (A)
       Virtual   (A) (A) (A) (A) (A) (A) (A) (A) (A) (A) (A) (A)
                 (A) (A) (A) (A) (A) (A) (A) (A) (A) (A) (A) (A)
                 (A) (A) (A) (A) (A) (A) (A) (A) (A) (A) (A) (A)
                 (A) (A) (A) (A) (A) (A) (A) (A) (A) (A) (A) (A)
                 (A) (A) (A) (A) (A) (A) (A) (A) (A) (A) (A) (A)
                 (A) (A) (A) (A) (A) (A) (A) (A) (A) (A) (A) (A)
                 (A) (A) (A) (A) (A) (A) (A) (A) (A) (A) (A) (A)
                 (A) (A) (A) (A) (A) (A) (A) (A) (A) (A) (A) (A)
                 (A) (A) (A) (A) (A) (A) (A) (A) (A) (A) (A) (A)
                 (A) (A) (A) (A) (A) (A) (A) (A) (A) (A) (A) (A)
                 (A) (A) (A) (A) (A) (A) (A) (A) (A) (A) (A) (A)
                 (A) (A) (A) (A) (A) (A) (A) (A) (A) (A) (A) (A)
                 (A) (A) (A) (A) (A) (A) (A) (A) (A) (A) (A) (A)
                 (A) (A) (A) (A) (A) (A) (A) (A) (A) (A) (A) (A)
                 (A) (A) (A) (A) (A) (A) (A) (A) (A) (A) (A) (A)
                 (A) (A) (A) (A) (A) (A) (A) (A) (A) (A) (A) (A)
                 (A) (A) (A) (A) (A) (A) (A) (A) (A) (A) (A) (A)
                 (A) (A) (A) (A) (A) (A) (A) (A) (A) (A) (A) (A)
                 (A) (A) (A) (A) (A) (A) (A) (A) (A) (A) (A) (A)
                 (A) (A) (A) (A) (A) (A) (A) (A) (A) (A) (A) (A)
                 (A) (A) (A) (A) (A) (A) (A) (A) (A) (A) (A) (A)
                 (A) (A) (A) (A) (A) (A) (A) (A) (A) (A) (A) (A)
                 (A) (A) (A) (A) (A) (A) (A) (A) (A) (A) (A) (A)
                 (A) (A) (A) (A) (A) (A) (A) (A) (A) (A) (A) (A)
                 (A) (A) (A) (A) (A) (A) (A) (A) (A) (A) (A) (A)
                 (A) (A) (A) (A) (A) (A) (A) (A) (A) (A) (A) (A)
                 (A) (A) (A) (A) (A) (A) (A) (A) (A) (A) (A) (A)
                 (A) (A) (A) (A) (A) (A) (A) (A) (A) (A) (A) (A)
                 (A) (A) (A) (A) (A) (A) (A) (A) (A) (A) (A) (A)
                 (A) (A) (A) (A) (A) (A) (A) (A) (A) (A) (A) (A)
                 (A) (A) (A) (A) (A) (A) (A) (A) (A) (A) (A) (A)
                 (A) (A) (A) (A) (A) (A) (A) (A) (A) (A) (A) (A)
                 (A) (A) (A) (A) (A) (A) (A) (A) (A) (A) (A) (A)
                 (A) (A) (A) (A) (A) (A) (A) (A) (A) (A) (A) (A)
                 (A) (A) (A) (A) (A) (A) (A) (A) (A) (A) (A) (A)
                 (A) (A) (A) (A) (A) (A) (A) (A) (A) (A) (A) (A)
                 (A) (A) (A) (A) (A) (A) (A) (A) (A) (A) (A) (A)
                 (A) (A) (A) (A) (A) (A) (A) (A) (A) (A) (A) (A)
                 (A) (A) (A) (A) (A) (A) (A) (A) (A) (A) (A) (A)
                 (A) (A) (A) (A) (A) (A) (A) (A) (A) (A) (A) (A)
                 (A) (A) (A) (A) (A) (A)
 The electronic state of the initial guess is 1-A.
 Generating alternative initial guess.
 Harris functional with IExCor= 4639 diagonalized for initial guess.
 ExpMin= 1.61D-01 ExpMax= 5.48D+03 ExpMxC= 8.25D+02 IAcc=1 IRadAn=         1 AccDes= 0.00D+00
 HarFok:  IExCor= 4639 AccDes= 0.00D+00 IRadAn=         1 IDoV= 1
 ScaDFX=  1.000000  1.000000  1.000000  1.000000
 FoFCou: FMM=F IPFlag=           0 FMFlag=      100000 FMFlg1=           1
         NFxFlg=           0 DoJE=T BraDBF=F KetDBF=T FulRan=T
         Omega=  0.000000  0.000000  1.000000  0.000000  0.000000 ICntrl=     500 IOpCl=  0
         NMat0=    1 NMatS0=    1 NMatT0=    0 NMatD0=    1 NMtDS0=    0 NMtDT0=    0
         I1Cent=           4 NGrid=           0.
 Petite list used in FoFCou.
 Harris En= -1512.41606506231    
 Leave Link  401 at Wed Mar 25 13:01:33 2020, MaxMem= 2684354560 cpu:      21.6
