
    -----------------------------------------------------------------------
          Psi4: An Open-Source Ab Initio Electronic Structure Package
                               Psi4 1.3.2 release

                         Git: Rev {HEAD} ecbda83 


    R. M. Parrish, L. A. Burns, D. G. A. Smith, A. C. Simmonett,
    A. E. DePrince III, E. G. Hohenstein, U. Bozkaya, A. Yu. Sokolov,
    R. Di Remigio, R. M. Richard, J. F. Gonthier, A. M. James,
    H. R. McAlexander, A. Kumar, M. Saitow, X. Wang, B. P. Pritchard,
    P. Verma, H. F. Schaefer III, K. Patkowski, R. A. King, E. F. Valeev,
    F. A. Evangelista, J. M. Turney, T. D. Crawford, and C. D. Sherrill,
    J. Chem. Theory Comput. 13(7) pp 3185--3197 (2017).
    (doi: 10.1021/acs.jctc.7b00174)


                         Additional Contributions by
    P. Kraus, H. Kruse, M. H. Lechner, M. C. Schieber, R. A. Shaw,
    A. Alenaizan, R. Galvelis, Z. L. Glick, S. Lehtola, and J. P. Misiewicz

    -----------------------------------------------------------------------


    Psi4 started on: Wednesday, 04 March 2020 12:32PM

    Process ID: 6450
    Host:       node40.bme.utexas.edu
    PSIDATADIR: /home/bdw2292/miniconda3/envs/p4env/share/psi4
    Memory:     500.0 MiB
    Threads:    1
    
  ==> Input File <==

--------------------------------------------------------------------------
molecule { 
0 1
 C   -0.117398    4.932631    0.088189
 C   -1.445243    4.550751   -0.143565
 C   -1.821074    3.197828   -0.021593
 C   -0.790854    2.301304    0.352514
 N    0.483140    2.648456    0.582772
 C    0.804604    3.943859    0.446160
 C   -3.221580    2.696500   -0.265524
 C   -4.323284    3.502888   -0.598597
 C   -5.537452    2.832281   -0.778649
 N   -5.690451    1.517019   -0.662823
 C   -4.575263    0.825260   -0.351265
 N   -3.371518    1.361913   -0.147868
 N   -4.741629   -0.534281   -0.244633
 C   -3.839931   -1.581046    0.080229
 C   -3.898610   -2.174034    1.374145
 C   -3.006160   -3.225790    1.633323
 C   -2.074329   -3.701050    0.702682
 C   -2.009585   -3.073408   -0.546230
 C   -2.888741   -2.020726   -0.846461
 N   -1.117839   -3.422921   -1.586189
 C    0.242723   -3.613871   -1.549937
 C    1.074634   -2.759692   -0.615984
 C    0.758674   -1.436345   -0.268834
 C    1.581679   -0.722612    0.604930
 C    2.756034   -1.283484    1.138822
 C    3.095205   -2.586511    0.729634
 C    2.276821   -3.311005   -0.139610
 C    3.655096   -0.483206    2.082602
 N    4.666293    0.430195    1.523842
 C    4.219908    1.682128    0.875216
 C    4.092030    1.639848   -0.669019
 N    5.306080    1.130665   -1.350694
 C    6.389538    2.099561   -1.562701
 C    5.693273   -0.167160   -0.746238
 C    5.822653   -0.141178    0.798939
 O    0.786825   -4.435382   -2.270094
 C   -4.877993   -1.716111    2.440498
 H    0.196365    5.967737   -0.007987
 H   -2.157618    5.321303   -0.427603
 H   -1.023383    1.246922    0.476542
 H    1.846403    4.199529    0.634912
 H   -4.277387    4.579258   -0.708733
 H   -6.440501    3.386612   -1.031996
 H   -5.716320   -0.794400   -0.296143
 H   -3.029201   -3.712767    2.607279
 H   -1.407179   -4.519774    0.945277
 H   -2.855953   -1.530579   -1.810446
 H   -1.441691   -3.705000   -2.500232
 H   -0.131576   -0.968366   -0.679247
 H    1.312670    0.298186    0.870018
 H    4.013308   -3.049745    1.090438
 H    2.548631   -4.316686   -0.451229
 H    3.010595    0.123572    2.734976
 H    4.193579   -1.190991    2.729515
 H    3.023788    2.088708    1.412821
 H    5.282071    2.770186    1.193706
 H    3.826891    2.575124   -1.067745
 H    3.048410    0.756258   -0.987967
 H    6.811285    2.433313   -0.607685
 H    6.013065    2.973203   -2.107037
 H    7.188178    1.648291   -2.162676
 H    6.639842   -0.541224   -1.233861
 H    4.587127   -1.154311   -1.080411
 H    7.055088    0.788121    1.098774
 H    6.077964   -1.163829    1.207837
 H   -5.916599   -1.928649    2.150438
 H   -4.802559   -0.634180    2.618737
 H   -4.711947   -2.204367    3.410693
}
memory 20GB
set_num_threads(6)
psi4_io.set_default_path("/scratch/bdw2292")
set freeze_core True
E, wfn = energy('mp2/6-311++G**',return_wfn=True)
oeprop(wfn,"WIBERG_LOWDIN_INDICES")
clean()
--------------------------------------------------------------------------

  Memory set to  18.626 GiB by Python driver.
  Threads set to 6 by Python driver.
    SCF Algorithm Type (re)set to DF.

*** tstart() called on node40.bme.utexas.edu
*** at Wed Mar  4 12:32:17 2020

   => Loading Basis Set <=

    Name: 6-311++G**
    Role: ORBITAL
    Keyword: BASIS
    atoms 1-4, 6-9, 11, 14-19, 21-28, 30-31, 33-35, 37 entry C          line   119 file /home/bdw2292/miniconda3/envs/p4env/share/psi4/basis/6-311ppgss.gbs 
    atoms 5, 10, 12-13, 20, 29, 32                     entry N          line   140 file /home/bdw2292/miniconda3/envs/p4env/share/psi4/basis/6-311ppgss.gbs 
    atoms 36                                           entry O          line   161 file /home/bdw2292/miniconda3/envs/p4env/share/psi4/basis/6-311ppgss.gbs 
    atoms 38-68                                        entry H          line    42 file /home/bdw2292/miniconda3/envs/p4env/share/psi4/basis/6-311ppgss.gbs 


         ---------------------------------------------------------
                                   SCF
               by Justin Turney, Rob Parrish, Andy Simmonett
                          and Daniel G. A. Smith
                              RHF Reference
                        6 Threads,  19073 MiB Core
         ---------------------------------------------------------

  ==> Geometry <==

    Molecular point group: c1
    Full point group: C1

    Geometry (in Angstrom), charge = 0, multiplicity = 1:

       Center              X                  Y                   Z               Mass       
    ------------   -----------------  -----------------  -----------------  -----------------
         C           -0.035276346617     4.962615825593     0.095702733465    12.000000000000
         C           -1.363121346617     4.580735825593    -0.136051266535    12.000000000000
         C           -1.738952346617     3.227812825593    -0.014079266535    12.000000000000
         C           -0.708732346617     2.331288825593     0.360027733465    12.000000000000
         N            0.565261653383     2.678440825593     0.590285733465    14.003074004430
         C            0.886725653383     3.973843825593     0.453673733465    12.000000000000
         C           -3.139458346617     2.726484825593    -0.258010266535    12.000000000000
         C           -4.241162346617     3.532872825593    -0.591083266535    12.000000000000
         C           -5.455330346617     2.862265825593    -0.771135266535    12.000000000000
         N           -5.608329346617     1.547003825593    -0.655309266535    14.003074004430
         C           -4.493141346617     0.855244825593    -0.343751266535    12.000000000000
         N           -3.289396346617     1.391897825593    -0.140354266535    14.003074004430
         N           -4.659507346617    -0.504296174407    -0.237119266535    14.003074004430
         C           -3.757809346617    -1.551061174407     0.087742733465    12.000000000000
         C           -3.816488346617    -2.144049174407     1.381658733465    12.000000000000
         C           -2.924038346617    -3.195805174407     1.640836733465    12.000000000000
         C           -1.992207346617    -3.671065174407     0.710195733465    12.000000000000
         C           -1.927463346617    -3.043423174407    -0.538716266535    12.000000000000
         C           -2.806619346617    -1.990741174407    -0.838947266535    12.000000000000
         N           -1.035717346617    -3.392936174407    -1.578675266535    14.003074004430
         C            0.324844653383    -3.583886174407    -1.542423266535    12.000000000000
         C            1.156755653383    -2.729707174407    -0.608470266535    12.000000000000
         C            0.840795653383    -1.406360174407    -0.261320266535    12.000000000000
         C            1.663800653383    -0.692627174407     0.612443733465    12.000000000000
         C            2.838155653383    -1.253499174407     1.146335733465    12.000000000000
         C            3.177326653383    -2.556526174407     0.737147733465    12.000000000000
         C            2.358942653383    -3.281020174407    -0.132096266535    12.000000000000
         C            3.737217653383    -0.453221174407     2.090115733465    12.000000000000
         N            4.748414653383     0.460179825593     1.531355733465    14.003074004430
         C            4.302029653383     1.712112825593     0.882729733465    12.000000000000
         C            4.174151653383     1.669832825593    -0.661505266535    12.000000000000
         N            5.388201653383     1.160649825593    -1.343180266535    14.003074004430
         C            6.471659653383     2.129545825593    -1.555187266535    12.000000000000
         C            5.775394653383    -0.137175174407    -0.738724266535    12.000000000000
         C            5.904774653383    -0.111193174407     0.806452733465    12.000000000000
         O            0.868946653383    -4.405397174407    -2.262580266535    15.994914619570
         C           -4.795871346617    -1.686126174407     2.448011733465    12.000000000000
         H            0.278486653383     5.997721825593    -0.000473266535     1.007825032230
         H           -2.075496346617     5.351287825593    -0.420089266535     1.007825032230
         H           -0.941261346617     1.276906825593     0.484055733465     1.007825032230
         H            1.928524653383     4.229513825593     0.642425733465     1.007825032230
         H           -4.195265346617     4.609242825593    -0.701219266535     1.007825032230
         H           -6.358379346617     3.416596825593    -1.024482266535     1.007825032230
         H           -5.634198346617    -0.764415174407    -0.288629266535     1.007825032230
         H           -2.947079346617    -3.682782174407     2.614792733465     1.007825032230
         H           -1.325057346617    -4.489789174407     0.952790733465     1.007825032230
         H           -2.773831346617    -1.500594174407    -1.802932266535     1.007825032230
         H           -1.359569346617    -3.675015174407    -2.492718266535     1.007825032230
         H           -0.049454346617    -0.938381174407    -0.671733266535     1.007825032230
         H            1.394791653383     0.328170825593     0.877531733465     1.007825032230
         H            4.095429653383    -3.019760174407     1.097951733465     1.007825032230
         H            2.630752653383    -4.286701174407    -0.443715266535     1.007825032230
         H            3.092716653383     0.153556825593     2.742489733465     1.007825032230
         H            4.275700653383    -1.161006174407     2.737028733465     1.007825032230
         H            3.105909653383     2.118692825593     1.420334733465     1.007825032230
         H            5.364192653383     2.800170825593     1.201219733465     1.007825032230
         H            3.909012653383     2.605108825593    -1.060231266535     1.007825032230
         H            3.130531653383     0.786242825593    -0.980453266535     1.007825032230
         H            6.893406653383     2.463297825593    -0.600171266535     1.007825032230
         H            6.095186653383     3.003187825593    -2.099523266535     1.007825032230
         H            7.270299653383     1.678275825593    -2.155162266535     1.007825032230
         H            6.721963653383    -0.511239174407    -1.226347266535     1.007825032230
         H            4.669248653383    -1.124326174407    -1.072897266535     1.007825032230
         H            7.137209653383     0.818105825593     1.106287733465     1.007825032230
         H            6.160085653383    -1.133844174407     1.215350733465     1.007825032230
         H           -5.834477346617    -1.898664174407     2.157951733465     1.007825032230
         H           -4.720437346617    -0.604195174407     2.626250733465     1.007825032230
         H           -4.629825346617    -2.174382174407     3.418206733465     1.007825032230

  Running in c1 symmetry.

  Rotational constants: A =      0.00425  B =      0.00239  C =      0.00172 [cm^-1]
  Rotational constants: A =    127.33978  B =     71.73852  C =     51.52039 [MHz]
  Nuclear repulsion = 3871.489114293049624

  Charge       = 0
  Multiplicity = 1
  Electrons    = 262
  Nalpha       = 131
  Nbeta        = 131

  ==> Algorithm <==

  SCF Algorithm Type is DF.
  DIIS enabled.
  MOM disabled.
  Fractional occupation disabled.
  Guess Type is SAD.
  Energy threshold   = 1.00e-08
  Density threshold  = 1.00e-08
  Integral threshold = 0.00e+00

  ==> Primary Basis <==

  Basis Set: 6-311++G**
    Blend: 6-311++G**
    Number of shells: 525
    Number of basis function: 1031
    Number of Cartesian functions: 1068
    Spherical Harmonics?: true
    Max angular momentum: 2

   => Loading Basis Set <=

    Name: (6-311++G** AUX)
    Role: JKFIT
    Keyword: DF_BASIS_SCF
    atoms 1-4, 6-9, 11, 14-19, 21-28, 30-31, 33-35, 37 entry C          line   162 file /home/bdw2292/miniconda3/envs/p4env/share/psi4/basis/aug-cc-pvtz-jkfit.gbs 
    atoms 5, 10, 12-13, 20, 29, 32                     entry N          line   224 file /home/bdw2292/miniconda3/envs/p4env/share/psi4/basis/aug-cc-pvtz-jkfit.gbs 
    atoms 36                                           entry O          line   286 file /home/bdw2292/miniconda3/envs/p4env/share/psi4/basis/aug-cc-pvtz-jkfit.gbs 
    atoms 38-68                                        entry H          line    70 file /home/bdw2292/miniconda3/envs/p4env/share/psi4/basis/aug-cc-pvtz-jkfit.gbs 

  ==> Pre-Iterations <==

   -------------------------------------------------------
    Irrep   Nso     Nmo     Nalpha   Nbeta   Ndocc  Nsocc
   -------------------------------------------------------
     A       1031    1031       0       0       0       0
   -------------------------------------------------------
    Total    1031    1031     131     131     131       0
   -------------------------------------------------------

  ==> Integral Setup <==

  ==> DiskDFJK: Density-Fitted J/K Matrices <==

    J tasked:                  Yes
    K tasked:                  Yes
    wK tasked:                  No
    OpenMP threads:              6
    Integrals threads:           6
    Memory [MiB]:            14305
    Algorithm:                Disk
    Integral Cache:           NONE
    Schwarz Cutoff:          1E-12
    Fitting Condition:       1E-10

   => Auxiliary Basis Set <=

  Basis Set: (6-311++G** AUX)
    Blend: AUG-CC-PVTZ-JKFIT
    Number of shells: 1544
    Number of basis function: 5274
    Number of Cartesian functions: 6552
    Spherical Harmonics?: true
    Max angular momentum: 4

  Minimum eigenvalue in the overlap matrix is 1.1321119142E-07.
  Using Symmetric Orthogonalization.

  SCF Guess: Superposition of Atomic Densities via on-the-fly atomic UHF.

  ==> Iterations <==

                           Total Energy        Delta E     RMS |[F,P]|

   @DF-RHF iter SAD: -1571.35608951893755   -1.57136e+03   0.00000e+00 
   @DF-RHF iter   1: -1571.33743883686634    1.86507e-02   1.20855e-03 DIIS
   @DF-RHF iter   2: -1572.10938183868871   -7.71943e-01   6.21410e-04 DIIS
   @DF-RHF iter   3: -1572.29172825176465   -1.82346e-01   1.60217e-04 DIIS
   @DF-RHF iter   4: -1572.30807993900498   -1.63517e-02   6.75838e-05 DIIS
   @DF-RHF iter   5: -1572.31078674614810   -2.70681e-03   1.48497e-05 DIIS
   @DF-RHF iter   6: -1572.31097141344117   -1.84667e-04   6.53630e-06 DIIS
   @DF-RHF iter   7: -1572.31101619080209   -4.47774e-05   2.20632e-06 DIIS
   @DF-RHF iter   8: -1572.31102392413231   -7.73333e-06   9.29645e-07 DIIS
   @DF-RHF iter   9: -1572.31102541305540   -1.48892e-06   3.96950e-07 DIIS
   @DF-RHF iter  10: -1572.31102573694352   -3.23888e-07   1.83142e-07 DIIS
   @DF-RHF iter  11: -1572.31102580988727   -7.29437e-08   8.50142e-08 DIIS
   @DF-RHF iter  12: -1572.31102582703988   -1.71526e-08   3.71306e-08 DIIS
   @DF-RHF iter  13: -1572.31102583036909   -3.32921e-09   1.43760e-08 DIIS
   @DF-RHF iter  14: -1572.31102583096140   -5.92308e-10   7.04991e-09 DIIS
  Energy and wave function converged.


  ==> Post-Iterations <==

    Orbital Energies [Eh]
    ---------------------

    Doubly Occupied:                                                      

       1A    -20.524339     2A    -15.593185     3A    -15.587505  
       4A    -15.583537     5A    -15.570079     6A    -15.567019  
       7A    -15.566739     8A    -15.549061     9A    -11.371475  
      10A    -11.360108    11A    -11.331855    12A    -11.322652  
      13A    -11.311603    14A    -11.307929    15A    -11.298243  
      16A    -11.296147    17A    -11.295326    18A    -11.294744  
      19A    -11.294378    20A    -11.286466    21A    -11.276105  
      22A    -11.275963    23A    -11.271373    24A    -11.262079  
      25A    -11.261762    26A    -11.252014    27A    -11.249846  
      28A    -11.248672    29A    -11.248451    30A    -11.248227  
      31A    -11.247554    32A    -11.245512    33A    -11.243490  
      34A    -11.241792    35A    -11.239683    36A    -11.237497  
      37A    -11.232398    38A     -1.388624    39A     -1.344488  
      40A     -1.275190    41A     -1.254561    42A     -1.243573  
      43A     -1.239279    44A     -1.207758    45A     -1.194914  
      46A     -1.153580    47A     -1.146706    48A     -1.113540  
      49A     -1.073657    50A     -1.052647    51A     -1.046812  
      52A     -1.043499    53A     -1.016402    54A     -1.015338  
      55A     -0.991616    56A     -0.971092    57A     -0.947957  
      58A     -0.926468    59A     -0.923766    60A     -0.901249  
      61A     -0.871355    62A     -0.862031    63A     -0.854000  
      64A     -0.839742    65A     -0.835512    66A     -0.833027  
      67A     -0.823715    68A     -0.812214    69A     -0.775419  
      70A     -0.753219    71A     -0.750993    72A     -0.724308  
      73A     -0.709970    74A     -0.703161    75A     -0.691559  
      76A     -0.680226    77A     -0.670127    78A     -0.666698  
      79A     -0.663957    80A     -0.659556    81A     -0.652518  
      82A     -0.649250    83A     -0.643101    84A     -0.635096  
      85A     -0.624795    86A     -0.613284    87A     -0.611798  
      88A     -0.609457    89A     -0.607862    90A     -0.601533  
      91A     -0.598619    92A     -0.596756    93A     -0.594155  
      94A     -0.593270    95A     -0.582080    96A     -0.580818  
      97A     -0.572110    98A     -0.564223    99A     -0.558600  
     100A     -0.557625   101A     -0.548194   102A     -0.541212  
     103A     -0.527576   104A     -0.525508   105A     -0.520785  
     106A     -0.519559   107A     -0.515652   108A     -0.507328  
     109A     -0.498000   110A     -0.494257   111A     -0.492347  
     112A     -0.487588   113A     -0.482363   114A     -0.471984  
     115A     -0.463349   116A     -0.446853   117A     -0.439883  
     118A     -0.432955   119A     -0.421672   120A     -0.415208  
     121A     -0.412705   122A     -0.396720   123A     -0.382140  
     124A     -0.372143   125A     -0.364673   126A     -0.347784  
     127A     -0.340797   128A     -0.332457   129A     -0.327822  
     130A     -0.319475   131A     -0.302896  

    Virtual:                                                              

     132A      0.027604   133A      0.036100   134A      0.038581  
     135A      0.044545   136A      0.046117   137A      0.047111  
     138A      0.049127   139A      0.055124   140A      0.056183  
     141A      0.057997   142A      0.062016   143A      0.066945  
     144A      0.069004   145A      0.069656   146A      0.074874  
     147A      0.075579   148A      0.077157   149A      0.080614  
     150A      0.083600   151A      0.084381   152A      0.087508  
     153A      0.092548   154A      0.094674   155A      0.096862  
     156A      0.097975   157A      0.100142   158A      0.101324  
     159A      0.102317   160A      0.106594   161A      0.109257  
     162A      0.112396   163A      0.114229   164A      0.118764  
     165A      0.119621   166A      0.121692   167A      0.126015  
     168A      0.128082   169A      0.130523   170A      0.133084  
     171A      0.136252   172A      0.138917   173A      0.142068  
     174A      0.144263   175A      0.144756   176A      0.148412  
     177A      0.150859   178A      0.154345   179A      0.154939  
     180A      0.158399   181A      0.160294   182A      0.163237  
     183A      0.164654   184A      0.166669   185A      0.167823  
     186A      0.170910   187A      0.172096   188A      0.173075  
     189A      0.174771   190A      0.175681   191A      0.178609  
     192A      0.180636   193A      0.181626   194A      0.183191  
     195A      0.184063   196A      0.184818   197A      0.188115  
     198A      0.188669   199A      0.190507   200A      0.194770  
     201A      0.195342   202A      0.199011   203A      0.199654  
     204A      0.201039   205A      0.203916   206A      0.204321  
     207A      0.206198   208A      0.208631   209A      0.209417  
     210A      0.212216   211A      0.213079   212A      0.214073  
     213A      0.217711   214A      0.218853   215A      0.219862  
     216A      0.222712   217A      0.223179   218A      0.224213  
     219A      0.226780   220A      0.230407   221A      0.231794  
     222A      0.234073   223A      0.235689   224A      0.238831  
     225A      0.241640   226A      0.242201   227A      0.245162  
     228A      0.246844   229A      0.249625   230A      0.250268  
     231A      0.253180   232A      0.255513   233A      0.256081  
     234A      0.260213   235A      0.261679   236A      0.263076  
     237A      0.265418   238A      0.267691   239A      0.269458  
     240A      0.272405   241A      0.276977   242A      0.277890  
     243A      0.279638   244A      0.284981   245A      0.285778  
     246A      0.289187   247A      0.292456   248A      0.296850  
     249A      0.298238   250A      0.300614   251A      0.301958  
     252A      0.303966   253A      0.306001   254A      0.307119  
     255A      0.310119   256A      0.311034   257A      0.313999  
     258A      0.317710   259A      0.320541   260A      0.323015  
     261A      0.324009   262A      0.328116   263A      0.328517  
     264A      0.331486   265A      0.334692   266A      0.334925  
     267A      0.335543   268A      0.338174   269A      0.341491  
     270A      0.343065   271A      0.344210   272A      0.346960  
     273A      0.348679   274A      0.349655   275A      0.353570  
     276A      0.356042   277A      0.359330   278A      0.360471  
     279A      0.361250   280A      0.364278   281A      0.368262  
     282A      0.369274   283A      0.370696   284A      0.372505  
     285A      0.372956   286A      0.376606   287A      0.377157  
     288A      0.379273   289A      0.380404   290A      0.381854  
     291A      0.383075   292A      0.386926   293A      0.387623  
     294A      0.388648   295A      0.390776   296A      0.392762  
     297A      0.395120   298A      0.397833   299A      0.401124  
     300A      0.401451   301A      0.403080   302A      0.406561  
     303A      0.407254   304A      0.408981   305A      0.410992  
     306A      0.413070   307A      0.413942   308A      0.414567  
     309A      0.416735   310A      0.419487   311A      0.421232  
     312A      0.423287   313A      0.424475   314A      0.426382  
     315A      0.427904   316A      0.429669   317A      0.432097  
     318A      0.437795   319A      0.439572   320A      0.441082  
     321A      0.443254   322A      0.443651   323A      0.447883  
     324A      0.449165   325A      0.450480   326A      0.451402  
     327A      0.455897   328A      0.457354   329A      0.458946  
     330A      0.460861   331A      0.461723   332A      0.464645  
     333A      0.466637   334A      0.467751   335A      0.472863  
     336A      0.475628   337A      0.477599   338A      0.479654  
     339A      0.481475   340A      0.481978   341A      0.485922  
     342A      0.488728   343A      0.492532   344A      0.493372  
     345A      0.496927   346A      0.497990   347A      0.499316  
     348A      0.503825   349A      0.505829   350A      0.507114  
     351A      0.513637   352A      0.514392   353A      0.515889  
     354A      0.518649   355A      0.523306   356A      0.528310  
     357A      0.530704   358A      0.534349   359A      0.536539  
     360A      0.539089   361A      0.543308   362A      0.548060  
     363A      0.548817   364A      0.551673   365A      0.552266  
     366A      0.558058   367A      0.562490   368A      0.564426  
     369A      0.565516   370A      0.573085   371A      0.576575  
     372A      0.582914   373A      0.584084   374A      0.588790  
     375A      0.594883   376A      0.599589   377A      0.602545  
     378A      0.609753   379A      0.613394   380A      0.618754  
     381A      0.625869   382A      0.631703   383A      0.637489  
     384A      0.642691   385A      0.648225   386A      0.658700  
     387A      0.664217   388A      0.671952   389A      0.678956  
     390A      0.690296   391A      0.698165   392A      0.699548  
     393A      0.700659   394A      0.709972   395A      0.714040  
     396A      0.719515   397A      0.724234   398A      0.728903  
     399A      0.731637   400A      0.739369   401A      0.743648  
     402A      0.746177   403A      0.756645   404A      0.762501  
     405A      0.765789   406A      0.768516   407A      0.768995  
     408A      0.773056   409A      0.782065   410A      0.782706  
     411A      0.785594   412A      0.788980   413A      0.793448  
     414A      0.795459   415A      0.804535   416A      0.807022  
     417A      0.815723   418A      0.817083   419A      0.818603  
     420A      0.822007   421A      0.827979   422A      0.828311  
     423A      0.830216   424A      0.833596   425A      0.834522  
     426A      0.842706   427A      0.847900   428A      0.851755  
     429A      0.856108   430A      0.858329   431A      0.862188  
     432A      0.863930   433A      0.870179   434A      0.876447  
     435A      0.879025   436A      0.879837   437A      0.885726  
     438A      0.887447   439A      0.890971   440A      0.892131  
     441A      0.895140   442A      0.899732   443A      0.900291  
     444A      0.910009   445A      0.910707   446A      0.913302  
     447A      0.915071   448A      0.918043   449A      0.920406  
     450A      0.922570   451A      0.926361   452A      0.928962  
     453A      0.935067   454A      0.938291   455A      0.940608  
     456A      0.942328   457A      0.943846   458A      0.950340  
     459A      0.952964   460A      0.955636   461A      0.957593  
     462A      0.960573   463A      0.967837   464A      0.969080  
     465A      0.971611   466A      0.976629   467A      0.979644  
     468A      0.982334   469A      0.986602   470A      0.990616  
     471A      0.992620   472A      0.995989   473A      0.997557  
     474A      0.999061   475A      1.002607   476A      1.004222  
     477A      1.007975   478A      1.013107   479A      1.015095  
     480A      1.018125   481A      1.024139   482A      1.026282  
     483A      1.030696   484A      1.038133   485A      1.040947  
     486A      1.042064   487A      1.050916   488A      1.055372  
     489A      1.059426   490A      1.064086   491A      1.064949  
     492A      1.071272   493A      1.073234   494A      1.078242  
     495A      1.082140   496A      1.082863   497A      1.091580  
     498A      1.094603   499A      1.099592   500A      1.101125  
     501A      1.109750   502A      1.112233   503A      1.121374  
     504A      1.125112   505A      1.128548   506A      1.134409  
     507A      1.135428   508A      1.137542   509A      1.141817  
     510A      1.152242   511A      1.153723   512A      1.155448  
     513A      1.164888   514A      1.168506   515A      1.172479  
     516A      1.174964   517A      1.181121   518A      1.182830  
     519A      1.184985   520A      1.187334   521A      1.195213  
     522A      1.196387   523A      1.201469   524A      1.203513  
     525A      1.209526   526A      1.213059   527A      1.219373  
     528A      1.222601   529A      1.223643   530A      1.228354  
     531A      1.235618   532A      1.236797   533A      1.243313  
     534A      1.247530   535A      1.254301   536A      1.257546  
     537A      1.261969   538A      1.264664   539A      1.266332  
     540A      1.270099   541A      1.272741   542A      1.277020  
     543A      1.281885   544A      1.283518   545A      1.289248  
     546A      1.291112   547A      1.296326   548A      1.300893  
     549A      1.305872   550A      1.317977   551A      1.319286  
     552A      1.324304   553A      1.325415   554A      1.330885  
     555A      1.338089   556A      1.347786   557A      1.351129  
     558A      1.356423   559A      1.359237   560A      1.360253  
     561A      1.373133   562A      1.375942   563A      1.386287  
     564A      1.391528   565A      1.393160   566A      1.400814  
     567A      1.408760   568A      1.424306   569A      1.428842  
     570A      1.439882   571A      1.443446   572A      1.450080  
     573A      1.459599   574A      1.463852   575A      1.465653  
     576A      1.471888   577A      1.478091   578A      1.482126  
     579A      1.487952   580A      1.493821   581A      1.507707  
     582A      1.509077   583A      1.517347   584A      1.523766  
     585A      1.527572   586A      1.538877   587A      1.554846  
     588A      1.560152   589A      1.581059   590A      1.587592  
     591A      1.596740   592A      1.603938   593A      1.607793  
     594A      1.613211   595A      1.616620   596A      1.622468  
     597A      1.634040   598A      1.638292   599A      1.640917  
     600A      1.648725   601A      1.659550   602A      1.667564  
     603A      1.685295   604A      1.693113   605A      1.704952  
     606A      1.711421   607A      1.718632   608A      1.728056  
     609A      1.733368   610A      1.736972   611A      1.739577  
     612A      1.744788   613A      1.754069   614A      1.757324  
     615A      1.758798   616A      1.766412   617A      1.773930  
     618A      1.778319   619A      1.784929   620A      1.787209  
     621A      1.794369   622A      1.797389   623A      1.803217  
     624A      1.809544   625A      1.817721   626A      1.819863  
     627A      1.823747   628A      1.828348   629A      1.830630  
     630A      1.837568   631A      1.840306   632A      1.844671  
     633A      1.851439   634A      1.854267   635A      1.858068  
     636A      1.861384   637A      1.868213   638A      1.870575  
     639A      1.874516   640A      1.877555   641A      1.882210  
     642A      1.885764   643A      1.893864   644A      1.894881  
     645A      1.905412   646A      1.909256   647A      1.913643  
     648A      1.917977   649A      1.921638   650A      1.929499  
     651A      1.936331   652A      1.938194   653A      1.943071  
     654A      1.948061   655A      1.950216   656A      1.963060  
     657A      1.965333   658A      1.968347   659A      1.972826  
     660A      1.974765   661A      1.979436   662A      1.982804  
     663A      1.985648   664A      1.994529   665A      1.995204  
     666A      2.000196   667A      2.002773   668A      2.011479  
     669A      2.016553   670A      2.016839   671A      2.023882  
     672A      2.027019   673A      2.031603   674A      2.036894  
     675A      2.043199   676A      2.046212   677A      2.059371  
     678A      2.062886   679A      2.066509   680A      2.067552  
     681A      2.075557   682A      2.076797   683A      2.087535  
     684A      2.089559   685A      2.089776   686A      2.096351  
     687A      2.103721   688A      2.110361   689A      2.116116  
     690A      2.122286   691A      2.129291   692A      2.131780  
     693A      2.137358   694A      2.142273   695A      2.153474  
     696A      2.157684   697A      2.169872   698A      2.174751  
     699A      2.177860   700A      2.181068   701A      2.184741  
     702A      2.193404   703A      2.195826   704A      2.204822  
     705A      2.212278   706A      2.217509   707A      2.225442  
     708A      2.226973   709A      2.234730   710A      2.236669  
     711A      2.249552   712A      2.255213   713A      2.258482  
     714A      2.258730   715A      2.265008   716A      2.268907  
     717A      2.272747   718A      2.279861   719A      2.283285  
     720A      2.285909   721A      2.293032   722A      2.295399  
     723A      2.298494   724A      2.307029   725A      2.311618  
     726A      2.317338   727A      2.326070   728A      2.333985  
     729A      2.337690   730A      2.341706   731A      2.347220  
     732A      2.352960   733A      2.361318   734A      2.362892  
     735A      2.365563   736A      2.373276   737A      2.382223  
     738A      2.390145   739A      2.392085   740A      2.401032  
     741A      2.404675   742A      2.407616   743A      2.415360  
     744A      2.428284   745A      2.432189   746A      2.444509  
     747A      2.450897   748A      2.460402   749A      2.472873  
     750A      2.481305   751A      2.488197   752A      2.493728  
     753A      2.506562   754A      2.511196   755A      2.516280  
     756A      2.529703   757A      2.532273   758A      2.545096  
     759A      2.546004   760A      2.552707   761A      2.566378  
     762A      2.575091   763A      2.584989   764A      2.586613  
     765A      2.593492   766A      2.609631   767A      2.612158  
     768A      2.622566   769A      2.635611   770A      2.642569  
     771A      2.653357   772A      2.661544   773A      2.664220  
     774A      2.672343   775A      2.683002   776A      2.703080  
     777A      2.717791   778A      2.731434   779A      2.732612  
     780A      2.740428   781A      2.745076   782A      2.755662  
     783A      2.763809   784A      2.776326   785A      2.792641  
     786A      2.795098   787A      2.811130   788A      2.820749  
     789A      2.824920   790A      2.828158   791A      2.838442  
     792A      2.844994   793A      2.859972   794A      2.865670  
     795A      2.870834   796A      2.874814   797A      2.884138  
     798A      2.897638   799A      2.901421   800A      2.904057  
     801A      2.912192   802A      2.924923   803A      2.930815  
     804A      2.933721   805A      2.940314   806A      2.948979  
     807A      2.950329   808A      2.966659   809A      2.971379  
     810A      2.976804   811A      2.985457   812A      2.992983  
     813A      2.994994   814A      2.999205   815A      3.006861  
     816A      3.010822   817A      3.018531   818A      3.022246  
     819A      3.023667   820A      3.029096   821A      3.036956  
     822A      3.042012   823A      3.044242   824A      3.047782  
     825A      3.056250   826A      3.061672   827A      3.071325  
     828A      3.074860   829A      3.077961   830A      3.083402  
     831A      3.096266   832A      3.098236   833A      3.104243  
     834A      3.105850   835A      3.110877   836A      3.113130  
     837A      3.117565   838A      3.119326   839A      3.133425  
     840A      3.138761   841A      3.142576   842A      3.150113  
     843A      3.157535   844A      3.157788   845A      3.166306  
     846A      3.172581   847A      3.175659   848A      3.188467  
     849A      3.195770   850A      3.204128   851A      3.208993  
     852A      3.210859   853A      3.214706   854A      3.225660  
     855A      3.234161   856A      3.238418   857A      3.244582  
     858A      3.250049   859A      3.259019   860A      3.265211  
     861A      3.272046   862A      3.279702   863A      3.282745  
     864A      3.287469   865A      3.290663   866A      3.294627  
     867A      3.304730   868A      3.308037   869A      3.310752  
     870A      3.315895   871A      3.322754   872A      3.332311  
     873A      3.335916   874A      3.342329   875A      3.344581  
     876A      3.350904   877A      3.355974   878A      3.363749  
     879A      3.369230   880A      3.371621   881A      3.382712  
     882A      3.390666   883A      3.396281   884A      3.404686  
     885A      3.409332   886A      3.417930   887A      3.420408  
     888A      3.427725   889A      3.437048   890A      3.449675  
     891A      3.461145   892A      3.472945   893A      3.489656  
     894A      3.504394   895A      3.538771   896A      3.566330  
     897A      3.577142   898A      3.599702   899A      3.603728  
     900A      3.607054   901A      3.622845   902A      3.624779  
     903A      3.637886   904A      3.656151   905A      3.669368  
     906A      3.682589   907A      3.688231   908A      3.700925  
     909A      3.705645   910A      3.773041   911A      3.786919  
     912A      3.789797   913A      3.799471   914A      3.814617  
     915A      3.832572   916A      3.843197   917A      3.853533  
     918A      3.874440   919A      3.885034   920A      3.889229  
     921A      3.904760   922A      3.912162   923A      3.925595  
     924A      3.933344   925A      3.949813   926A      3.961701  
     927A      3.967638   928A      3.972617   929A      3.989550  
     930A      4.005541   931A      4.013439   932A      4.023443  
     933A      4.027364   934A      4.037291   935A      4.067430  
     936A      4.100771   937A      4.107633   938A      4.121918  
     939A      4.130528   940A      4.136379   941A      4.139669  
     942A      4.166040   943A      4.178948   944A      4.192114  
     945A      4.210142   946A      4.211743   947A      4.215773  
     948A      4.226289   949A      4.267531   950A      4.318789  
     951A      4.341544   952A      4.359978   953A      4.393910  
     954A      4.407444   955A      4.432741   956A      4.434438  
     957A      4.449664   958A      4.458023   959A      4.459849  
     960A      4.478951   961A      4.514160   962A      4.524348  
     963A      4.533969   964A      4.557379   965A      4.569194  
     966A      4.596173   967A      4.601244   968A      4.616311  
     969A      4.632844   970A      4.677348   971A      4.728830  
     972A      4.759852   973A      4.782739   974A      4.789966  
     975A      4.916680   976A      4.949588   977A      5.023536  
     978A      5.066483   979A      5.251343   980A      5.261824  
     981A      5.277408   982A      5.284521   983A      5.292043  
     984A      5.296409   985A      5.346193   986A      5.388269  
     987A      5.409192   988A      5.596198   989A      5.699351  
     990A      5.720621   991A      5.797808   992A      5.831586  
     993A      5.851918   994A      6.379152   995A     24.789321  
     996A     24.801629   997A     24.836049   998A     24.852158  
     999A     24.893393  1000A     24.918469  1001A     24.947973  
    1002A     25.017209  1003A     25.033919  1004A     25.037679  
    1005A     25.053986  1006A     25.064806  1007A     25.080336  
    1008A     25.107538  1009A     25.116389  1010A     25.121592  
    1011A     25.131414  1012A     25.142941  1013A     25.152685  
    1014A     25.170414  1015A     25.179016  1016A     25.200000  
    1017A     25.226515  1018A     25.234343  1019A     25.239705  
    1020A     25.253411  1021A     25.262844  1022A     25.311596  
    1023A     25.331517  1024A     36.960936  1025A     37.003449  
    1026A     37.026602  1027A     37.089163  1028A     37.090014  
    1029A     37.151190  1030A     37.161498  1031A     51.753044  

    Final Occupation by Irrep:
              A 
    DOCC [   131 ]

  @DF-RHF Final Energy: -1572.31102583096140

   => Energetics <=

    Nuclear Repulsion Energy =           3871.4891142930496244
    One-Electron Energy =               -9841.7060002995531249
    Two-Electron Energy =                4397.9058601755414202
    Total Energy =                      -1572.3110258309616256

Computation Completed


Properties will be evaluated at   0.000000,   0.000000,   0.000000 [a0]

Properties computed using the SCF density matrix

  Nuclear Dipole Moment: [e a0]
     X:    33.1167      Y:     9.9729      Z:     7.7322

  Electronic Dipole Moment: [e a0]
     X:   -34.7748      Y:    -8.0447      Z:    -6.8451

  Dipole Moment: [e a0]
     X:    -1.6581      Y:     1.9282      Z:     0.8871     Total:     2.6933

  Dipole Moment: [D]
     X:    -4.2144      Y:     4.9009      Z:     2.2547     Total:     6.8457


*** tstop() called on node40.bme.utexas.edu at Wed Mar  4 12:50:31 2020
Module time:
	user time   =    4372.59 seconds =      72.88 minutes
	system time =     127.36 seconds =       2.12 minutes
	total time  =       1094 seconds =      18.23 minutes
Total time:
	user time   =    4372.59 seconds =      72.88 minutes
	system time =     127.36 seconds =       2.12 minutes
	total time  =       1094 seconds =      18.23 minutes

*** tstart() called on node40.bme.utexas.edu
*** at Wed Mar  4 12:50:31 2020


  //>>>>>>>>>>>>>>>>>>>>>>>>>>>>>>>>>>>//
  //               DFMP2               //
  //<<<<<<<<<<<<<<<<<<<<<<<<<<<<<<<<<<<//

   => Loading Basis Set <=

    Name: (6-311++G** AUX)
    Role: RIFIT
    Keyword: DF_BASIS_MP2
    atoms 1-4, 6-9, 11, 14-19, 21-28, 30-31, 33-35, 37 entry C          line   148 file /home/bdw2292/miniconda3/envs/p4env/share/psi4/basis/aug-cc-pvtz-ri.gbs 
    atoms 5, 10, 12-13, 20, 29, 32                     entry N          line   206 file /home/bdw2292/miniconda3/envs/p4env/share/psi4/basis/aug-cc-pvtz-ri.gbs 
    atoms 36                                           entry O          line   264 file /home/bdw2292/miniconda3/envs/p4env/share/psi4/basis/aug-cc-pvtz-ri.gbs 
    atoms 38-68                                        entry H          line    30 file /home/bdw2292/miniconda3/envs/p4env/share/psi4/basis/aug-cc-pvtz-ri.gbs 

	 --------------------------------------------------------
	                          DF-MP2                         
	      2nd-Order Density-Fitted Moller-Plesset Theory     
	              RMP2 Wavefunction,   6 Threads             
	                                                         
	        Rob Parrish, Justin Turney, Andy Simmonett,      
	           Ed Hohenstein, and C. David Sherrill          
	 --------------------------------------------------------

   => Auxiliary Basis Set <=

  Basis Set: (6-311++G** AUX)
    Blend: AUG-CC-PVTZ-RI
    Number of shells: 1470
    Number of basis function: 5348
    Number of Cartesian functions: 6737
    Spherical Harmonics?: true
    Max angular momentum: 4

	 --------------------------------------------------------
	                 NBF =  1031, NAUX =  5348
	 --------------------------------------------------------
	   CLASS    FOCC     OCC    AOCC    AVIR     VIR    FVIR
	   PAIRS      37     131      94     900     900       0
	 --------------------------------------------------------

	-----------------------------------------------------------
	 ==================> DF-MP2 Energies <==================== 
	-----------------------------------------------------------
	 Reference Energy          =   -1572.3110258309613982 [Eh]
	 Singles Energy            =      -0.0000000000000000 [Eh]
	 Same-Spin Energy          =      -1.4749413895088157 [Eh]
	 Opposite-Spin Energy      =      -4.0532436346127678 [Eh]
	 Correlation Energy        =      -5.5281850241215835 [Eh]
	 Total Energy              =   -1577.8392108550829107 [Eh]
	-----------------------------------------------------------
	 ================> DF-SCS-MP2 Energies <================== 
	-----------------------------------------------------------
	 SCS Same-Spin Scale       =       0.3333333333333333 [-]
	 SCS Opposite-Spin Scale   =       1.2000000000000000 [-]
	 SCS Same-Spin Energy      =      -0.4916471298362719 [Eh]
	 SCS Opposite-Spin Energy  =      -4.8638923615353216 [Eh]
	 SCS Correlation Energy    =      -5.3555394913715935 [Eh]
	 SCS Total Energy          =   -1577.6665653223330992 [Eh]
	-----------------------------------------------------------


*** tstop() called on node40.bme.utexas.edu at Wed Mar  4 12:59:30 2020
Module time:
	user time   =    2816.72 seconds =      46.95 minutes
	system time =      20.54 seconds =       0.34 minutes
	total time  =        539 seconds =       8.98 minutes
Total time:
	user time   =    7189.33 seconds =     119.82 minutes
	system time =     147.91 seconds =       2.47 minutes
	total time  =       1633 seconds =      27.22 minutes


Properties will be evaluated at   0.000000,   0.000000,   0.000000 [a0]
OEProp: No title given, name of density matrix used for the following properties is 'SCF density'


  Wiberg Bond Indices using Orthogonal Lowdin Orbitals:

  Irrep: 1 Size: 68 x 68

                 1                   2                   3                   4                   5

    1     0.00000000000000     1.46474384703237     0.12480693219966     0.13927637783104     0.12345864495421
    2     1.46474384703237     0.00000000000000     1.39840695864159     0.12868512935841     0.12120552470317
    3     0.12480693219966     1.39840695864159     0.00000000000000     1.36298045103733     0.11808183840619
    4     0.13927637783104     0.12868512935841     1.36298045103733     0.00000000000000     1.64847560877655
    5     0.12345864495421     0.12120552470317     0.11808183840619     1.64847560877655     0.00000000000000
    6     1.46371692594534     0.13933709218728     0.13515565022057     0.15230966616758     1.62057767727314
    7     0.01461630189733     0.10318538762544     1.02228229727195     0.10446468948776     0.01381038995861
    8     0.00361104780234     0.04203470237873     0.09851783549411     0.02405051982306     0.00216410963479
    9     0.00036963460235     0.00477903523989     0.01490610928048     0.00420721883978     0.00068610247741
   10     0.00041276477724     0.00539993698630     0.00580459873248     0.00611141179432     0.00031922148603
   11     0.00090920876876     0.00344194502310     0.01833658223436     0.00732522834332     0.00044711258192
   12     0.00281294557315     0.02215344348372     0.12054448956819     0.06658360368685     0.00418001839599
   13     0.00017118966095     0.00052075101351     0.00175009753515     0.00090892117522     0.00008115903682
   14     0.00003714120961     0.00011170327259     0.00068450700394     0.00157318418675     0.00012326611319
   15     0.00001699746130     0.00004040953169     0.00018727831941     0.00029541473874     0.00005170558765
   16     0.00000468155608     0.00001032105996     0.00005364848449     0.00009996830089     0.00001909320160
   17     0.00000366733085     0.00000820958400     0.00006751276447     0.00015861343804     0.00001937345509
   18     0.00000529839159     0.00001304449257     0.00006894316259     0.00024330539833     0.00005617329127
   19     0.00003462114624     0.00007240937325     0.00044758533514     0.00137117506633     0.00013319674016
   20     0.00000189937697     0.00000207304905     0.00002513386229     0.00011723366049     0.00001728606484
   21     0.00000240790158     0.00000173172342     0.00000813876755     0.00006986658399     0.00004464693975
   22     0.00002520472148     0.00001504402163     0.00006727250056     0.00055845087415     0.00033255293343
   23     0.00039636585350     0.00025694959122     0.00068641525745     0.00876783549295     0.00405622474206
   24     0.00069557713850     0.00041949721654     0.00084619262262     0.01301079308876     0.03095594913887
   25     0.00008971972591     0.00004752951661     0.00008563611672     0.00096485286742     0.00316218531948
   26     0.00001017966035     0.00000614385863     0.00002603695647     0.00036222702056     0.00049473584184
   27     0.00000660275060     0.00000626795777     0.00002992343333     0.00035832785052     0.00023690797404
   28     0.00005045366745     0.00003373974730     0.00004440708559     0.00033746314772     0.00192494257635
   29     0.00004607199631     0.00001462584435     0.00002393780858     0.00017169542956     0.00145084583929
   30     0.00073468604016     0.00032640481105     0.00045239119809     0.00183269753168     0.02143626020901
   31     0.00060575054649     0.00038925589368     0.00051769511335     0.00125987351486     0.00848515575095
   32     0.00006636539682     0.00001473734597     0.00002173315808     0.00016492320337     0.00075181626112
   33     0.00001510593153     0.00000408875549     0.00000503516568     0.00003532625536     0.00016618587288
   34     0.00002256281684     0.00000379675251     0.00000631173750     0.00004798175971     0.00023283367176
   35     0.00002249476753     0.00000520514143     0.00000954322765     0.00005990701738     0.00054288948003
   36     0.00000081340977     0.00000083510643     0.00000514094304     0.00001545521968     0.00002194706439
   37     0.00000491759413     0.00002207934387     0.00005403311411     0.00005360995600     0.00001045166786
   38     0.88570807057591     0.07933920792694     0.01173035128899     0.00627674893186     0.01067424660614
   39     0.07789898034982     0.87038891296287     0.07242721607067     0.01173316275099     0.00392747664101
   40     0.00549498985489     0.01053482205109     0.06965931780659     0.84775620711418     0.08457210725575
   41     0.07665692150712     0.01151797078431     0.00587195965279     0.01565066421317     0.08739376219222
   42     0.00111920995015     0.01456406587391     0.01445160768983     0.00139124830622     0.00027760497630
   43     0.00004439276280     0.00028567975643     0.00145484502437     0.00032510544083     0.00007677639980
   44     0.00002641526768     0.00009086896061     0.00038450503613     0.00010745386463     0.00000828392498
   45     0.00000033287306     0.00000094606072     0.00000290396066     0.00000818705012     0.00000120595105
   46     0.00000025962028     0.00000065333949     0.00000231720917     0.00000640602693     0.00000118284340
   47     0.00001083016365     0.00001280293406     0.00005788936552     0.00011341269510     0.00001448729274
   48     0.00000013675048     0.00000030050934     0.00000127287780     0.00000463995043     0.00000096662602
   49     0.00016374333496     0.00008836834934     0.00041067465882     0.00461647738127     0.00085841209145
   50     0.00072229899335     0.00025440033929     0.00062187595335     0.00924020384440     0.02662152123867
   51     0.00000188181682     0.00000098072238     0.00000315598584     0.00002226474288     0.00004976703033
   52     0.00000100247229     0.00000078897985     0.00000291914478     0.00002219281695     0.00001559019940
   53     0.00002749943091     0.00003013841513     0.00002007449544     0.00009837144924     0.00072097373599
   54     0.00000217449217     0.00000079227923     0.00000173539880     0.00001429672057     0.00003037216050
   55     0.00064603693115     0.00027035664927     0.00042072834432     0.00166826277135     0.01675457136195
   56     0.00004627525757     0.00001842126292     0.00001743805898     0.00008142384807     0.00076491230155
   57     0.00032118513456     0.00008024516852     0.00020904452339     0.00015176145332     0.00134731684628
   58     0.00005688971946     0.00010273421724     0.00006661483674     0.00074480150073     0.00315855112680
   59     0.00000261344651     0.00000083052340     0.00000220258974     0.00000699282260     0.00004204592395
   60     0.00000491801376     0.00000141190051     0.00000203626406     0.00000299549851     0.00001164369729
   61     0.00000120676214     0.00000046091450     0.00000036367042     0.00000261904401     0.00001126544225
   62     0.00000206572267     0.00000039909338     0.00000106761947     0.00000328711022     0.00001345350779
   63     0.00000788219201     0.00000125918962     0.00000211811223     0.00001715300655     0.00003357029453
   64     0.00000894373072     0.00000156909984     0.00000229259501     0.00001458666471     0.00007116732049
   65     0.00000273542752     0.00000076679601     0.00000131571045     0.00000623853568     0.00004540250167
   66     0.00000091753075     0.00000223498874     0.00000704213233     0.00000681750933     0.00000108270975
   67     0.00000526894799     0.00000627116633     0.00001827314942     0.00003093967738     0.00000494473510
   68     0.00000045182211     0.00000144006041     0.00000591594609     0.00000916575301     0.00000070315276

                 6                   7                   8                   9                  10

    1     1.46371692594534     0.01461630189733     0.00361104780234     0.00036963460235     0.00041276477724
    2     0.13933709218728     0.10318538762544     0.04203470237873     0.00477903523989     0.00539993698630
    3     0.13515565022057     1.02228229727195     0.09851783549411     0.01490610928048     0.00580459873248
    4     0.15230966616758     0.10446468948776     0.02405051982306     0.00420721883978     0.00611141179432
    5     1.62057767727314     0.01381038995861     0.00216410963479     0.00068610247741     0.00031922148603
    6     0.00000000000000     0.00978918607060     0.00681061401231     0.00122035945972     0.00335533088151
    7     0.00978918607060     0.00000000000000     1.38527094504415     0.14655466014361     0.11194570808373
    8     0.00681061401231     1.38527094504415     0.00000000000000     1.43474654021869     0.13258337045624
    9     0.00122035945972     0.14655466014361     1.43474654021869     0.00000000000000     1.66348122938793
   10     0.00335533088151     0.11194570808373     0.13258337045624     1.66348122938793     0.00000000000000
   11     0.00088383741008     0.14413949417857     0.11245759143385     0.15384681532301     1.50236616343968
   12     0.00610074164331     1.53302829190434     0.12545315921015     0.11029351743277     0.10873834761588
   13     0.00008525418367     0.02039146680374     0.02215063342869     0.02435140715912     0.16391645814952
   14     0.00005012626169     0.00405273343521     0.00258790999808     0.00334161104484     0.01734360256072
   15     0.00001439456999     0.00093145393607     0.00104768387411     0.00082031450235     0.00299404493840
   16     0.00000516866140     0.00021315905050     0.00016728125651     0.00014060421805     0.00040633429970
   17     0.00000409186522     0.00021181695047     0.00019115193820     0.00011562084444     0.00039350471959
   18     0.00000911574828     0.00023726992172     0.00018945615474     0.00015527952874     0.00039474238143
   19     0.00004021484292     0.00209485438328     0.00113665368096     0.00106376962295     0.00334521754753
   20     0.00000404908149     0.00004739152869     0.00002808653508     0.00001973854986     0.00005987617694
   21     0.00000723790480     0.00001044379093     0.00000578354415     0.00000561001087     0.00001525165140
   22     0.00004740379581     0.00002393054937     0.00000371428544     0.00000426085062     0.00000744180079
   23     0.00043564921886     0.00017594823189     0.00004858629015     0.00002570391139     0.00002028242776
   24     0.00301681657273     0.00015705184866     0.00002848635647     0.00000958118710     0.00000806085592
   25     0.00042746626496     0.00001365065156     0.00000363618908     0.00000135507725     0.00000245600680
   26     0.00008056260743     0.00000597978630     0.00000090168664     0.00000043364052     0.00000080117577
   27     0.00004431503988     0.00000685590901     0.00000140570757     0.00000092925183     0.00000242343905
   28     0.00043729872866     0.00000652027158     0.00000262290753     0.00000052121261     0.00000034729145
   29     0.00099603361220     0.00000416036785     0.00000168640870     0.00000041698983     0.00000015893884
   30     0.01329362706492     0.00006124481997     0.00002801191424     0.00000482611904     0.00000525396740
   31     0.00750054834763     0.00003497209293     0.00004067557342     0.00000706141059     0.00001668866250
   32     0.00064171931712     0.00000298279706     0.00000167056238     0.00000034653886     0.00000050446319
   33     0.00012591604466     0.00000086237234     0.00000036544795     0.00000008489918     0.00000010233014
   34     0.00023461690525     0.00000132010377     0.00000044075986     0.00000012964282     0.00000015465767
   35     0.00036921154985     0.00000197394186     0.00000071108993     0.00000017086788     0.00000012743676
   36     0.00000433152406     0.00000396488938     0.00000308136444     0.00000183052475     0.00000486759015
   37     0.00000606619417     0.00046807198918     0.00041876155601     0.00033768556810     0.00168359114935
   38     0.08254159163899     0.00127923780221     0.00025139356222     0.00003934713350     0.00002615340957
   39     0.01175058175079     0.01608660502534     0.01511471160036     0.00117805744448     0.00040340613717
   40     0.01445605414402     0.01615321210357     0.00179810210420     0.00042268364707     0.00070059307710
   41     0.87209151468040     0.00052872404299     0.00026545675462     0.00005176132082     0.00010531231301
   42     0.00049038900812     0.07548620697932     0.87614348676096     0.08069861183892     0.01054179301034
   43     0.00004386988894     0.01180626871642     0.07631186988476     0.87548292375971     0.08916708187547
   44     0.00001264276986     0.00221584707747     0.00225172482751     0.00367144960736     0.03110323061769
   45     0.00000035072923     0.00001806159750     0.00003088070788     0.00003006171417     0.00008484903349
   46     0.00000041644260     0.00000952426461     0.00000957582684     0.00000746834986     0.00002393935598
   47     0.00000973089006     0.00037061932358     0.00010227122128     0.00020372919083     0.00040810643158
   48     0.00000029206232     0.00000560549805     0.00000359794434     0.00000365270337     0.00000927487810
   49     0.00012225007430     0.00013497449969     0.00003773039349     0.00002610668479     0.00002149543440
   50     0.00290526716259     0.00010240067558     0.00002309417027     0.00000595610901     0.00000512503022
   51     0.00001025609746     0.00000166868693     0.00000022417194     0.00000006068785     0.00000007721873
   52     0.00000409306482     0.00000070141692     0.00000017944639     0.00000013409788     0.00000024675319
   53     0.00012992601926     0.00000252793077     0.00000107860339     0.00000022258473     0.00000012526420
   54     0.00001587188794     0.00000063547729     0.00000011292269     0.00000003552088     0.00000003901709
   55     0.01079507208531     0.00005186216099     0.00002330684681     0.00000363642144     0.00000268093149
   56     0.00051030500381     0.00000480897682     0.00000091893251     0.00000017540923     0.00000012330494
   57     0.00350738475000     0.00001036180830     0.00001777327112     0.00000327471919     0.00000698547844
   58     0.00106235635585     0.00001273189270     0.00000314542593     0.00000081840579     0.00000080026898
   59     0.00003254792179     0.00000040668562     0.00000013958518     0.00000003324576     0.00000001112880
   60     0.00001882552484     0.00000017976264     0.00000016033305     0.00000002174741     0.00000010109383
   61     0.00000812666732     0.00000005419337     0.00000003601912     0.00000000956704     0.00000001656252
   62     0.00001724684622     0.00000018708411     0.00000010513986     0.00000002836974     0.00000004014237
   63     0.00003438041847     0.00000059151523     0.00000012826859     0.00000007638426     0.00000007338965
   64     0.00004150725107     0.00000038121367     0.00000020910434     0.00000006243248     0.00000002711595
   65     0.00002767449454     0.00000023162454     0.00000007839926     0.00000001991372     0.00000001184298
   66     0.00000077173491     0.00006279562247     0.00007872406297     0.00004571112507     0.00024495670004
   67     0.00000414712487     0.00016828064635     0.00010701215269     0.00016260531002     0.00063283465603
   68     0.00000041401299     0.00003494464267     0.00004619082679     0.00002585316058     0.00010380344577

                11                  12                  13                  14                  15

    1     0.00090920876876     0.00281294557315     0.00017118966095     0.00003714120961     0.00001699746130
    2     0.00344194502310     0.02215344348372     0.00052075101351     0.00011170327259     0.00004040953169
    3     0.01833658223436     0.12054448956819     0.00175009753515     0.00068450700394     0.00018727831941
    4     0.00732522834332     0.06658360368685     0.00090892117522     0.00157318418675     0.00029541473874
    5     0.00044711258192     0.00418001839599     0.00008115903682     0.00012326611319     0.00005170558765
    6     0.00088383741008     0.00610074164331     0.00008525418367     0.00005012626169     0.00001439456999
    7     0.14413949417857     1.53302829190434     0.02039146680374     0.00405273343521     0.00093145393607
    8     0.11245759143385     0.12545315921015     0.02215063342869     0.00258790999808     0.00104768387411
    9     0.15384681532301     0.11029351743277     0.02435140715912     0.00334161104484     0.00082031450235
   10     1.50236616343968     0.10873834761588     0.16391645814952     0.01734360256072     0.00299404493840
   11     0.00000000000000     1.54191670513800     1.28266403541527     0.08828452820288     0.02046716474416
   12     1.54191670513800     0.00000000000000     0.14816062104621     0.03918264668322     0.01022712973104
   13     1.28266403541527     0.14816062104621     0.00000000000000     1.11991364599010     0.10903906127673
   14     0.08828452820288     0.03918264668322     1.11991364599010     0.00000000000000     1.32891108712879
   15     0.02046716474416     0.01022712973104     0.10903906127673     1.32891108712879     0.00000000000000
   16     0.00237136954701     0.00133010940577     0.01366253906096     0.12694240360256     1.43476871250306
   17     0.00347346218959     0.00163664729067     0.00794688737200     0.12505673873523     0.12399252402085
   18     0.00250065476017     0.00219292891887     0.01355004828037     0.12543885663681     0.12395452372574
   19     0.02611071834262     0.02069647439424     0.11815876371048     1.41661494762488     0.12190671565352
   20     0.00035897052267     0.00031479342929     0.00146099236163     0.01558621405674     0.00966293299383
   21     0.00008759478364     0.00005513105819     0.00029664480801     0.00281323233434     0.00383967111217
   22     0.00005455463657     0.00008442795181     0.00008448579938     0.00132199240331     0.00097697044829
   23     0.00016830158159     0.00070509359119     0.00019533499746     0.00352117529971     0.00135840566526
   24     0.00003654202934     0.00019942672302     0.00003604355214     0.00044966392511     0.00036293522539
   25     0.00001036602660     0.00003303327810     0.00001043067597     0.00018687952474     0.00018848940745
   26     0.00000625300437     0.00001436023838     0.00000975066951     0.00024789446203     0.00025887775072
   27     0.00001566479974     0.00002106977268     0.00002848573190     0.00050749844832     0.00050875642065
   28     0.00000119872242     0.00000566977554     0.00000116354248     0.00001837552867     0.00001789112621
   29     0.00000083568839     0.00000232914814     0.00000052558061     0.00000867388290     0.00001121211688
   30     0.00000367825763     0.00002019908995     0.00000062814948     0.00000318284054     0.00000343542993
   31     0.00000347736874     0.00002472293033     0.00000086544380     0.00000796424911     0.00001272983603
   32     0.00000031442884     0.00000180765050     0.00000014563209     0.00000168648723     0.00000314303525
   33     0.00000010899137     0.00000038722813     0.00000005171261     0.00000035509308     0.00000050086490
   34     0.00000048489842     0.00000187358058     0.00000033709894     0.00000325635219     0.00000467581424
   35     0.00000029874131     0.00000105664851     0.00000012586963     0.00000257916641     0.00000306995311
   36     0.00001618788430     0.00002354967227     0.00007247189307     0.00059866351169     0.00112741515272
   37     0.01097335169909     0.00362713595641     0.04098315517529     0.09672261234885     1.05774415715504
   38     0.00009407923805     0.00032280467539     0.00001692293325     0.00000979043716     0.00000331904536
   39     0.00029233426777     0.00111259270566     0.00006877389002     0.00002287331798     0.00000540145617
   40     0.00309074897038     0.02925636527567     0.00038664545122     0.00127091810183     0.00027928873426
   41     0.00004331318592     0.00025849676838     0.00000516133974     0.00000412275831     0.00000115422026
   42     0.00582698079740     0.01073885476689     0.00109791227037     0.00014514395172     0.00005356993498
   43     0.01579459874030     0.00396125301618     0.00136919424529     0.00040054620174     0.00007697546252
   44     0.07411972461501     0.01288058559534     0.93063573175492     0.06147933972853     0.01498036731679
   45     0.00036111640497     0.00008984788193     0.00122705187688     0.01143960081973     0.07569817494947
   46     0.00013808997428     0.00005870530023     0.00034846553932     0.00548488274257     0.01069948014911
   47     0.00629492532792     0.00392887236499     0.02017433654069     0.07479142515833     0.01049273837346
   48     0.00005425762357     0.00002607742984     0.00014279831742     0.00156813541501     0.00298592239398
   49     0.00013957847144     0.00073797704469     0.00012273031175     0.00188595062412     0.00057471800423
   50     0.00001668279104     0.00014102708031     0.00000578674773     0.00003222710461     0.00001776614596
   51     0.00000078805800     0.00000230975019     0.00000053638203     0.00001046278568     0.00001265500198
   52     0.00000121132520     0.00000127792826     0.00000321080597     0.00003455021717     0.00002790650653
   53     0.00000028925130     0.00000111962866     0.00000025345039     0.00000314096252     0.00000243965161
   54     0.00000021885085     0.00000082776444     0.00000008511791     0.00000326724757     0.00000195877702
   55     0.00000348785969     0.00001922271145     0.00000054547880     0.00000101756965     0.00000065649021
   56     0.00000034648637     0.00000155902544     0.00000009874327     0.00000069481822     0.00000095154774
   57     0.00000113585336     0.00000850107911     0.00000007991077     0.00000038777231     0.00000045154299
   58     0.00000122530128     0.00000751954389     0.00000059665681     0.00000947850571     0.00000932721006
   59     0.00000004167520     0.00000017897674     0.00000001604583     0.00000012354809     0.00000009786782
   60     0.00000002015845     0.00000013679660     0.00000000435128     0.00000007114451     0.00000005692446
   61     0.00000000914220     0.00000002422738     0.00000000829264     0.00000002571409     0.00000004887146
   62     0.00000004295367     0.00000021216417     0.00000001940275     0.00000023667684     0.00000037128248
   63     0.00000051314859     0.00000172275498     0.00000040371583     0.00000664883110     0.00000773386560
   64     0.00000012416031     0.00000034629806     0.00000003752075     0.00000069856270     0.00000072731539
   65     0.00000006692962     0.00000026749318     0.00000003303445     0.00000084067442     0.00000058725494
   66     0.00177551144445     0.00036457716251     0.00869556903648     0.01676507305190     0.05886347850675
   67     0.00518910318367     0.00140651821689     0.01029055904775     0.01750283937505     0.05824252102710
   68     0.00047619477691     0.00018926609103     0.00211259029854     0.00914462404979     0.06002312096388

                16                  17                  18                  19                  20

    1     0.00000468155608     0.00000366733085     0.00000529839159     0.00003462114624     0.00000189937697
    2     0.00001032105996     0.00000820958400     0.00001304449257     0.00007240937325     0.00000207304905
    3     0.00005364848449     0.00006751276447     0.00006894316259     0.00044758533514     0.00002513386229
    4     0.00009996830089     0.00015861343804     0.00024330539833     0.00137117506633     0.00011723366049
    5     0.00001909320160     0.00001937345509     0.00005617329127     0.00013319674016     0.00001728606484
    6     0.00000516866140     0.00000409186522     0.00000911574828     0.00004021484292     0.00000404908149
    7     0.00021315905050     0.00021181695047     0.00023726992172     0.00209485438328     0.00004739152869
    8     0.00016728125651     0.00019115193820     0.00018945615474     0.00113665368096     0.00002808653508
    9     0.00014060421805     0.00011562084444     0.00015527952874     0.00106376962295     0.00001973854986
   10     0.00040633429970     0.00039350471959     0.00039474238143     0.00334521754753     0.00005987617694
   11     0.00237136954701     0.00347346218959     0.00250065476017     0.02611071834262     0.00035897052267
   12     0.00133010940577     0.00163664729067     0.00219292891887     0.02069647439424     0.00031479342929
   13     0.01366253906096     0.00794688737200     0.01355004828037     0.11815876371048     0.00146099236163
   14     0.12694240360256     0.12505673873523     0.12543885663681     1.41661494762488     0.01558621405674
   15     1.43476871250306     0.12399252402085     0.12395452372574     0.12190671565352     0.00966293299383
   16     0.00000000000000     1.44434804367141     0.13180483992121     0.12922555670246     0.01409469953642
   17     1.44434804367141     0.00000000000000     1.40046027652093     0.12257733275097     0.11118389840975
   18     0.13180483992121     1.40046027652093     0.00000000000000     1.36804912737590     1.13827281918659
   19     0.12922555670246     0.12257733275097     1.36804912737590     0.00000000000000     0.13279951453930
   20     0.01409469953642     0.11118389840975     1.13827281918659     0.13279951453930     0.00000000000000
   21     0.00304522413781     0.02999360674423     0.09377280554864     0.02105769851258     1.29542453839673
   22     0.00265584611723     0.01828498249670     0.02691426730753     0.00708705434719     0.10042018839770
   23     0.00331947747758     0.01398078688853     0.02580631284349     0.01493921629855     0.03229644404150
   24     0.00074854440456     0.00278100279848     0.00401740820443     0.00171568645506     0.00267290204481
   25     0.00018886773122     0.00069509985660     0.00101959521952     0.00051798023171     0.00235311384960
   26     0.00031522404413     0.00088800542771     0.00121233995828     0.00062075019223     0.00211989671974
   27     0.00050053777457     0.00445442260542     0.00440505855327     0.00105769985211     0.01593794858373
   28     0.00001790719860     0.00005545702941     0.00008948380362     0.00004819911663     0.00018147979480
   29     0.00001005885302     0.00002499451494     0.00002943770309     0.00002112821986     0.00010031608234
   30     0.00000514363869     0.00001758759317     0.00001847368803     0.00000679598498     0.00001963726614
   31     0.00003016008461     0.00004811194032     0.00002609609219     0.00001435376467     0.00001729663525
   32     0.00001033551148     0.00002295430375     0.00000573602304     0.00000388749040     0.00000449902446
   33     0.00000201330977     0.00000303676908     0.00000121388562     0.00000067668870     0.00000102052211
   34     0.00001195528819     0.00003552461394     0.00002033841877     0.00001285565634     0.00001767380362
   35     0.00000460720526     0.00001580698543     0.00001405857187     0.00000762249422     0.00002219745170
   36     0.00055634466989     0.00595844688156     0.02347168064884     0.00460802957167     0.20279861822208
   37     0.11405530382494     0.01425578497900     0.00739754975839     0.01403634086341     0.00057447460641
   38     0.00000081042621     0.00000053919053     0.00000163541727     0.00000674326307     0.00000016679248
   39     0.00000152536091     0.00000130264576     0.00000124480899     0.00001026844462     0.00000065791608
   40     0.00004456510676     0.00008450096045     0.00022657004860     0.00118173831897     0.00007264784979
   41     0.00000049947720     0.00000058017532     0.00000047614276     0.00000223747637     0.00000032367178
   42     0.00001072329419     0.00001370387147     0.00001052375784     0.00006825074540     0.00000221664952
   43     0.00001688533412     0.00002031544612     0.00001510732191     0.00009923859397     0.00000162512872
   44     0.00140046134402     0.00280864612763     0.00139351605690     0.01432962860599     0.00018576009863
   45     0.87165747048012     0.07981557415443     0.01171017978393     0.00561198196372     0.00112564043466
   46     0.07688281901817     0.86593632444067     0.07559063273918     0.01120482214017     0.01694392404580
   47     0.00579679130069     0.01067597186201     0.07076458808733     0.85011840074721     0.02451245774581
   48     0.00141715270164     0.01419660671453     0.05979992007416     0.01782093375175     0.92987466776262
   49     0.00099062951310     0.00382257108610     0.01196558489581     0.01009897024076     0.01036967300125
   50     0.00002891616596     0.00008062329579     0.00019719615162     0.00009892159939     0.00017283244157
   51     0.00001045228683     0.00004466267570     0.00007214018259     0.00003648864195     0.00031652254455
   52     0.00003526205261     0.00029710111106     0.00042303592170     0.00008936110372     0.00158368780979
   53     0.00000483292797     0.00001170079250     0.00001942324932     0.00000634323787     0.00003661777729
   54     0.00000303515792     0.00001420414798     0.00002741960842     0.00001393975579     0.00003854779521
   55     0.00000098104715     0.00000448231705     0.00000426084608     0.00000162296793     0.00000490201968
   56     0.00000287809088     0.00000272183976     0.00000169645639     0.00000079519187     0.00000588903325
   57     0.00000130971593     0.00000229399817     0.00000127999137     0.00000057881531     0.00000109542351
   58     0.00002387473128     0.00005098910180     0.00003031357694     0.00001357516504     0.00002641649660
   59     0.00000034001465     0.00000043003301     0.00000022727263     0.00000016963844     0.00000028916852
   60     0.00000018668042     0.00000023559560     0.00000020558028     0.00000008922438     0.00000022102916
   61     0.00000009726495     0.00000025495043     0.00000014043403     0.00000011636632     0.00000017577965
   62     0.00000100237118     0.00000182529875     0.00000094347511     0.00000078270194     0.00000112491732
   63     0.00002069659994     0.00004518165664     0.00002478819161     0.00001119637741     0.00002989944934
   64     0.00000177371268     0.00000216848861     0.00000155820594     0.00000209909650     0.00000456152693
   65     0.00000141320347     0.00000510555504     0.00000429614907     0.00000239266723     0.00000640759254
   66     0.01560323487135     0.00128224211352     0.00330398502238     0.00127427773557     0.00031840464213
   67     0.01398791632131     0.00123377081816     0.00263839923657     0.00138272087914     0.00022393207682
   68     0.02311234828686     0.00185067033919     0.00057593609595     0.00114434538026     0.00010425977996

                21                  22                  23                  24                  25

    1     0.00000240790158     0.00002520472148     0.00039636585350     0.00069557713850     0.00008971972591
    2     0.00000173172342     0.00001504402163     0.00025694959122     0.00041949721654     0.00004752951661
    3     0.00000813876755     0.00006727250056     0.00068641525745     0.00084619262262     0.00008563611672
    4     0.00006986658399     0.00055845087415     0.00876783549295     0.01301079308876     0.00096485286742
    5     0.00004464693975     0.00033255293343     0.00405622474206     0.03095594913887     0.00316218531948
    6     0.00000723790480     0.00004740379581     0.00043564921886     0.00301681657273     0.00042746626496
    7     0.00001044379093     0.00002393054937     0.00017594823189     0.00015705184866     0.00001365065156
    8     0.00000578354415     0.00000371428544     0.00004858629015     0.00002848635647     0.00000363618908
    9     0.00000561001087     0.00000426085062     0.00002570391139     0.00000958118710     0.00000135507725
   10     0.00001525165140     0.00000744180079     0.00002028242776     0.00000806085592     0.00000245600680
   11     0.00008759478364     0.00005455463657     0.00016830158159     0.00003654202934     0.00001036602660
   12     0.00005513105819     0.00008442795181     0.00070509359119     0.00019942672302     0.00003303327810
   13     0.00029664480801     0.00008448579938     0.00019533499746     0.00003604355214     0.00001043067597
   14     0.00281323233434     0.00132199240331     0.00352117529971     0.00044966392511     0.00018687952474
   15     0.00383967111217     0.00097697044829     0.00135840566526     0.00036293522539     0.00018848940745
   16     0.00304522413781     0.00265584611723     0.00331947747758     0.00074854440456     0.00018886773122
   17     0.02999360674423     0.01828498249670     0.01398078688853     0.00278100279848     0.00069509985660
   18     0.09377280554864     0.02691426730753     0.02580631284349     0.00401740820443     0.00101959521952
   19     0.02105769851258     0.00708705434719     0.01493921629855     0.00171568645506     0.00051798023171
   20     1.29542453839673     0.10042018839770     0.03229644404150     0.00267290204481     0.00235311384960
   21     0.00000000000000     0.97595586360512     0.10391095285743     0.01464109895281     0.01226469713009
   22     0.97595586360512     0.00000000000000     1.38767622379537     0.12758945411708     0.12377137366397
   23     0.10391095285743     1.38767622379537     0.00000000000000     1.45400622785358     0.12726360632747
   24     0.01464109895281     0.12758945411708     1.45400622785358     0.00000000000000     1.39611671617131
   25     0.01226469713009     0.12377137366397     0.12726360632747     1.39611671617131     0.00000000000000
   26     0.01497560036969     0.12648760875998     0.12815607663100     0.12653559626102     1.39818452224668
   27     0.11351376911286     1.38368910329620     0.12398482791407     0.13097436953008     0.12704666334545
   28     0.00077687060422     0.00901612047137     0.01450338136527     0.10723550928595     1.01598091773332
   29     0.00045171904487     0.00427218482924     0.00198068826087     0.02175933194255     0.08682653855017
   30     0.00009185024742     0.00097639905512     0.00202333426283     0.01669030317074     0.02133541091877
   31     0.00006172399023     0.00125358288308     0.00980154672451     0.02491052645554     0.01763637838838
   32     0.00005929580908     0.00069007770477     0.00113815862015     0.00288025039450     0.00402802813515
   33     0.00000969394784     0.00011680183407     0.00027815955613     0.00073102792968     0.00113633351129
   34     0.00009212383664     0.00187192824538     0.00222839226425     0.00676126892546     0.02060991562268
   35     0.00010133528440     0.00106565226372     0.00104065093159     0.00506267254940     0.02147221204802
   36     2.20124017164278     0.13843768749362     0.02694052433047     0.00326070682572     0.00729500049342
[...]
   15     0.00000095154774     0.00000045154299     0.00000932721006     0.00000009786782     0.00000005692446
   16     0.00000287809088     0.00000130971593     0.00002387473128     0.00000034001465     0.00000018668042
   17     0.00000272183976     0.00000229399817     0.00005098910180     0.00000043003301     0.00000023559560
   18     0.00000169645639     0.00000127999137     0.00003031357694     0.00000022727263     0.00000020558028
   19     0.00000079519187     0.00000057881531     0.00001357516504     0.00000016963844     0.00000008922438
   20     0.00000588903325     0.00000109542351     0.00002641649660     0.00000028916852     0.00000022102916
   21     0.00003016268057     0.00000454602623     0.00006588870262     0.00000210891593     0.00000056822462
   22     0.00021788788979     0.00007389973844     0.00148016746011     0.00001286352585     0.00000945229049
   23     0.00039076173888     0.00034984976308     0.00872764929625     0.00002762108537     0.00002989069883
   24     0.00094386615377     0.00120344962629     0.02354109868075     0.00009236210413     0.00006790329825
   25     0.00147320602545     0.00079625621917     0.01119103336801     0.00018253033766     0.00008651550363
   26     0.00049699285943     0.00017632510475     0.00323186589121     0.00008781965721     0.00003626084502
   27     0.00013097710134     0.00011551560370     0.00189590343863     0.00002462441106     0.00002209359260
   28     0.01206843691020     0.00124003335997     0.00582667100033     0.00070251358312     0.00012232730753
   29     0.06726369466869     0.00968030452162     0.01157820293370     0.00336713341974     0.00061559739285
   30     0.77806364647423     0.06527896883069     0.04448711553406     0.01324530185699     0.00401550568120
   31     0.05119654617977     0.90319853333876     0.77844664341480     0.01599613368290     0.01803594461086
   32     0.01348018670861     0.06125064611460     0.05521169008602     0.06762099082573     0.06359227848361
   33     0.01599945484582     0.01891809937378     0.01179343815150     0.91064776991632     0.91946512675164
   34     0.00793514680587     0.01232348389726     0.02093780200885     0.01614437413081     0.01263000290777
   35     0.02181049687727     0.00259193615969     0.00720978728838     0.01287603722442     0.00176529424463
   36     0.00001938995946     0.00000319494406     0.00004114754885     0.00000093107139     0.00000055681451
   37     0.00000009256483     0.00000007201451     0.00000097171310     0.00000001468250     0.00000000615267
   38     0.00000578358674     0.00001197678684     0.00000529809831     0.00000028213377     0.00000157476049
   39     0.00000181787801     0.00000330351703     0.00000462064141     0.00000012470215     0.00000016976514
   40     0.00000926599472     0.00001188250159     0.00010041394837     0.00000150665198     0.00000057347332
   41     0.00067256749670     0.00142137750898     0.00036206719497     0.00002077700547     0.00000756788073
   42     0.00000011726198     0.00000102101391     0.00000123919531     0.00000001976840     0.00000000648924
   43     0.00000004684209     0.00000009389175     0.00000018032438     0.00000000460373     0.00000000095822
   44     0.00000001701270     0.00000001823335     0.00000013781823     0.00000000144912     0.00000000192812
   45     0.00000031645201     0.00000015474519     0.00000343430004     0.00000006083020     0.00000002495122
   46     0.00000099967532     0.00000051468076     0.00001009300627     0.00000028971586     0.00000005316645
   47     0.00000007449285     0.00000003791089     0.00000088206279     0.00000001859919     0.00000000761796
   48     0.00000089355409     0.00000008433393     0.00000335591886     0.00000006382908     0.00000003611554
   49     0.00005737795828     0.00002543896774     0.00080888210435     0.00000234612685     0.00000227977256
   50     0.00019697019168     0.00038933803164     0.00472665376567     0.00004285225956     0.00001957787439
   51     0.00011739877085     0.00001634915194     0.00018604696069     0.00003184535812     0.00000544423496
   52     0.00001235613282     0.00000366375694     0.00005008906879     0.00000248555500     0.00000118806037
   53     0.00124087669183     0.00012571075963     0.00088867032249     0.00007475452092     0.00002059906576
   54     0.00048489319848     0.00024929356664     0.00033013736718     0.00006730653935     0.00001926353319
   55     0.01908318726370     0.00554915605681     0.00881821929895     0.00044081627576     0.00010591190492
   56     0.00000000000000     0.01075578798992     0.02114963144318     0.00818393099981     0.00181113300699
   57     0.01075578798992     0.00000000000000     0.02726661030363     0.00264711499952     0.00582586965784
   58     0.02114963144318     0.02726661030363     0.00000000000000     0.00093535408978     0.00098366088375
   59     0.00818393099981     0.00264711499952     0.00093535408978     0.00000000000000     0.03491552984496
   60     0.00181113300699     0.00582586965784     0.00098366088375     0.03491552984496     0.00000000000000
   61     0.00065831849233     0.00116866967209     0.00066313786263     0.03492954482403     0.03761657795962
   62     0.00049485296962     0.00114270506143     0.00099145395035     0.00278701777104     0.00113955424117
   63     0.00084347183320     0.00092937970933     0.00552148503380     0.00102719216004     0.00064691073118
   64     0.00547718064131     0.00050083684944     0.00091883254090     0.00829823774989     0.00067963016128
   65     0.00079113928693     0.00028063720575     0.00044316786498     0.00053418967992     0.00022571486642
   66     0.00000000768529     0.00000001017442     0.00000015400803     0.00000000337730     0.00000000155121
   67     0.00000004752689     0.00000002246638     0.00000034472291     0.00000000660692     0.00000000189768
   68     0.00000001163240     0.00000000731550     0.00000014667657     0.00000000249094     0.00000000163149

                61                  62                  63                  64                  65

    1     0.00000120676214     0.00000206572267     0.00000788219201     0.00000894373072     0.00000273542752
    2     0.00000046091450     0.00000039909338     0.00000125918962     0.00000156909984     0.00000076679601
    3     0.00000036367042     0.00000106761947     0.00000211811223     0.00000229259501     0.00000131571045
    4     0.00000261904401     0.00000328711022     0.00001715300655     0.00001458666471     0.00000623853568
    5     0.00001126544225     0.00001345350779     0.00003357029453     0.00007116732049     0.00004540250167
    6     0.00000812666732     0.00001724684622     0.00003438041847     0.00004150725107     0.00002767449454
    7     0.00000005419337     0.00000018708411     0.00000059151523     0.00000038121367     0.00000023162454
    8     0.00000003601912     0.00000010513986     0.00000012826859     0.00000020910434     0.00000007839926
    9     0.00000000956704     0.00000002836974     0.00000007638426     0.00000006243248     0.00000001991372
   10     0.00000001656252     0.00000004014237     0.00000007338965     0.00000002711595     0.00000001184298
   11     0.00000000914220     0.00000004295367     0.00000051314859     0.00000012416031     0.00000006692962
   12     0.00000002422738     0.00000021216417     0.00000172275498     0.00000034629806     0.00000026749318
   13     0.00000000829264     0.00000001940275     0.00000040371583     0.00000003752075     0.00000003303445
   14     0.00000002571409     0.00000023667684     0.00000664883110     0.00000069856270     0.00000084067442
   15     0.00000004887146     0.00000037128248     0.00000773386560     0.00000072731539     0.00000058725494
   16     0.00000009726495     0.00000100237118     0.00002069659994     0.00000177371268     0.00000141320347
   17     0.00000025495043     0.00000182529875     0.00004518165664     0.00000216848861     0.00000510555504
   18     0.00000014043403     0.00000094347511     0.00002478819161     0.00000155820594     0.00000429614907
   19     0.00000011636632     0.00000078270194     0.00001119637741     0.00000209909650     0.00000239266723
   20     0.00000017577965     0.00000112491732     0.00002989944934     0.00000456152693     0.00000640759254
   21     0.00000090740661     0.00000858914073     0.00011282930912     0.00004130474040     0.00001925778783
   22     0.00001143437834     0.00010230525510     0.00240960136152     0.00029880591551     0.00019919792104
   23     0.00002425672648     0.00011709181800     0.00247496058516     0.00023028149885     0.00022136133933
   24     0.00004421279521     0.00027088028369     0.00563091014918     0.00063068605006     0.00059621048055
   25     0.00009236995759     0.00083321941936     0.01476594305668     0.00154427904512     0.00591669593691
   26     0.00006168828744     0.00082204345616     0.02050384602585     0.00095780793869     0.00575568480207
   27     0.00003452372623     0.00028765996385     0.00835957640186     0.00041730515448     0.00047077655568
   28     0.00012178038635     0.00117593340444     0.00687893924745     0.01213961076106     0.02013468977909
   29     0.00062950611367     0.00999232502512     0.01217549873469     0.06659384507202     0.05699302683412
   30     0.00174712630595     0.00256511871203     0.00795787190808     0.02286369019079     0.01251504640253
   31     0.01238028606941     0.01279355271239     0.02148415152284     0.00836146057954     0.00255195047604
   32     0.06334825313087     0.05875834969616     0.05828178762017     0.01408692818241     0.01044397088594
   33     0.91953089823654     0.01958696654425     0.01259075967342     0.01648423306664     0.00161351222029
   34     0.01832889214140     0.88935286045093     0.75912390284314     0.04930735186655     0.05926984042333
   35     0.00397834481848     0.06096256329741     0.04375244096478     0.76959470697435     0.88414159476689
   36     0.00000057457739     0.00000276116813     0.00006554862375     0.00001822055163     0.00000816691960
   37     0.00000000617199     0.00000007116538     0.00000082993038     0.00000007244759     0.00000004555065
   38     0.00000016015586     0.00000010515235     0.00000106937328     0.00000068701258     0.00000035147031
   39     0.00000005170817     0.00000002610835     0.00000020485398     0.00000035532387     0.00000010801036
   40     0.00000039802383     0.00000043173180     0.00001029102832     0.00000241510858     0.00000206103969
   41     0.00000577523048     0.00000792130498     0.00003540611399     0.00003095326748     0.00001714932915
   42     0.00000000208312     0.00000000506213     0.00000005314093     0.00000004786093     0.00000000884544
   43     0.00000000048633     0.00000000104160     0.00000001013911     0.00000000893568     0.00000000300826
   44     0.00000000048276     0.00000000505566     0.00000016223407     0.00000001736889     0.00000001370522
   45     0.00000001544801     0.00000016616825     0.00000388413077     0.00000023919835     0.00000023731751
   46     0.00000017861349     0.00000129877088     0.00002329933186     0.00000202820959     0.00000098528192
   47     0.00000001765596     0.00000014559884     0.00000245174210     0.00000024211951     0.00000027070637
   48     0.00000002363538     0.00000012693171     0.00000423400397     0.00000084777722     0.00000070423455
   49     0.00000095233324     0.00000317456335     0.00007552678830     0.00001282317918     0.00001938834202
   50     0.00000966519753     0.00002370608955     0.00045000775925     0.00012471934693     0.00007516017601
   51     0.00001470234833     0.00013781251377     0.00342214430707     0.00010633450776     0.00243284654886
   52     0.00000299077737     0.00002604982196     0.00065350025398     0.00005039974972     0.00002887035265
   53     0.00002144991618     0.00026886255078     0.00041135920565     0.00051514570460     0.00109511145152
   54     0.00002116170558     0.00012231640673     0.00096699118506     0.00121489256933     0.00586514151931
   55     0.00023503212903     0.00035924694518     0.00030528487631     0.00070699330673     0.00123830794432
   56     0.00065831849233     0.00049485296962     0.00084347183320     0.00547718064131     0.00079113928693
   57     0.00116866967209     0.00114270506143     0.00092937970933     0.00050083684944     0.00028063720575
   58     0.00066313786263     0.00099145395035     0.00552148503380     0.00091883254090     0.00044316786498
   59     0.03492954482403     0.00278701777104     0.00102719216004     0.00829823774989     0.00053418967992
   60     0.03761657795962     0.00113955424117     0.00064691073118     0.00067963016128     0.00022571486642
   61     0.00000000000000     0.00608886411317     0.00104837967620     0.00188447194666     0.00013581563771
   62     0.00608886411317     0.00000000000000     0.02227866531396     0.01007648917542     0.00576035026399
   63     0.00104837967620     0.02227866531396     0.00000000000000     0.02570726495765     0.00882861367041
   64     0.00188447194666     0.01007648917542     0.02570726495765     0.00000000000000     0.02267477669655
   65     0.00013581563771     0.00576035026399     0.00882861367041     0.02267477669655     0.00000000000000
   66     0.00000000213334     0.00000002022142     0.00000018949723     0.00000001816962     0.00000002982670
   67     0.00000000223664     0.00000001186899     0.00000027618989     0.00000003228401     0.00000001956882
   68     0.00000000091632     0.00000000554421     0.00000009072691     0.00000000443275     0.00000000384758

                66                  67                  68

    1     0.00000091753075     0.00000526894799     0.00000045182211
    2     0.00000223498874     0.00000627116633     0.00000144006041
    3     0.00000704213233     0.00001827314942     0.00000591594609
    4     0.00000681750933     0.00003093967738     0.00000916575301
    5     0.00000108270975     0.00000494473510     0.00000070315276
    6     0.00000077173491     0.00000414712487     0.00000041401299
    7     0.00006279562247     0.00016828064635     0.00003494464267
    8     0.00007872406297     0.00010701215269     0.00004619082679
    9     0.00004571112507     0.00016260531002     0.00002585316058
   10     0.00024495670004     0.00063283465603     0.00010380344577
   11     0.00177551144445     0.00518910318367     0.00047619477691
   12     0.00036457716251     0.00140651821689     0.00018926609103
   13     0.00869556903648     0.01029055904775     0.00211259029854
   14     0.01676507305190     0.01750283937505     0.00914462404979
   15     0.05886347850675     0.05824252102710     0.06002312096388
   16     0.01560323487135     0.01398791632131     0.02311234828686
   17     0.00128224211352     0.00123377081816     0.00185067033919
   18     0.00330398502238     0.00263839923657     0.00057593609595
   19     0.00127427773557     0.00138272087914     0.00114434538026
   20     0.00031840464213     0.00022393207682     0.00010425977996
   21     0.00014476443398     0.00012106150396     0.00003777480235
   22     0.00002962490508     0.00003205726758     0.00001536700257
   23     0.00003960268663     0.00003670156342     0.00001455275216
   24     0.00001431625587     0.00001220717875     0.00000503106533
   25     0.00000843758604     0.00000604767131     0.00000093562753
   26     0.00000809460079     0.00000607814582     0.00000190722335
   27     0.00001094931287     0.00001758829459     0.00000282771439
   28     0.00000057515274     0.00000060717703     0.00000024607151
   29     0.00000037221124     0.00000033553592     0.00000007307883
   30     0.00000012540848     0.00000011689005     0.00000006026615
   31     0.00000025628252     0.00000046077274     0.00000020433083
   32     0.00000010922525     0.00000020700834     0.00000005564088
   33     0.00000001578634     0.00000002917989     0.00000000990396
   34     0.00000018273936     0.00000018384168     0.00000005451405
   35     0.00000021686128     0.00000012208041     0.00000003267174
   36     0.00004256673794     0.00003587576696     0.00000754688551
   37     0.91678811317019     0.91377651286210     0.92160917401392
   38     0.00000009324715     0.00000044227617     0.00000006182954
   39     0.00000045921596     0.00000180397802     0.00000023294341
   40     0.00000453908176     0.00000927088971     0.00000431508373
   41     0.00000006548461     0.00000030116962     0.00000004253681
   42     0.00000355350405     0.00000378772404     0.00000132644362
   43     0.00000498879028     0.00000505410905     0.00000132413601
   44     0.00259081454538     0.00201306759862     0.00033041037535
   45     0.00133785751358     0.00116945623810     0.00728156092775
   46     0.00020891810094     0.00024293566899     0.00013739320308
   47     0.00023654379737     0.00024613495900     0.00037934902252
   48     0.00010354375189     0.00011738484503     0.00002821241244
   49     0.00001523440472     0.00001497517137     0.00000611946425
   50     0.00000113117142     0.00000143036373     0.00000089479630
   51     0.00000056358700     0.00000045167832     0.00000012545873
   52     0.00000067846145     0.00000143530960     0.00000055911606
   53     0.00000016963486     0.00000008604135     0.00000022733863
   54     0.00000011183251     0.00000006706171     0.00000001921089
   55     0.00000004942774     0.00000002900224     0.00000001774535
   56     0.00000000768529     0.00000004752689     0.00000001163240
   57     0.00000001017442     0.00000002246638     0.00000000731550
   58     0.00000015400803     0.00000034472291     0.00000014667657
   59     0.00000000337730     0.00000000660692     0.00000000249094
   60     0.00000000155121     0.00000000189768     0.00000000163149
   61     0.00000000213334     0.00000000223664     0.00000000091632
   62     0.00000002022142     0.00000001186899     0.00000000554421
   63     0.00000018949723     0.00000027618989     0.00000009072691
   64     0.00000001816962     0.00000003228401     0.00000000443275
   65     0.00000002982670     0.00000001956882     0.00000000384758
   66     0.00000000000000     0.03530595292292     0.03813024981158
   67     0.03530595292292     0.00000000000000     0.03831796748871
   68     0.03813024981158     0.03831796748871     0.00000000000000



  Atomic Valences: 

 #  #
 Irrep: 1
      1:  4.3907919
      2:  4.4233200
      3:  4.6038594
      4:  4.5774431
      5:  3.9657194
      6:  4.5677842
      7:  4.7427981
      8:  4.3684133
      9:  4.5275651
     10:  3.8647337
     11:  5.0373976
     12:  3.9358869
     13:  4.0673107
     14:  4.7242717
     15:  4.6488159
     16:  4.4362070
     17:  4.4156723
     18:  4.7346258
     19:  4.4462679
     20:  4.0649854
     21:  5.0192262
     22:  4.6383080
     23:  4.4711607
     24:  4.5170306
     25:  4.7219778
     26:  4.4751724
     27:  4.4447294
     28:  4.5063333
     29:  4.2660630
     30:  4.5740540
     31:  4.5889799
     32:  4.2051544
     33:  4.2736085
     34:  4.5588734
     35:  4.5489799
     36:  2.7361948
     37:  4.1476240
     38:  1.0979192
     39:  1.1020845
     40:  1.1101364
     41:  1.0998672
     42:  1.1105571
     43:  1.0864552
     44:  1.1691577
     45:  1.1014375
     46:  1.0957500
     47:  1.0973583
     48:  1.1623305
     49:  1.1135844
     50:  1.1335133
     51:  1.1070695
     52:  1.1005045
     53:  1.1095495
     54:  1.1089129
     55:  1.0730337
     56:  1.0450339
     57:  1.1412046
     58:  1.0662242
     59:  1.1360645
     60:  1.1045677
     61:  1.1048665
     62:  1.1093881
     63:  1.0500132
     64:  1.0427124
     65:  1.1114081
     66:  1.1037317
     67:  1.1047379
     68:  1.1052788


    Psi4 stopped on: Wednesday, 04 March 2020 12:59PM
    Psi4 wall time for execution: 0:27:15.33

*** Psi4 exiting successfully. Buy a developer a beer!
