68
MOLECULE0-opt-29-28-25-24-307.log	Energy: -992571.3958563
C         -0.47325        4.27512       -0.77123
C          0.87133        4.19238       -0.43015
C          1.54767        2.99037       -0.63149
C          0.82115        1.92638       -1.18253
N         -0.46786        1.99019       -1.51143
C         -1.09671        3.15024       -1.30019
C          2.96956        2.78919       -0.25386
C          3.90065        3.81911       -0.15465
C          5.18658        3.44646        0.23518
N          5.54585        2.19712        0.49661
C          4.57235        1.27479        0.35455
N          3.31235        1.52353       -0.00211
N          4.96095       -0.01124        0.61319
C          4.24510       -1.21725        0.49461
C          4.96872       -2.42704        0.47990
C          4.24801       -3.60981        0.33857
C          2.86227       -3.65094        0.19553
C          2.17114       -2.44330        0.21707
C          2.85956       -1.24340        0.39356
N          0.78464       -2.30520        0.03913
C         -0.15551       -3.23233       -0.33102
C         -1.47492       -2.60080       -0.67534
C         -1.55004       -1.35785       -1.31091
C         -2.78238       -0.77854       -1.57463
C         -3.96576       -1.40973       -1.19157
C         -3.88407       -2.67721       -0.60812
C         -2.65396       -3.27413       -0.35788
C         -5.30281       -0.70394       -1.34850
N         -5.69278        0.22609       -0.29959
C         -5.02601        1.52286       -0.24756
C         -3.81594        1.57792        0.70278
N         -4.11300        1.06893        2.03886
C         -4.90187        1.97784        2.85138
C         -4.67897       -0.27454        1.93984
C         -5.91421       -0.34028        1.02630
O          0.03635       -4.43621       -0.36464
C          6.47148       -2.44300        0.59983
H         -1.03263        5.19178       -0.61829
H          1.37653        5.04540        0.01370
H          1.32525        0.98106       -1.36670
H         -2.15169        3.17714       -1.56444
H          3.66174        4.85091       -0.38058
H          5.96822        4.19655        0.33792
H          5.94223       -0.07750        0.83885
H          4.79613       -4.54855        0.32555
H          2.33325       -4.58496        0.06479
H          2.31459       -0.31197        0.41871
H          0.44618       -1.35871        0.13023
H         -0.65361       -0.83275       -1.62770
H         -2.81027        0.19083       -2.06569
H         -4.79880       -3.19711       -0.33186
H         -2.59030       -4.25668        0.09907
H         -5.30852       -0.14850       -2.29416
H         -6.09516       -1.45976       -1.42309
H         -4.72446        1.80436       -1.26362
H         -5.76740        2.26795        0.07855
H         -3.45866        2.61188        0.79234
H         -2.99116        0.98273        0.29542
H         -5.91196        2.20543        2.46741
H         -4.36423        2.92725        2.95173
H         -5.01752        1.55072        3.85350
H         -4.93727       -0.62329        2.94712
H         -3.89707       -0.93787        1.55211
H         -6.74291        0.20794        1.49850
H         -6.24779       -1.37815        0.91534
H          6.81684       -2.03134        1.55809
H          6.95200       -1.86678       -0.20154
H          6.85162       -3.46569        0.53634
