
    -----------------------------------------------------------------------
          Psi4: An Open-Source Ab Initio Electronic Structure Package
                               Psi4 1.3.2 release

                         Git: Rev {HEAD} ecbda83 


    R. M. Parrish, L. A. Burns, D. G. A. Smith, A. C. Simmonett,
    A. E. DePrince III, E. G. Hohenstein, U. Bozkaya, A. Yu. Sokolov,
    R. Di Remigio, R. M. Richard, J. F. Gonthier, A. M. James,
    H. R. McAlexander, A. Kumar, M. Saitow, X. Wang, B. P. Pritchard,
    P. Verma, H. F. Schaefer III, K. Patkowski, R. A. King, E. F. Valeev,
    F. A. Evangelista, J. M. Turney, T. D. Crawford, and C. D. Sherrill,
    J. Chem. Theory Comput. 13(7) pp 3185--3197 (2017).
    (doi: 10.1021/acs.jctc.7b00174)


                         Additional Contributions by
    P. Kraus, H. Kruse, M. H. Lechner, M. C. Schieber, R. A. Shaw,
    A. Alenaizan, R. Galvelis, Z. L. Glick, S. Lehtola, and J. P. Misiewicz

    -----------------------------------------------------------------------


    Psi4 started on: Tuesday, 14 April 2020 12:44PM

    Process ID: 13989
    Host:       node76.bme.utexas.edu
    PSIDATADIR: /home/bdw2292/miniconda3/envs/p4env/share/psi4
    Memory:     500.0 MiB
    Threads:    1
    
  ==> Input File <==

--------------------------------------------------------------------------
molecule { 
0 1
 C    1.291995    4.988277   -0.563021
 C    2.609149    4.528559   -0.428567
 C    2.854910    3.165240   -0.174178
 C    1.706455    2.347423   -0.037114
 N    0.440571    2.766990   -0.159623
 C    0.246337    4.068181   -0.425172
 C    4.234728    2.571691   -0.035550
 C    5.431597    3.303291    0.031616
 C    6.598921    2.548462    0.199636
 N    6.630477    1.219462    0.275832
 C    5.439004    0.596131    0.174976
 N    4.273089    1.228355    0.029838
 N    5.482435   -0.787157    0.245221
 C    4.471737   -1.818705    0.214750
 C    4.831050   -3.170705    0.502603
 C    3.803570   -4.129747    0.483536
 C    2.463856   -3.837612    0.200068
 C    2.125556   -2.514122   -0.099243
 C    3.135316   -1.539690   -0.097029
 N    0.816807   -2.033425   -0.428041
 C   -0.426545   -2.614130   -0.330591
 C   -1.636674   -1.759227   -0.668166
 C   -1.662578   -0.355399   -0.589361
 C   -2.798248    0.356956   -0.980992
 C   -3.959224   -0.298199   -1.432717
 C   -3.931125   -1.705067   -1.480474
 C   -2.795267   -2.425343   -1.103422
 C   -5.211059    0.487549   -1.827595
 N   -6.230456    0.796642   -0.810867
 C   -5.893146    1.746231    0.274296
 C   -5.383449    1.085199    1.581503
 N   -6.276698    0.025938    2.109545
 C   -7.428659    0.474604    2.900658
 C   -6.554013   -0.947949    1.026071
 C   -7.073063   -0.301480   -0.284773
 O   -0.574420   -3.777434    0.012061
 C    6.247653   -3.601467    0.843390
 H    1.080265    6.032965   -0.771490
 H    3.422689    5.239836   -0.548157
 H    1.807044    1.296255    0.211532
 H   -0.794082    4.375533   -0.520047
 H    5.494006    4.383735   -0.010607
 H    7.578300    3.018394    0.283716
 H    6.436617   -1.082748    0.385749
 H    4.045073   -5.168476    0.705484
 H    1.698166   -4.603307    0.209486
 H    2.878369   -0.527269   -0.353420
 H    0.808310   -1.085417   -0.775355
 H   -0.794637    0.187632   -0.222498
 H   -2.776395    1.444388   -0.913216
 H   -4.812780   -2.252877   -1.811622
 H   -2.789191   -3.511814   -1.147362
 H   -4.891000    1.448581   -2.254647
 H   -5.722031   -0.062561   -2.630547
 H   -5.126981    2.553858   -0.111153
 H   -7.146375    2.483928    0.608817
 H   -5.209384    1.957327    2.473045
 H   -4.136258    0.484286    1.344451
 H   -8.130007    1.046235    2.282524
 H   -7.093892    1.106459    3.731363
 H   -7.954169   -0.387698    3.326740
 H   -7.368911   -1.802541    1.442878
 H   -5.358973   -1.615607    0.770440
 H   -8.405518    0.276340    0.001892
 H   -7.244549   -1.146662   -1.138321
 H    6.661108   -3.061407    1.707107
 H    6.923427   -3.428292    0.001193
 H    6.317473   -4.664888    1.086648
}
memory 20GB
set_num_threads(6)
psi4_io.set_default_path("/scratch/bdw2292")
set freeze_core True
E, wfn = energy('mp2/6-311++G**',return_wfn=True)
oeprop(wfn,"WIBERG_LOWDIN_INDICES")
clean()
--------------------------------------------------------------------------

  Memory set to  18.626 GiB by Python driver.
  Threads set to 6 by Python driver.
    SCF Algorithm Type (re)set to DF.

*** tstart() called on node76.bme.utexas.edu
*** at Tue Apr 14 12:44:25 2020

   => Loading Basis Set <=

    Name: 6-311++G**
    Role: ORBITAL
    Keyword: BASIS
    atoms 1-4, 6-9, 11, 14-19, 21-28, 30-31, 33-35, 37 entry C          line   119 file /home/bdw2292/miniconda3/envs/p4env/share/psi4/basis/6-311ppgss.gbs 
    atoms 5, 10, 12-13, 20, 29, 32                     entry N          line   140 file /home/bdw2292/miniconda3/envs/p4env/share/psi4/basis/6-311ppgss.gbs 
    atoms 36                                           entry O          line   161 file /home/bdw2292/miniconda3/envs/p4env/share/psi4/basis/6-311ppgss.gbs 
    atoms 38-68                                        entry H          line    42 file /home/bdw2292/miniconda3/envs/p4env/share/psi4/basis/6-311ppgss.gbs 


         ---------------------------------------------------------
                                   SCF
               by Justin Turney, Rob Parrish, Andy Simmonett
                          and Daniel G. A. Smith
                              RHF Reference
                        6 Threads,  19073 MiB Core
         ---------------------------------------------------------

  ==> Geometry <==

    Molecular point group: c1
    Full point group: C1

    Geometry (in Angstrom), charge = 0, multiplicity = 1:

       Center              X                  Y                   Z               Mass       
    ------------   -----------------  -----------------  -----------------  -----------------
         C            1.181143436993     4.983066763122    -0.562589930689    12.000000000000
         C            2.498297436993     4.523348763122    -0.428135930689    12.000000000000
         C            2.744058436993     3.160029763122    -0.173746930689    12.000000000000
         C            1.595603436993     2.342212763122    -0.036682930689    12.000000000000
         N            0.329719436993     2.761779763122    -0.159191930689    14.003074004430
         C            0.135485436993     4.062970763122    -0.424740930689    12.000000000000
         C            4.123876436993     2.566480763122    -0.035118930689    12.000000000000
         C            5.320745436993     3.298080763122     0.032047069311    12.000000000000
         C            6.488069436993     2.543251763122     0.200067069311    12.000000000000
         N            6.519625436993     1.214251763122     0.276263069311    14.003074004430
         C            5.328152436993     0.590920763122     0.175407069311    12.000000000000
         N            4.162237436993     1.223144763122     0.030269069311    14.003074004430
         N            5.371583436993    -0.792367236878     0.245652069311    14.003074004430
         C            4.360885436993    -1.823915236878     0.215181069311    12.000000000000
         C            4.720198436993    -3.175915236878     0.503034069311    12.000000000000
         C            3.692718436993    -4.134957236878     0.483967069311    12.000000000000
         C            2.353004436993    -3.842822236878     0.200499069311    12.000000000000
         C            2.014704436993    -2.519332236878    -0.098811930689    12.000000000000
         C            3.024464436993    -1.544900236878    -0.096597930689    12.000000000000
         N            0.705955436993    -2.038635236878    -0.427609930689    14.003074004430
         C           -0.537396563007    -2.619340236878    -0.330159930689    12.000000000000
         C           -1.747525563007    -1.764437236878    -0.667734930689    12.000000000000
         C           -1.773429563007    -0.360609236878    -0.588929930689    12.000000000000
         C           -2.909099563007     0.351745763122    -0.980560930689    12.000000000000
         C           -4.070075563007    -0.303409236878    -1.432285930689    12.000000000000
         C           -4.041976563007    -1.710277236878    -1.480042930689    12.000000000000
         C           -2.906118563007    -2.430553236878    -1.102990930689    12.000000000000
         C           -5.321910563007     0.482338763122    -1.827163930689    12.000000000000
         N           -6.341307563007     0.791431763122    -0.810435930689    14.003074004430
         C           -6.003997563007     1.741020763122     0.274727069311    12.000000000000
         C           -5.494300563007     1.079988763122     1.581934069311    12.000000000000
         N           -6.387549563007     0.020727763122     2.109976069311    14.003074004430
         C           -7.539510563007     0.469393763122     2.901089069311    12.000000000000
         C           -6.664864563007    -0.953159236878     1.026502069311    12.000000000000
         C           -7.183914563007    -0.306690236878    -0.284341930689    12.000000000000
         O           -0.685271563007    -3.782644236878     0.012492069311    15.994914619570
         C            6.136801436993    -3.606677236878     0.843821069311    12.000000000000
         H            0.969413436993     6.027754763122    -0.771058930689     1.007825032230
         H            3.311837436993     5.234625763122    -0.547725930689     1.007825032230
         H            1.696192436993     1.291044763122     0.211963069311     1.007825032230
         H           -0.904933563007     4.370322763122    -0.519615930689     1.007825032230
         H            5.383154436993     4.378524763122    -0.010175930689     1.007825032230
         H            7.467448436993     3.013183763122     0.284147069311     1.007825032230
         H            6.325765436993    -1.087958236878     0.386180069311     1.007825032230
         H            3.934221436993    -5.173686236878     0.705915069311     1.007825032230
         H            1.587314436993    -4.608517236878     0.209917069311     1.007825032230
         H            2.767517436993    -0.532479236878    -0.352988930689     1.007825032230
         H            0.697458436993    -1.090627236878    -0.774923930689     1.007825032230
         H           -0.905488563007     0.182421763122    -0.222066930689     1.007825032230
         H           -2.887246563007     1.439177763122    -0.912784930689     1.007825032230
         H           -4.923631563007    -2.258087236878    -1.811190930689     1.007825032230
         H           -2.900042563007    -3.517024236878    -1.146930930689     1.007825032230
         H           -5.001851563007     1.443370763122    -2.254215930689     1.007825032230
         H           -5.832882563007    -0.067771236878    -2.630115930689     1.007825032230
         H           -5.237832563007     2.548647763122    -0.110721930689     1.007825032230
         H           -7.257226563007     2.478717763122     0.609248069311     1.007825032230
         H           -5.320235563007     1.952116763122     2.473476069311     1.007825032230
         H           -4.247109563007     0.479075763122     1.344882069311     1.007825032230
         H           -8.240858563007     1.041024763122     2.282955069311     1.007825032230
         H           -7.204743563007     1.101248763122     3.731794069311     1.007825032230
         H           -8.065020563007    -0.392908236878     3.327171069311     1.007825032230
         H           -7.479762563007    -1.807751236878     1.443309069311     1.007825032230
         H           -5.469824563007    -1.620817236878     0.770871069311     1.007825032230
         H           -8.516369563007     0.271129763122     0.002323069311     1.007825032230
         H           -7.355400563007    -1.151872236878    -1.137889930689     1.007825032230
         H            6.550256436993    -3.066617236878     1.707538069311     1.007825032230
         H            6.812575436993    -3.433502236878     0.001624069311     1.007825032230
         H            6.206621436993    -4.670098236878     1.087079069311     1.007825032230

  Running in c1 symmetry.

  Rotational constants: A =      0.00486  B =      0.00163  C =      0.00130 [cm^-1]
  Rotational constants: A =    145.60605  B =     48.86153  C =     39.07377 [MHz]
  Nuclear repulsion = 3696.172545100591833

  Charge       = 0
  Multiplicity = 1
  Electrons    = 262
  Nalpha       = 131
  Nbeta        = 131

  ==> Algorithm <==

  SCF Algorithm Type is DF.
  DIIS enabled.
  MOM disabled.
  Fractional occupation disabled.
  Guess Type is SAD.
  Energy threshold   = 1.00e-08
  Density threshold  = 1.00e-08
  Integral threshold = 0.00e+00

  ==> Primary Basis <==

  Basis Set: 6-311++G**
    Blend: 6-311++G**
    Number of shells: 525
    Number of basis function: 1031
    Number of Cartesian functions: 1068
    Spherical Harmonics?: true
    Max angular momentum: 2

   => Loading Basis Set <=

    Name: (6-311++G** AUX)
    Role: JKFIT
    Keyword: DF_BASIS_SCF
    atoms 1-4, 6-9, 11, 14-19, 21-28, 30-31, 33-35, 37 entry C          line   162 file /home/bdw2292/miniconda3/envs/p4env/share/psi4/basis/aug-cc-pvtz-jkfit.gbs 
    atoms 5, 10, 12-13, 20, 29, 32                     entry N          line   224 file /home/bdw2292/miniconda3/envs/p4env/share/psi4/basis/aug-cc-pvtz-jkfit.gbs 
    atoms 36                                           entry O          line   286 file /home/bdw2292/miniconda3/envs/p4env/share/psi4/basis/aug-cc-pvtz-jkfit.gbs 
    atoms 38-68                                        entry H          line    70 file /home/bdw2292/miniconda3/envs/p4env/share/psi4/basis/aug-cc-pvtz-jkfit.gbs 

  ==> Pre-Iterations <==

   -------------------------------------------------------
    Irrep   Nso     Nmo     Nalpha   Nbeta   Ndocc  Nsocc
   -------------------------------------------------------
     A       1031    1031       0       0       0       0
   -------------------------------------------------------
    Total    1031    1031     131     131     131       0
   -------------------------------------------------------

  ==> Integral Setup <==

  ==> DiskDFJK: Density-Fitted J/K Matrices <==

    J tasked:                  Yes
    K tasked:                  Yes
    wK tasked:                  No
    OpenMP threads:              6
    Integrals threads:           6
    Memory [MiB]:            14305
    Algorithm:                Core
    Integral Cache:           NONE
    Schwarz Cutoff:          1E-12
    Fitting Condition:       1E-10

   => Auxiliary Basis Set <=

  Basis Set: (6-311++G** AUX)
    Blend: AUG-CC-PVTZ-JKFIT
    Number of shells: 1544
    Number of basis function: 5274
    Number of Cartesian functions: 6552
    Spherical Harmonics?: true
    Max angular momentum: 4

  Minimum eigenvalue in the overlap matrix is 1.2695826465E-07.
  Using Symmetric Orthogonalization.

  SCF Guess: Superposition of Atomic Densities via on-the-fly atomic UHF.

  ==> Iterations <==

                           Total Energy        Delta E     RMS |[F,P]|

   @DF-RHF iter SAD: -1571.24671747095226   -1.57125e+03   0.00000e+00 
   @DF-RHF iter   1: -1571.39089367269594   -1.44176e-01   1.21150e-03 DIIS
   @DF-RHF iter   2: -1572.15247597655593   -7.61582e-01   6.37650e-04 DIIS
   @DF-RHF iter   3: -1572.34302164889436   -1.90546e-01   1.65902e-04 DIIS
   @DF-RHF iter   4: -1572.36011483920765   -1.70932e-02   6.57730e-05 DIIS
   @DF-RHF iter   5: -1572.36269537396811   -2.58053e-03   1.35306e-05 DIIS
   @DF-RHF iter   6: -1572.36284778738332   -1.52413e-04   5.90358e-06 DIIS
   @DF-RHF iter   7: -1572.36288244328148   -3.46559e-05   1.93089e-06 DIIS
   @DF-RHF iter   8: -1572.36288784850626   -5.40522e-06   7.66505e-07 DIIS
   @DF-RHF iter   9: -1572.36288876197978   -9.13474e-07   3.21984e-07 DIIS
   @DF-RHF iter  10: -1572.36288895023108   -1.88251e-07   1.43673e-07 DIIS
   @DF-RHF iter  11: -1572.36288898890371   -3.86726e-08   6.85066e-08 DIIS
   @DF-RHF iter  12: -1572.36288899927035   -1.03666e-08   2.75059e-08 DIIS
   @DF-RHF iter  13: -1572.36288900099157   -1.72122e-09   1.17708e-08 DIIS
   @DF-RHF iter  14: -1572.36288900132718   -3.35604e-10   5.59911e-09 DIIS
  Energy and wave function converged.


  ==> Post-Iterations <==

    Orbital Energies [Eh]
    ---------------------

    Doubly Occupied:                                                      

       1A    -20.519182     2A    -15.604894     3A    -15.601028  
       4A    -15.588357     5A    -15.574367     6A    -15.569467  
       7A    -15.567401     8A    -15.551650     9A    -11.375534  
      10A    -11.363830    11A    -11.335402    12A    -11.314541  
      13A    -11.311085    14A    -11.309614    15A    -11.302640  
      16A    -11.302274    17A    -11.301885    18A    -11.301453  
      19A    -11.299346    20A    -11.292169    21A    -11.290684  
      22A    -11.281725    23A    -11.276416    24A    -11.267142  
      25A    -11.256678    26A    -11.255747    27A    -11.253462  
      28A    -11.253183    29A    -11.247951    30A    -11.247290  
      31A    -11.244659    32A    -11.244277    33A    -11.243694  
      34A    -11.239678    35A    -11.233894    36A    -11.229772  
      37A    -11.224599    38A     -1.385002    39A     -1.345546  
      40A     -1.279817    41A     -1.250243    42A     -1.242433  
      43A     -1.241233    44A     -1.210234    45A     -1.196802  
      46A     -1.160218    47A     -1.139630    48A     -1.117139  
      49A     -1.076148    50A     -1.058430    51A     -1.049228  
      52A     -1.037351    53A     -1.022189    54A     -1.007889  
      55A     -0.989053    56A     -0.974495    57A     -0.946204  
      58A     -0.927571    59A     -0.925964    60A     -0.901506  
      61A     -0.873821    62A     -0.864451    63A     -0.858948  
      64A     -0.840831    65A     -0.833641    66A     -0.824689  
      67A     -0.824004    68A     -0.803957    69A     -0.777810  
      70A     -0.755068    71A     -0.739690    72A     -0.730838  
      73A     -0.722812    74A     -0.699858    75A     -0.693101  
      76A     -0.683522    77A     -0.671977    78A     -0.667007  
      79A     -0.658611    80A     -0.654391    81A     -0.651954  
      82A     -0.639417    83A     -0.635942    84A     -0.629383  
      85A     -0.621867    86A     -0.617741    87A     -0.612356  
      88A     -0.607223    89A     -0.603086    90A     -0.602131  
      91A     -0.598947    92A     -0.595636    93A     -0.591706  
      94A     -0.588909    95A     -0.584447    96A     -0.581053  
      97A     -0.577881    98A     -0.571757    99A     -0.563497  
     100A     -0.562657   101A     -0.547750   102A     -0.545645  
     103A     -0.529119   104A     -0.525046   105A     -0.520678  
     106A     -0.519890   107A     -0.513767   108A     -0.509597  
     109A     -0.505633   110A     -0.503805   111A     -0.502106  
     112A     -0.492072   113A     -0.484416   114A     -0.480498  
     115A     -0.458354   116A     -0.452440   117A     -0.444046  
     118A     -0.432635   119A     -0.427114   120A     -0.424181  
     121A     -0.414849   122A     -0.404348   123A     -0.401414  
     124A     -0.379162   125A     -0.374734   126A     -0.347297  
     127A     -0.344580   128A     -0.339832   129A     -0.314942  
     130A     -0.310125   131A     -0.289591  

    Virtual:                                                              

     132A      0.025919   133A      0.034214   134A      0.040742  
     135A      0.041267   136A      0.044529   137A      0.047342  
     138A      0.049836   139A      0.056275   140A      0.057541  
     141A      0.061590   142A      0.063667   143A      0.067027  
     144A      0.067950   145A      0.068530   146A      0.071868  
     147A      0.074117   148A      0.076866   149A      0.080903  
     150A      0.082412   151A      0.085238   152A      0.088084  
     153A      0.088837   154A      0.092727   155A      0.096122  
     156A      0.098521   157A      0.100200   158A      0.102288  
     159A      0.102587   160A      0.108131   161A      0.110914  
     162A      0.112358   163A      0.114336   164A      0.116098  
     165A      0.118061   166A      0.120571   167A      0.120918  
     168A      0.124140   169A      0.127822   170A      0.128917  
     171A      0.133045   172A      0.136935   173A      0.141792  
     174A      0.144770   175A      0.148108   176A      0.148659  
     177A      0.149149   178A      0.150875   179A      0.153508  
     180A      0.154829   181A      0.157514   182A      0.160903  
     183A      0.161927   184A      0.164877   185A      0.166656  
     186A      0.168384   187A      0.169478   188A      0.172238  
     189A      0.172886   190A      0.176212   191A      0.177070  
     192A      0.179279   193A      0.181120   194A      0.182617  
     195A      0.185277   196A      0.186689   197A      0.188013  
     198A      0.188732   199A      0.191963   200A      0.192263  
     201A      0.195103   202A      0.197993   203A      0.200155  
     204A      0.201896   205A      0.203570   206A      0.205060  
     207A      0.207911   208A      0.209194   209A      0.210629  
     210A      0.211741   211A      0.212651   212A      0.213361  
     213A      0.215180   214A      0.217344   215A      0.219357  
     216A      0.221629   217A      0.222990   218A      0.223858  
     219A      0.225151   220A      0.227478   221A      0.228738  
     222A      0.230599   223A      0.234172   224A      0.236355  
     225A      0.237230   226A      0.238318   227A      0.239615  
     228A      0.242414   229A      0.243546   230A      0.245284  
     231A      0.246808   232A      0.254803   233A      0.256254  
     234A      0.258061   235A      0.260190   236A      0.261692  
     237A      0.262272   238A      0.265249   239A      0.267943  
     240A      0.270086   241A      0.272324   242A      0.273913  
     243A      0.276588   244A      0.277223   245A      0.280670  
     246A      0.281833   247A      0.284315   248A      0.285965  
     249A      0.289161   250A      0.291734   251A      0.293384  
     252A      0.298544   253A      0.300430   254A      0.302285  
     255A      0.304056   256A      0.306441   257A      0.307512  
     258A      0.310693   259A      0.312334   260A      0.314059  
     261A      0.319712   262A      0.321854   263A      0.322897  
     264A      0.326018   265A      0.328522   266A      0.330015  
     267A      0.331614   268A      0.334849   269A      0.336365  
     270A      0.337952   271A      0.341301   272A      0.342178  
     273A      0.343116   274A      0.345839   275A      0.349740  
     276A      0.351945   277A      0.352972   278A      0.353239  
     279A      0.356485   280A      0.359711   281A      0.360038  
     282A      0.360802   283A      0.362581   284A      0.365137  
     285A      0.367084   286A      0.369232   287A      0.370939  
     288A      0.372570   289A      0.376472   290A      0.378559  
     291A      0.379614   292A      0.381477   293A      0.382693  
     294A      0.385077   295A      0.388204   296A      0.388908  
     297A      0.389885   298A      0.392148   299A      0.392858  
     300A      0.396038   301A      0.397382   302A      0.400705  
     303A      0.402084   304A      0.402617   305A      0.404571  
     306A      0.405983   307A      0.408452   308A      0.408931  
     309A      0.411816   310A      0.412353   311A      0.414625  
     312A      0.417354   313A      0.417760   314A      0.420161  
     315A      0.421717   316A      0.424347   317A      0.425920  
     318A      0.426227   319A      0.429879   320A      0.430481  
     321A      0.431782   322A      0.433455   323A      0.438199  
     324A      0.439392   325A      0.442421   326A      0.445889  
     327A      0.446679   328A      0.449219   329A      0.450497  
     330A      0.453339   331A      0.454782   332A      0.458096  
     333A      0.460742   334A      0.461618   335A      0.463383  
     336A      0.467658   337A      0.469779   338A      0.470004  
     339A      0.471745   340A      0.475293   341A      0.478927  
     342A      0.482967   343A      0.484038   344A      0.488372  
     345A      0.491824   346A      0.493685   347A      0.494278  
     348A      0.498074   349A      0.499826   350A      0.502443  
     351A      0.505990   352A      0.511831   353A      0.512735  
     354A      0.516865   355A      0.518374   356A      0.519998  
     357A      0.521637   358A      0.524526   359A      0.525732  
     360A      0.532483   361A      0.533883   362A      0.537270  
     363A      0.540082   364A      0.547565   365A      0.548726  
     366A      0.551025   367A      0.554322   368A      0.556023  
     369A      0.563987   370A      0.568353   371A      0.570293  
     372A      0.577140   373A      0.579451   374A      0.584140  
     375A      0.592279   376A      0.596554   377A      0.602381  
     378A      0.606683   379A      0.607290   380A      0.613670  
     381A      0.619492   382A      0.624708   383A      0.626937  
     384A      0.630644   385A      0.635219   386A      0.644667  
     387A      0.652293   388A      0.658743   389A      0.671146  
     390A      0.687055   391A      0.692669   392A      0.694923  
     393A      0.703194   394A      0.708160   395A      0.711967  
     396A      0.717232   397A      0.719487   398A      0.726560  
     399A      0.732704   400A      0.734231   401A      0.740259  
     402A      0.745932   403A      0.749798   404A      0.754621  
     405A      0.758987   406A      0.761886   407A      0.763431  
     408A      0.766714   409A      0.769387   410A      0.771488  
     411A      0.774371   412A      0.775123   413A      0.786412  
     414A      0.788436   415A      0.792860   416A      0.795674  
     417A      0.799204   418A      0.804581   419A      0.807118  
     420A      0.809963   421A      0.814836   422A      0.816785  
     423A      0.818763   424A      0.823159   425A      0.824464  
     426A      0.825395   427A      0.830442   428A      0.835794  
     429A      0.836651   430A      0.842922   431A      0.846075  
     432A      0.848642   433A      0.854579   434A      0.857251  
     435A      0.861700   436A      0.865868   437A      0.872093  
     438A      0.872763   439A      0.875813   440A      0.878381  
     441A      0.883478   442A      0.886871   443A      0.888060  
     444A      0.891093   445A      0.891946   446A      0.898531  
     447A      0.899845   448A      0.900948   449A      0.907687  
     450A      0.912268   451A      0.913300   452A      0.918535  
     453A      0.920357   454A      0.922488   455A      0.925391  
     456A      0.928501   457A      0.931178   458A      0.935641  
     459A      0.938179   460A      0.940507   461A      0.942862  
     462A      0.944318   463A      0.946203   464A      0.947739  
     465A      0.950039   466A      0.957666   467A      0.964203  
     468A      0.965325   469A      0.968796   470A      0.973251  
     471A      0.976997   472A      0.980032   473A      0.981311  
     474A      0.988186   475A      0.990207   476A      0.994925  
     477A      0.999004   478A      1.000498   479A      1.006495  
     480A      1.010420   481A      1.013582   482A      1.017397  
     483A      1.026407   484A      1.027818   485A      1.034613  
     486A      1.037419   487A      1.042813   488A      1.045516  
     489A      1.051157   490A      1.054956   491A      1.061049  
     492A      1.062314   493A      1.065152   494A      1.067434  
     495A      1.073539   496A      1.074936   497A      1.082063  
     498A      1.086105   499A      1.088588   500A      1.094407  
     501A      1.100671   502A      1.104353   503A      1.108424  
     504A      1.108837   505A      1.124578   506A      1.129301  
     507A      1.135522   508A      1.136817   509A      1.139011  
     510A      1.144248   511A      1.148839   512A      1.149835  
     513A      1.153138   514A      1.157972   515A      1.162468  
     516A      1.166901   517A      1.171264   518A      1.177081  
     519A      1.179216   520A      1.185598   521A      1.187057  
     522A      1.188528   523A      1.190143   524A      1.194299  
     525A      1.200840   526A      1.206632   527A      1.211087  
     528A      1.213006   529A      1.216453   530A      1.218702  
     531A      1.224466   532A      1.225627   533A      1.235274  
     534A      1.237459   535A      1.240537   536A      1.246102  
     537A      1.251153   538A      1.251955   539A      1.254696  
     540A      1.257706   541A      1.260858   542A      1.266027  
     543A      1.272478   544A      1.276140   545A      1.278296  
     546A      1.282384   547A      1.285798   548A      1.287738  
     549A      1.293289   550A      1.303247   551A      1.305272  
     552A      1.318507   553A      1.320083   554A      1.323114  
     555A      1.326962   556A      1.337925   557A      1.341858  
     558A      1.343587   559A      1.354148   560A      1.354385  
     561A      1.358367   562A      1.363357   563A      1.372559  
     564A      1.381097   565A      1.387572   566A      1.394160  
     567A      1.399288   568A      1.401887   569A      1.406618  
     570A      1.424255   571A      1.425578   572A      1.429951  
     573A      1.444887   574A      1.449226   575A      1.450558  
     576A      1.453194   577A      1.457130   578A      1.463023  
     579A      1.469277   580A      1.473343   581A      1.490455  
     582A      1.492230   583A      1.504835   584A      1.508033  
     585A      1.510208   586A      1.527777   587A      1.531524  
     588A      1.551235   589A      1.557697   590A      1.563169  
     591A      1.568559   592A      1.577418   593A      1.597536  
     594A      1.599980   595A      1.612892   596A      1.617396  
     597A      1.633853   598A      1.637001   599A      1.644187  
     600A      1.648647   601A      1.655327   602A      1.669286  
     603A      1.672048   604A      1.695427   605A      1.697558  
     606A      1.708840   607A      1.714492   608A      1.720349  
     609A      1.722976   610A      1.728826   611A      1.735252  
     612A      1.741543   613A      1.749424   614A      1.760217  
     615A      1.763349   616A      1.767024   617A      1.770638  
     618A      1.779626   619A      1.783193   620A      1.787086  
     621A      1.789678   622A      1.794642   623A      1.800050  
     624A      1.804522   625A      1.809281   626A      1.813736  
     627A      1.814825   628A      1.817658   629A      1.822370  
     630A      1.824552   631A      1.830204   632A      1.832643  
     633A      1.840272   634A      1.841296   635A      1.842781  
     636A      1.850848   637A      1.852409   638A      1.856218  
     639A      1.860372   640A      1.864774   641A      1.865104  
     642A      1.868801   643A      1.878213   644A      1.887201  
     645A      1.892331   646A      1.896045   647A      1.899118  
     648A      1.902962   649A      1.919764   650A      1.921959  
     651A      1.929908   652A      1.931187   653A      1.934429  
     654A      1.936399   655A      1.944892   656A      1.949632  
     657A      1.957017   658A      1.963418   659A      1.965723  
     660A      1.971635   661A      1.971769   662A      1.974435  
     663A      1.982511   664A      1.987452   665A      1.990711  
     666A      1.991494   667A      1.997498   668A      1.999497  
     669A      2.002240   670A      2.006230   671A      2.010260  
     672A      2.017345   673A      2.020246   674A      2.027989  
     675A      2.031353   676A      2.038371   677A      2.045017  
     678A      2.049821   679A      2.052793   680A      2.060332  
     681A      2.063647   682A      2.067812   683A      2.076121  
     684A      2.076262   685A      2.084565   686A      2.087036  
     687A      2.091892   688A      2.100872   689A      2.105752  
     690A      2.113932   691A      2.122727   692A      2.130284  
     693A      2.138897   694A      2.143050   695A      2.151086  
     696A      2.156840   697A      2.161861   698A      2.171580  
     699A      2.174813   700A      2.179382   701A      2.183595  
     702A      2.191706   703A      2.192776   704A      2.196246  
     705A      2.207778   706A      2.216568   707A      2.225423  
     708A      2.231710   709A      2.232599   710A      2.236310  
     711A      2.242884   712A      2.246840   713A      2.253006  
     714A      2.255454   715A      2.256879   716A      2.261068  
     717A      2.264814   718A      2.269360   719A      2.273396  
     720A      2.275839   721A      2.280241   722A      2.286390  
     723A      2.292829   724A      2.301870   725A      2.304975  
     726A      2.312541   727A      2.315416   728A      2.316857  
     729A      2.321751   730A      2.333124   731A      2.338743  
     732A      2.339767   733A      2.353651   734A      2.356069  
     735A      2.359761   736A      2.370078   737A      2.378296  
     738A      2.385705   739A      2.388572   740A      2.397816  
     741A      2.404424   742A      2.412421   743A      2.416078  
     744A      2.424292   745A      2.428340   746A      2.435212  
     747A      2.448214   748A      2.453820   749A      2.459268  
     750A      2.470692   751A      2.474134   752A      2.484369  
     753A      2.496525   754A      2.500930   755A      2.518661  
     756A      2.525057   757A      2.532378   758A      2.539128  
     759A      2.546699   760A      2.548762   761A      2.553213  
     762A      2.566483   763A      2.577213   764A      2.585243  
     765A      2.587981   766A      2.593614   767A      2.610112  
     768A      2.617146   769A      2.625556   770A      2.644250  
     771A      2.651737   772A      2.661127   773A      2.665465  
     774A      2.679671   775A      2.684528   776A      2.698854  
     777A      2.704167   778A      2.708909   779A      2.718608  
     780A      2.728923   781A      2.734401   782A      2.746628  
     783A      2.770820   784A      2.775259   785A      2.782715  
     786A      2.786855   787A      2.791946   788A      2.796902  
     789A      2.803640   790A      2.810275   791A      2.813335  
     792A      2.825966   793A      2.833095   794A      2.840941  
     795A      2.850380   796A      2.860087   797A      2.870426  
     798A      2.873998   799A      2.878206   800A      2.883075  
     801A      2.884342   802A      2.894160   803A      2.903383  
     804A      2.911339   805A      2.932794   806A      2.940144  
     807A      2.943607   808A      2.945882   809A      2.950247  
     810A      2.958530   811A      2.968040   812A      2.974739  
     813A      2.976441   814A      2.980668   815A      2.987982  
     816A      2.988351   817A      3.001829   818A      3.011173  
     819A      3.013975   820A      3.023633   821A      3.029344  
     822A      3.032339   823A      3.036865   824A      3.047030  
     825A      3.054897   826A      3.057744   827A      3.062180  
     828A      3.067540   829A      3.071249   830A      3.082861  
     831A      3.087385   832A      3.096267   833A      3.101089  
     834A      3.102410   835A      3.107869   836A      3.110673  
     837A      3.112855   838A      3.117588   839A      3.125172  
     840A      3.127847   841A      3.130720   842A      3.131084  
     843A      3.136758   844A      3.140786   845A      3.145954  
     846A      3.161330   847A      3.163480   848A      3.167458  
     849A      3.171086   850A      3.191819   851A      3.198852  
     852A      3.200334   853A      3.213162   854A      3.216911  
     855A      3.231369   856A      3.233125   857A      3.237072  
     858A      3.245469   859A      3.250360   860A      3.255135  
     861A      3.256945   862A      3.269344   863A      3.273797  
     864A      3.280800   865A      3.289000   866A      3.293947  
     867A      3.299373   868A      3.302840   869A      3.307094  
     870A      3.309271   871A      3.313050   872A      3.322424  
     873A      3.327465   874A      3.331136   875A      3.336872  
     876A      3.340804   877A      3.346372   878A      3.351864  
     879A      3.356754   880A      3.361231   881A      3.364515  
     882A      3.366037   883A      3.384428   884A      3.388046  
     885A      3.395872   886A      3.399412   887A      3.406281  
     888A      3.409129   889A      3.431644   890A      3.440529  
     891A      3.445094   892A      3.463153   893A      3.476017  
     894A      3.508547   895A      3.517337   896A      3.530112  
     897A      3.579051   898A      3.594667   899A      3.603819  
     900A      3.612084   901A      3.614959   902A      3.634834  
     903A      3.652682   904A      3.663041   905A      3.667992  
     906A      3.677768   907A      3.680725   908A      3.689562  
     909A      3.763251   910A      3.771023   911A      3.775046  
     912A      3.786965   913A      3.798836   914A      3.812464  
     915A      3.818533   916A      3.860400   917A      3.860766  
     918A      3.872476   919A      3.879554   920A      3.899913  
     921A      3.909417   922A      3.915086   923A      3.921712  
     924A      3.926863   925A      3.935718   926A      3.941343  
     927A      3.950691   928A      3.958393   929A      3.975021  
     930A      3.978926   931A      3.988259   932A      4.013244  
     933A      4.051679   934A      4.055975   935A      4.069749  
     936A      4.085492   937A      4.095489   938A      4.105172  
     939A      4.122826   940A      4.127119   941A      4.138766  
     942A      4.165852   943A      4.172411   944A      4.188277  
     945A      4.191088   946A      4.203779   947A      4.209141  
     948A      4.218436   949A      4.253801   950A      4.290998  
     951A      4.360049   952A      4.368158   953A      4.389180  
     954A      4.399012   955A      4.405721   956A      4.415278  
     957A      4.425350   958A      4.428706   959A      4.430238  
     960A      4.440746   961A      4.447374   962A      4.453557  
     963A      4.516419   964A      4.547223   965A      4.552759  
     966A      4.585054   967A      4.590481   968A      4.607317  
     969A      4.630549   970A      4.678071   971A      4.710054  
     972A      4.770074   973A      4.772238   974A      4.799043  
     975A      4.907928   976A      4.940786   977A      5.007098  
     978A      5.045672   979A      5.220608   980A      5.248311  
     981A      5.264853   982A      5.281222   983A      5.296384  
     984A      5.333233   985A      5.355233   986A      5.385151  
     987A      5.416915   988A      5.618243   989A      5.684824  
     990A      5.697678   991A      5.802612   992A      5.859446  
     993A      5.879927   994A      6.396958   995A     24.775270  
     996A     24.785420   997A     24.810742   998A     24.821191  
     999A     24.838264  1000A     24.847555  1001A     24.937458  
    1002A     24.950144  1003A     25.011423  1004A     25.018989  
    1005A     25.046519  1006A     25.070496  1007A     25.072535  
    1008A     25.093798  1009A     25.100233  1010A     25.119951  
    1011A     25.126543  1012A     25.133661  1013A     25.136107  
    1014A     25.149778  1015A     25.172030  1016A     25.207237  
    1017A     25.212312  1018A     25.234128  1019A     25.244733  
    1020A     25.249362  1021A     25.256229  1022A     25.322323  
    1023A     25.330274  1024A     36.950815  1025A     36.988745  
    1026A     37.023141  1027A     37.073461  1028A     37.074303  
    1029A     37.135373  1030A     37.154719  1031A     51.767588  

    Final Occupation by Irrep:
              A 
    DOCC [   131 ]

  @DF-RHF Final Energy: -1572.36288900132718

   => Energetics <=

    Nuclear Repulsion Energy =           3696.1725451005918330
    One-Electron Energy =               -9490.8357253893591405
    Two-Electron Energy =                4222.3002912874408139
    Total Energy =                      -1572.3628890013269483

Computation Completed


Properties will be evaluated at   0.000000,   0.000000,   0.000000 [a0]

Properties computed using the SCF density matrix

  Nuclear Dipole Moment: [e a0]
     X:   -41.3028      Y:     2.5719      Z:     6.9130

  Electronic Dipole Moment: [e a0]
     X:    42.3935      Y:     0.0167      Z:    -7.4931

  Dipole Moment: [e a0]
     X:     1.0907      Y:     2.5886      Z:    -0.5801     Total:     2.8683

  Dipole Moment: [D]
     X:     2.7723      Y:     6.5795      Z:    -1.4745     Total:     7.2904


*** tstop() called on node76.bme.utexas.edu at Tue Apr 14 12:57:54 2020
Module time:
	user time   =    4419.85 seconds =      73.66 minutes
	system time =      58.72 seconds =       0.98 minutes
	total time  =        809 seconds =      13.48 minutes
Total time:
	user time   =    4419.85 seconds =      73.66 minutes
	system time =      58.72 seconds =       0.98 minutes
	total time  =        809 seconds =      13.48 minutes

*** tstart() called on node76.bme.utexas.edu
*** at Tue Apr 14 12:57:54 2020


  //>>>>>>>>>>>>>>>>>>>>>>>>>>>>>>>>>>>//
  //               DFMP2               //
  //<<<<<<<<<<<<<<<<<<<<<<<<<<<<<<<<<<<//

   => Loading Basis Set <=

    Name: (6-311++G** AUX)
    Role: RIFIT
    Keyword: DF_BASIS_MP2
    atoms 1-4, 6-9, 11, 14-19, 21-28, 30-31, 33-35, 37 entry C          line   148 file /home/bdw2292/miniconda3/envs/p4env/share/psi4/basis/aug-cc-pvtz-ri.gbs 
    atoms 5, 10, 12-13, 20, 29, 32                     entry N          line   206 file /home/bdw2292/miniconda3/envs/p4env/share/psi4/basis/aug-cc-pvtz-ri.gbs 
    atoms 36                                           entry O          line   264 file /home/bdw2292/miniconda3/envs/p4env/share/psi4/basis/aug-cc-pvtz-ri.gbs 
    atoms 38-68                                        entry H          line    30 file /home/bdw2292/miniconda3/envs/p4env/share/psi4/basis/aug-cc-pvtz-ri.gbs 

	 --------------------------------------------------------
	                          DF-MP2                         
	      2nd-Order Density-Fitted Moller-Plesset Theory     
	              RMP2 Wavefunction,   6 Threads             
	                                                         
	        Rob Parrish, Justin Turney, Andy Simmonett,      
	           Ed Hohenstein, and C. David Sherrill          
	 --------------------------------------------------------

   => Auxiliary Basis Set <=

  Basis Set: (6-311++G** AUX)
    Blend: AUG-CC-PVTZ-RI
    Number of shells: 1470
    Number of basis function: 5348
    Number of Cartesian functions: 6737
    Spherical Harmonics?: true
    Max angular momentum: 4

	 --------------------------------------------------------
	                 NBF =  1031, NAUX =  5348
	 --------------------------------------------------------
	   CLASS    FOCC     OCC    AOCC    AVIR     VIR    FVIR
	   PAIRS      37     131      94     900     900       0
	 --------------------------------------------------------

	-----------------------------------------------------------
	 ==================> DF-MP2 Energies <==================== 
	-----------------------------------------------------------
	 Reference Energy          =   -1572.3628890013271757 [Eh]
	 Singles Energy            =      -0.0000000000000000 [Eh]
	 Same-Spin Energy          =      -1.4707483285975553 [Eh]
	 Opposite-Spin Energy      =      -4.0473651613395205 [Eh]
	 Correlation Energy        =      -5.5181134899370754 [Eh]
	 Total Energy              =   -1577.8810024912643257 [Eh]
	-----------------------------------------------------------
	 ================> DF-SCS-MP2 Energies <================== 
	-----------------------------------------------------------
	 SCS Same-Spin Scale       =       0.3333333333333333 [-]
	 SCS Opposite-Spin Scale   =       1.2000000000000000 [-]
	 SCS Same-Spin Energy      =      -0.4902494428658518 [Eh]
	 SCS Opposite-Spin Energy  =      -4.8568381936074241 [Eh]
	 SCS Correlation Energy    =      -5.3470876364732760 [Eh]
	 SCS Total Energy          =   -1577.7099766378005370 [Eh]
	-----------------------------------------------------------


*** tstop() called on node76.bme.utexas.edu at Tue Apr 14 13:05:48 2020
Module time:
	user time   =    2645.99 seconds =      44.10 minutes
	system time =      16.97 seconds =       0.28 minutes
	total time  =        474 seconds =       7.90 minutes
Total time:
	user time   =    7065.85 seconds =     117.76 minutes
	system time =      75.69 seconds =       1.26 minutes
	total time  =       1283 seconds =      21.38 minutes


Properties will be evaluated at   0.000000,   0.000000,   0.000000 [a0]
OEProp: No title given, name of density matrix used for the following properties is 'SCF density'


  Wiberg Bond Indices using Orthogonal Lowdin Orbitals:

  Irrep: 1 Size: 68 x 68

                 1                   2                   3                   4                   5

    1     0.00000000000000     1.46378448323829     0.12519028521864     0.14043324769997     0.12371222862675
    2     1.46378448323829     0.00000000000000     1.40198661735877     0.12869200880248     0.12152263579527
    3     0.12519028521864     1.40198661735877     0.00000000000000     1.36129441672377     0.11849105579300
    4     0.14043324769997     0.12869200880248     1.36129441672377     0.00000000000000     1.66182685643679
    5     0.12371222862675     0.12152263579527     0.11849105579300     1.66182685643679     0.00000000000000
    6     1.46625073113189     0.13808860140771     0.13572249914954     0.15348108016576     1.62610471235424
    7     0.01460111166108     0.10283861951508     1.01987283272919     0.10410523792316     0.01389039436868
    8     0.00354539870622     0.04140606779038     0.09820446972041     0.02385065048860     0.00218603494355
    9     0.00036531564232     0.00466543770445     0.01471890269270     0.00408915964034     0.00066976638927
   10     0.00041136335654     0.00535938901371     0.00577484698573     0.00599780492240     0.00032376354838
   11     0.00085536411137     0.00332314607474     0.01795319651424     0.00676942529432     0.00042675633131
   12     0.00279337791117     0.02201250311745     0.11910055422867     0.06108105949236     0.00403327385254
   13     0.00016174682022     0.00046992431412     0.00161403955514     0.00092464241834     0.00008671027286
   14     0.00003085614105     0.00009194514584     0.00055696167436     0.00120604661378     0.00010969325058
   15     0.00001037406516     0.00002273302441     0.00006468573940     0.00014893761010     0.00001655326758
   16     0.00000197656388     0.00000552196305     0.00003577644630     0.00021202717389     0.00001140004803
   17     0.00001241954754     0.00001978005740     0.00005226875262     0.00027815131774     0.00003708683062
   18     0.00002745888074     0.00005068711197     0.00027793683951     0.00166574843446     0.00022330058575
   19     0.00017932501106     0.00024797798892     0.00206153757899     0.01062485419935     0.00062869108819
   20     0.00006022591562     0.00007044148783     0.00032802987697     0.00308332063328     0.00061179662485
   21     0.00001202941595     0.00001230148582     0.00005152298430     0.00037616017069     0.00019781964499
   22     0.00004479273639     0.00003392172787     0.00005037453638     0.00056261750311     0.00144658729245
   23     0.00047422986199     0.00032294399427     0.00040004760940     0.00646290107616     0.02211285784218
   24     0.00017708263059     0.00019798735349     0.00025313019786     0.00114864825802     0.00942348814531
   25     0.00001437516977     0.00000996606212     0.00001548025771     0.00010204869708     0.00042730061307
   26     0.00000725472002     0.00000427114005     0.00000804533147     0.00013041026710     0.00033350631745
   27     0.00000817996197     0.00000430839960     0.00001083020412     0.00015919092657     0.00043952944008
   28     0.00000437874405     0.00000166802721     0.00000222997656     0.00001657950652     0.00006133193587
   29     0.00000150338883     0.00000061761243     0.00000095409882     0.00000587181685     0.00001537823250
   30     0.00000781809390     0.00000339024369     0.00000280412870     0.00000650258519     0.00004770624516
   31     0.00000713971495     0.00000533324863     0.00000476439590     0.00001103618782     0.00006723024561
   32     0.00000177908612     0.00000127992694     0.00000102871062     0.00000318550064     0.00000949872234
   33     0.00000049638734     0.00000018865891     0.00000022651366     0.00000038110899     0.00000264779104
   34     0.00000120611551     0.00000062792889     0.00000069566638     0.00000352958432     0.00000920689028
   35     0.00000061971592     0.00000026532282     0.00000031778872     0.00000238934744     0.00000567839376
   36     0.00000192674253     0.00000266114208     0.00001309337162     0.00012412725059     0.00003572678831
   37     0.00000205007133     0.00000746016144     0.00003261614231     0.00003729207637     0.00000327727276
   38     0.88613451280190     0.07929133390565     0.01177344471773     0.00635150116903     0.01071034650825
   39     0.07738061468189     0.87044988590790     0.07296198733365     0.01178622677191     0.00395624471150
   40     0.00567475711149     0.01050497662731     0.06906640407720     0.85028839097761     0.08704361897443
   41     0.07685535420366     0.01176858253973     0.00603422160167     0.01590187004456     0.08807339146825
   42     0.00104611404333     0.01388382550146     0.01428885349243     0.00136822032511     0.00028970866672
   43     0.00004424866583     0.00027517550573     0.00143257509455     0.00031605977019     0.00007666313363
   44     0.00002430092500     0.00008129599991     0.00034714213965     0.00008969080718     0.00000769482556
   45     0.00000034531590     0.00000098375197     0.00000669183051     0.00001830488424     0.00000164983370
   46     0.00000091431459     0.00000162767598     0.00000775625507     0.00002793027591     0.00000856431564
   47     0.00013324426344     0.00022337169997     0.00222498067693     0.00854884498517     0.00066806190190
   48     0.00011456417592     0.00007698434335     0.00021648612663     0.00245729465794     0.00078360270344
   49     0.00041533914983     0.00016152490193     0.00031230562884     0.00548713840090     0.01456999664857
   50     0.00007782643345     0.00007581628510     0.00011529826686     0.00028747442905     0.00266179902499
   51     0.00000071941880     0.00000051827187     0.00000136269937     0.00001376921122     0.00002415238511
   52     0.00000129175622     0.00000065826192     0.00000118338172     0.00000956563667     0.00003971031667
   53     0.00000266722051     0.00000151885750     0.00000148632317     0.00000316303704     0.00001355570867
   54     0.00000042115839     0.00000010693508     0.00000033681924     0.00000559121176     0.00000696545119
   55     0.00001757523121     0.00000634250764     0.00000269054040     0.00000296666526     0.00002297566357
   56     0.00000015050019     0.00000008066038     0.00000007586752     0.00000075991661     0.00000179795571
   57     0.00000145270167     0.00000168888862     0.00000133814198     0.00000109738441     0.00000510215353
   58     0.00000392150782     0.00000493839978     0.00000418171259     0.00000978277358     0.00007362580622
   59     0.00000012656976     0.00000003494522     0.00000005774603     0.00000015628861     0.00000076446623
   60     0.00000007523506     0.00000002385777     0.00000005386034     0.00000007059571     0.00000023956310
   61     0.00000002997297     0.00000001332875     0.00000002115471     0.00000010248235     0.00000053073219
   62     0.00000009280818     0.00000002530624     0.00000003443980     0.00000023360104     0.00000053674073
   63     0.00000072760768     0.00000039459135     0.00000042647860     0.00000306160947     0.00000683556778
   64     0.00000011977836     0.00000003339321     0.00000004538771     0.00000043087381     0.00000091152208
   65     0.00000004427096     0.00000002339344     0.00000005373440     0.00000044781798     0.00000073967420
   66     0.00000099254364     0.00000263994435     0.00001033578288     0.00000902088372     0.00000063330648
   67     0.00000078061662     0.00000195818237     0.00001111940030     0.00000881636282     0.00000053711571
   68     0.00000023093052     0.00000074825798     0.00000401325003     0.00000829985895     0.00000057748780

                 6                   7                   8                   9                  10

    1     1.46625073113189     0.01460111166108     0.00354539870622     0.00036531564232     0.00041136335654
    2     0.13808860140771     0.10283861951508     0.04140606779038     0.00466543770445     0.00535938901371
    3     0.13572249914954     1.01987283272919     0.09820446972041     0.01471890269270     0.00577484698573
    4     0.15348108016576     0.10410523792316     0.02385065048860     0.00408915964034     0.00599780492240
    5     1.62610471235424     0.01389039436868     0.00218603494355     0.00066976638927     0.00032376354838
    6     0.00000000000000     0.00967448372375     0.00681785048591     0.00119968685395     0.00333106192697
    7     0.00967448372375     0.00000000000000     1.38862581244393     0.14641490550026     0.11228545304866
    8     0.00681785048591     1.38862581244393     0.00000000000000     1.43153072950788     0.13028655111125
    9     0.00119968685395     0.14641490550026     1.43153072950788     0.00000000000000     1.66196195986366
   10     0.00333106192697     0.11228545304866     0.13028655111125     1.66196195986366     0.00000000000000
   11     0.00083311363591     0.14156354020181     0.11335952138967     0.15248380360966     1.50809324464497
   12     0.00599488352835     1.53196092777704     0.12701167771777     0.11130301418108     0.11033552291675
   13     0.00006975990642     0.01920360758886     0.02052723059932     0.02428399151843     0.15984529249621
   14     0.00004102998508     0.00278402810122     0.00246036148024     0.00327160430014     0.01686566955537
   15     0.00000533626069     0.00049203366539     0.00146656128696     0.00094008572766     0.00315237483191
   16     0.00000365456268     0.00015487298321     0.00019456085554     0.00016889558192     0.00047835610653
   17     0.00000665256151     0.00025006371256     0.00135251396546     0.00045465555911     0.00130448150617
   18     0.00004087528183     0.00055228417314     0.00026715010471     0.00014093455049     0.00040338921745
   19     0.00020036698382     0.00575236719715     0.00322672134193     0.00152610655016     0.00430872538478
   20     0.00007554780281     0.00013621408923     0.00003057854677     0.00001796017674     0.00005912057581
   21     0.00002366614454     0.00002250170981     0.00000833007097     0.00000470860996     0.00001487895797
   22     0.00014645620541     0.00000798379253     0.00000287567638     0.00000136728319     0.00000382256631
   23     0.00200981916029     0.00006448993331     0.00001470096913     0.00000413767528     0.00000315309216
   24     0.00194686570324     0.00002642509535     0.00001562210696     0.00000248830943     0.00000281834143
   25     0.00020623433636     0.00000252891891     0.00000201755832     0.00000033177387     0.00000052150121
   26     0.00010515784079     0.00000118733450     0.00000053166354     0.00000012916970     0.00000017787562
   27     0.00009891037316     0.00000252078055     0.00000118386168     0.00000043961413     0.00000103536895
   28     0.00004739038097     0.00000064402721     0.00000021033660     0.00000004048154     0.00000005093523
   29     0.00001466397999     0.00000025098809     0.00000008069020     0.00000001712975     0.00000001992870
   30     0.00002381899713     0.00000077428358     0.00000028416340     0.00000006269351     0.00000008591129
   31     0.00003652960681     0.00000078350712     0.00000065205951     0.00000009032504     0.00000027012385
   32     0.00000719255524     0.00000015155015     0.00000005451453     0.00000001458297     0.00000002025886
   33     0.00000285869471     0.00000007160223     0.00000001577820     0.00000000700113     0.00000000677418
   34     0.00000718567552     0.00000015542843     0.00000004345838     0.00000001216684     0.00000001712535
   35     0.00000654796420     0.00000011336742     0.00000005059069     0.00000001310285     0.00000002901017
   36     0.00000662837492     0.00001101427681     0.00000979193647     0.00000436178303     0.00001289966524
   37     0.00000166526756     0.00014153263381     0.00012912435922     0.00013219139221     0.00070059634132
   38     0.08241231306497     0.00128825436192     0.00024678389435     0.00003887569488     0.00002563088333
   39     0.01172218837220     0.01613714281845     0.01464687896897     0.00113728485361     0.00039828610439
   40     0.01477722443357     0.01564860606657     0.00167266134994     0.00039870623877     0.00057900978400
   41     0.87920197238367     0.00054095990121     0.00026381039178     0.00005240011693     0.00010346947235
   42     0.00047049768989     0.07532732730375     0.87653067752839     0.08077166986546     0.01044889414218
   43     0.00004295137613     0.01168030105281     0.07506012576594     0.87548972973215     0.09027175195180
   44     0.00001118532758     0.00205693610228     0.00201220401758     0.00367811359585     0.03150967932879
   45     0.00000038849868     0.00001843878520     0.00000665066671     0.00002319903413     0.00005068242712
   46     0.00000124142080     0.00002400434069     0.00004283630541     0.00001665599493     0.00005322934307
   47     0.00021862719077     0.00443687098211     0.00099212218082     0.00040688347838     0.00078580635409
   48     0.00009605214074     0.00009045922793     0.00003096581067     0.00001045639147     0.00002170777011
   49     0.00148515999662     0.00005518598429     0.00001354510320     0.00000379384063     0.00000294526830
   50     0.00128100277088     0.00001064444217     0.00000596152709     0.00000094802706     0.00000129811418
   51     0.00000513148956     0.00000008786733     0.00000007213025     0.00000001812228     0.00000003201455
   52     0.00001041914911     0.00000049000947     0.00000016661935     0.00000006831771     0.00000016665595
   53     0.00001936145883     0.00000019404033     0.00000016347110     0.00000002129937     0.00000006345310
   54     0.00000248744674     0.00000007883691     0.00000001670929     0.00000000482581     0.00000000652036
   55     0.00003174021740     0.00000081934530     0.00000016301937     0.00000002717952     0.00000006116762
   56     0.00000957323980     0.00000008421466     0.00000001664073     0.00000000668511     0.00000000981355
   57     0.00000450912618     0.00000007918988     0.00000018320784     0.00000002157791     0.00000009261696
   58     0.00003184481147     0.00000064576107     0.00000040000636     0.00000006021321     0.00000021326942
   59     0.00000189105562     0.00000002766118     0.00000000920255     0.00000000444235     0.00000000200544
   60     0.00000026344764     0.00000001458340     0.00000000166521     0.00000000122216     0.00000000113656
   61     0.00000030340158     0.00000000289052     0.00000000134068     0.00000000056597     0.00000000077447
   62     0.00000061759740     0.00000000925460     0.00000000299963     0.00000000121449     0.00000000278037
   63     0.00000597474299     0.00000009897934     0.00000002030934     0.00000000496617     0.00000001727493
   64     0.00000506678426     0.00000004741854     0.00000000817339     0.00000000286584     0.00000000465225
   65     0.00000044720399     0.00000000931939     0.00000000952867     0.00000000410650     0.00000000209292
   66     0.00000094496422     0.00004591379529     0.00010419385021     0.00004253892995     0.00030443270306
   67     0.00000044305915     0.00004118098929     0.00008059704823     0.00003945300306     0.00023763192410
   68     0.00000017741176     0.00001414387830     0.00000430110480     0.00000423834941     0.00002979729053

                11                  12                  13                  14                  15

    1     0.00085536411137     0.00279337791117     0.00016174682022     0.00003085614105     0.00001037406516
    2     0.00332314607474     0.02201250311745     0.00046992431412     0.00009194514584     0.00002273302441
    3     0.01795319651424     0.11910055422867     0.00161403955514     0.00055696167436     0.00006468573940
    4     0.00676942529432     0.06108105949236     0.00092464241834     0.00120604661378     0.00014893761010
    5     0.00042675633131     0.00403327385254     0.00008671027286     0.00010969325058     0.00001655326758
    6     0.00083311363591     0.00599488352835     0.00006975990642     0.00004102998508     0.00000533626069
    7     0.14156354020181     1.53196092777704     0.01920360758886     0.00278402810122     0.00049203366539
    8     0.11335952138967     0.12701167771777     0.02052723059932     0.00246036148024     0.00146656128696
    9     0.15248380360966     0.11130301418108     0.02428399151843     0.00327160430014     0.00094008572766
   10     1.50809324464497     0.11033552291675     0.15984529249621     0.01686566955537     0.00315237483191
   11     0.00000000000000     1.53278020635300     1.27084040986932     0.08216601519257     0.01765172122915
   12     1.53278020635300     0.00000000000000     0.14150656668259     0.02866335018465     0.00334408596309
   13     1.27084040986932     0.14150656668259     0.00000000000000     1.12508592675923     0.10525929511227
   14     0.08216601519257     0.02866335018465     1.12508592675923     0.00000000000000     1.31603012454795
   15     0.01765172122915     0.00334408596309     0.10525929511227     1.31603012454795     0.00000000000000
   16     0.00238429489919     0.00108457757440     0.01428867314100     0.12538371417294     1.44220972357018
   17     0.00409215928075     0.00252347207638     0.01194145838291     0.11920361457639     0.12407244408584
   18     0.00238079694172     0.00478236223475     0.01307124896506     0.12192677225518     0.12028138368080
   19     0.02812662230373     0.05604081223861     0.11005160668930     1.40252725748017     0.12009408220019
   20     0.00033962954127     0.00113371788834     0.00130987328043     0.01496525772987     0.01114717507787
   21     0.00005967114103     0.00013350810716     0.00029825828451     0.00272633629033     0.00569562828412
   22     0.00001114238083     0.00002375599742     0.00005454201837     0.00034806095027     0.00029055471118
   23     0.00001450075072     0.00011161464128     0.00001273796268     0.00011367024168     0.00032384277875
   24     0.00000207863008     0.00001197229214     0.00000265681319     0.00001267407346     0.00003572750717
   25     0.00000072220410     0.00000285990940     0.00000165159555     0.00002537639522     0.00018832647885
   26     0.00000049314258     0.00000078579596     0.00000224309944     0.00001779304160     0.00003818200544
   27     0.00000302479042     0.00000412194352     0.00001293163111     0.00010044209410     0.00034671310912
   28     0.00000014296237     0.00000041851322     0.00000024472108     0.00000237472704     0.00001348126878
   29     0.00000005454335     0.00000015003889     0.00000010022125     0.00000150099957     0.00001210242375
   30     0.00000007443775     0.00000034609304     0.00000004217115     0.00000037403411     0.00000164411471
   31     0.00000014378558     0.00000050519536     0.00000005321238     0.00000039351232     0.00000148168200
   32     0.00000004842349     0.00000019412769     0.00000001892104     0.00000027953497     0.00000020398482
   33     0.00000002374232     0.00000005006242     0.00000000587043     0.00000006868492     0.00000013456150
   34     0.00000004119970     0.00000012262363     0.00000003228025     0.00000033535271     0.00000108166716
   35     0.00000003024521     0.00000009344844     0.00000003315116     0.00000031399774     0.00000175329317
   36     0.00004037842746     0.00005411192530     0.00015672805546     0.00105011824793     0.00334453714479
   37     0.00344675643563     0.00077446079992     0.03749343641381     0.09656953129085     1.05954383215072
   38     0.00008929369361     0.00031296397616     0.00001558680809     0.00000682877646     0.00000075792727
   39     0.00029216374542     0.00109536509816     0.00006956140033     0.00002540671764     0.00000422233661
   40     0.00268371796789     0.02444666335092     0.00042054349947     0.00112901408295     0.00015639695449
   41     0.00004308506290     0.00024945016039     0.00000552318338     0.00000381834233     0.00000054455365
   42     0.00575925187576     0.01074618057314     0.00104321575599     0.00011777881203     0.00006647164498
   43     0.01584062375342     0.00401642967728     0.00136157729821     0.00038689452508     0.00006246865831
   44     0.07389398581699     0.01148747914933     0.93421027362330     0.05931653143045     0.01480530348555
   45     0.00036737265809     0.00005928011156     0.00115290600768     0.01144959580237     0.07487659870255
   46     0.00014652712905     0.00016248763633     0.00051940050746     0.00522896635614     0.01052188487304
   47     0.00980015869425     0.04011705724253     0.01568042161329     0.07349619317095     0.00971272785497
   48     0.00012039437405     0.00069211578285     0.00017614348651     0.00204832296656     0.00115102724380
   49     0.00001047720233     0.00006320044846     0.00000490127124     0.00003795300566     0.00006950769824
   50     0.00000068723545     0.00000289490936     0.00000041797980     0.00000130850465     0.00000124960380
   51     0.00000006714929     0.00000012821675     0.00000052380684     0.00000280242546     0.00000331398744
   52     0.00000067592912     0.00000068669708     0.00000269082834     0.00001748935641     0.00001863732260
   53     0.00000002376477     0.00000012353010     0.00000003980490     0.00000032060403     0.00000166563418
   54     0.00000001223480     0.00000006318823     0.00000004064998     0.00000031963214     0.00000098000885
   55     0.00000003869324     0.00000014263847     0.00000001512916     0.00000003559684     0.00000005492323
   56     0.00000001383451     0.00000003260379     0.00000001183087     0.00000012201783     0.00000050411561
   57     0.00000001628277     0.00000006001581     0.00000001937655     0.00000003089601     0.00000010476965
   58     0.00000014707234     0.00000094981412     0.00000007277880     0.00000036045937     0.00000178865294
   59     0.00000000776717     0.00000002420965     0.00000000275978     0.00000001076123     0.00000003718406
   60     0.00000000270874     0.00000000775090     0.00000000159210     0.00000001034575     0.00000000946853
   61     0.00000000194484     0.00000000605166     0.00000000079510     0.00000000567957     0.00000002166322
   62     0.00000000779550     0.00000000658495     0.00000000281587     0.00000002925032     0.00000009821852
   63     0.00000001523977     0.00000007864468     0.00000006040019     0.00000036556131     0.00000143378212
   64     0.00000000700555     0.00000002373630     0.00000001100468     0.00000011152886     0.00000050203860
   65     0.00000000480257     0.00000001196691     0.00000000830918     0.00000005266685     0.00000017727254
   66     0.00089498753407     0.00029038311143     0.01039090181149     0.01640813152129     0.05714967873104
   67     0.00069574911580     0.00025305946653     0.00873673093125     0.01652335492656     0.05889875396308
   68     0.00022586655159     0.00006139906172     0.00198062850577     0.00896174469492     0.05986528030497

                16                  17                  18                  19                  20

    1     0.00000197656388     0.00001241954754     0.00002745888074     0.00017932501106     0.00006022591562
    2     0.00000552196305     0.00001978005740     0.00005068711197     0.00024797798892     0.00007044148783
    3     0.00003577644630     0.00005226875262     0.00027793683951     0.00206153757899     0.00032802987697
    4     0.00021202717389     0.00027815131774     0.00166574843446     0.01062485419935     0.00308332063328
    5     0.00001140004803     0.00003708683062     0.00022330058575     0.00062869108819     0.00061179662485
    6     0.00000365456268     0.00000665256151     0.00004087528183     0.00020036698382     0.00007554780281
    7     0.00015487298321     0.00025006371256     0.00055228417314     0.00575236719715     0.00013621408923
    8     0.00019456085554     0.00135251396546     0.00026715010471     0.00322672134193     0.00003057854677
    9     0.00016889558192     0.00045465555911     0.00014093455049     0.00152610655016     0.00001796017674
   10     0.00047835610653     0.00130448150617     0.00040338921745     0.00430872538478     0.00005912057581
   11     0.00238429489919     0.00409215928075     0.00238079694172     0.02812662230373     0.00033962954127
   12     0.00108457757440     0.00252347207638     0.00478236223475     0.05604081223861     0.00113371788834
   13     0.01428867314100     0.01194145838291     0.01307124896506     0.11005160668930     0.00130987328043
   14     0.12538371417294     0.11920361457639     0.12192677225518     1.40252725748017     0.01496525772987
   15     1.44220972357018     0.12407244408584     0.12028138368080     0.12009408220019     0.01114717507787
   16     0.00000000000000     1.44401220383843     0.13309810787998     0.12578244054434     0.01363942430345
   17     1.44401220383843     0.00000000000000     1.40061493343948     0.12230582563123     0.10422775749085
   18     0.13309810787998     1.40061493343948     0.00000000000000     1.36282172740308     1.12412237304315
   19     0.12578244054434     0.12230582563123     1.36282172740308     0.00000000000000     0.12386776715435
   20     0.01363942430345     0.10422775749085     1.12412237304315     0.12386776715435     0.00000000000000
   21     0.00272790988347     0.03079061471897     0.08595626772224     0.02245011052282     1.31433977784682
   22     0.00034872070597     0.00316604982554     0.01453329614886     0.00198626963174     0.10201796635156
   23     0.00014010724216     0.00115287391130     0.00362112152499     0.00115615301082     0.04153146624843
   24     0.00002052692990     0.00016168904249     0.00037740349440     0.00012505758491     0.00350732487183
   25     0.00002688731189     0.00029641961042     0.00037700467563     0.00025341596129     0.00349070224392
   26     0.00002051927467     0.00013208790651     0.00049479861750     0.00010457575957     0.00249232178323
   27     0.00010036926726     0.00092955001351     0.00228096350611     0.00071430226417     0.01784556044382
   28     0.00000258787603     0.00002481210842     0.00003624168788     0.00001926807360     0.00027601735841
   29     0.00000153987386     0.00001747321525     0.00001737670829     0.00001485855804     0.00016189410506
   30     0.00000041849228     0.00000314975108     0.00000467301160     0.00000259552206     0.00003254467627
   31     0.00000048189607     0.00000484881031     0.00000728836882     0.00000407895243     0.00003395908473
   32     0.00000013053740     0.00000090186175     0.00000217796661     0.00000080648258     0.00000727498064
   33     0.00000009722861     0.00000024341377     0.00000085382223     0.00000030062121     0.00000157435706
   34     0.00000038442451     0.00000337915184     0.00000713798535     0.00000302114664     0.00002950955911
   35     0.00000045569322     0.00000383185932     0.00000468670010     0.00000297058296     0.00002878807036
   36     0.00343400527629     0.04802606055607     0.03213199845398     0.00520805847541     0.19233024266534
   37     0.11525566600556     0.01433667427789     0.00739440760538     0.01405922849578     0.00071308424588
   38     0.00000031704348     0.00000061903816     0.00000481750727     0.00002240000276     0.00000553737378
   39     0.00000132277974     0.00000215875414     0.00000606697898     0.00003836856554     0.00000711035253
   40     0.00018756846609     0.00022838069291     0.00170706312474     0.00860179462001     0.00217340202085
   41     0.00000034926360     0.00000066201111     0.00000273841637     0.00001436561068     0.00000594155203
   42     0.00000965017277     0.00004879150069     0.00003021366747     0.00020799446716     0.00000705499651
   43     0.00001569111715     0.00001106763613     0.00001480732653     0.00010313086062     0.00000167980029
   44     0.00150291312082     0.00103685482372     0.00128384827599     0.01033598548192     0.00024029073166
   45     0.87160165574517     0.07889594876069     0.01176703503167     0.00569373924867     0.00103458403718
   46     0.07707640434640     0.86047089416122     0.07574220912867     0.01128308279771     0.01464097538319
   47     0.00572992677794     0.01022259562751     0.07204133360258     0.83727858632293     0.02426590847891
   48     0.00136642029090     0.01022184309742     0.06271450703519     0.02142207373752     0.93703384056627
   49     0.00005040417701     0.00031477021222     0.00136974334409     0.00057192004880     0.01544284868055
   50     0.00000207845725     0.00001312926594     0.00002940542179     0.00000843642649     0.00019729870141
   51     0.00000285011244     0.00001745600716     0.00006625272920     0.00001710291333     0.00028717162907
   52     0.00002800362064     0.00017605452540     0.00026589199862     0.00007224983408     0.00160990518966
   53     0.00000046705357     0.00000370536115     0.00000630494549     0.00000292968418     0.00004181173456
   54     0.00000047277743     0.00000291844587     0.00001016287147     0.00000265756867     0.00005682243092
   55     0.00000006410491     0.00000035852100     0.00000068754092     0.00000025818028     0.00000501439225
   56     0.00000010759523     0.00000085377768     0.00000113543078     0.00000077033943     0.00000673495652
   57     0.00000003116036     0.00000032686805     0.00000041117155     0.00000023220674     0.00000208623797
   58     0.00000060240876     0.00000275150081     0.00000661233049     0.00000253794209     0.00005566949689
   59     0.00000002153318     0.00000007923445     0.00000021092666     0.00000008252000     0.00000032800136
   60     0.00000000452672     0.00000002960027     0.00000006797130     0.00000004312620     0.00000035999263
   61     0.00000002714294     0.00000003685394     0.00000009646898     0.00000004574902     0.00000034213890
   62     0.00000003857571     0.00000019121515     0.00000045982051     0.00000021851188     0.00000198155295
   63     0.00000055758816     0.00000371417309     0.00000690863146     0.00000423911063     0.00003092627373
   64     0.00000013096725     0.00000071995287     0.00000199403372     0.00000103121239     0.00000683464191
   65     0.00000007650221     0.00000041514597     0.00000092927340     0.00000050232185     0.00000724756482
   66     0.01467432429005     0.00124570496387     0.00273435931661     0.00122880578001     0.00031970242723
   67     0.01545848786658     0.00126834829065     0.00301750631999     0.00123250222587     0.00036563478745
   68     0.02378934894652     0.00190384967022     0.00055690976865     0.00110072857008     0.00008370174944

                21                  22                  23                  24                  25

    1     0.00001202941595     0.00004479273639     0.00047422986199     0.00017708263059     0.00001437516977
    2     0.00001230148582     0.00003392172787     0.00032294399427     0.00019798735349     0.00000996606212
    3     0.00005152298430     0.00005037453638     0.00040004760940     0.00025313019786     0.00001548025771
    4     0.00037616017069     0.00056261750311     0.00646290107616     0.00114864825802     0.00010204869708
    5     0.00019781964499     0.00144658729245     0.02211285784218     0.00942348814531     0.00042730061307
    6     0.00002366614454     0.00014645620541     0.00200981916029     0.00194686570324     0.00020623433636
    7     0.00002250170981     0.00000798379253     0.00006448993331     0.00002642509535     0.00000252891891
    8     0.00000833007097     0.00000287567638     0.00001470096913     0.00001562210696     0.00000201755832
    9     0.00000470860996     0.00000136728319     0.00000413767528     0.00000248830943     0.00000033177387
   10     0.00001487895797     0.00000382256631     0.00000315309216     0.00000281834143     0.00000052150121
   11     0.00005967114103     0.00001114238083     0.00001450075072     0.00000207863008     0.00000072220410
   12     0.00013350810716     0.00002375599742     0.00011161464128     0.00001197229214     0.00000285990940
   13     0.00029825828451     0.00005454201837     0.00001273796268     0.00000265681319     0.00000165159555
   14     0.00272633629033     0.00034806095027     0.00011367024168     0.00001267407346     0.00002537639522
   15     0.00569562828412     0.00029055471118     0.00032384277875     0.00003572750717     0.00018832647885
   16     0.00272790988347     0.00034872070597     0.00014010724216     0.00002052692990     0.00002688731189
   17     0.03079061471897     0.00316604982554     0.00115287391130     0.00016168904249     0.00029641961042
   18     0.08595626772224     0.01453329614886     0.00362112152499     0.00037740349440     0.00037700467563
   19     0.02245011052282     0.00198626963174     0.00115615301082     0.00012505758491     0.00025341596129
   20     1.31433977784682     0.10201796635156     0.04153146624843     0.00350732487183     0.00349070224392
   21     0.00000000000000     0.97424886890989     0.10346592642924     0.01441999542778     0.01125216147396
   22     0.97424886890989     0.00000000000000     1.40055474087656     0.12704563383986     0.12400042587111
   23     0.10346592642924     1.40055474087656     0.00000000000000     1.45589814130061     0.12630825009547
   24     0.01441999542778     0.12704563383986     1.45589814130061     0.00000000000000     1.40337622754604
   25     0.01125216147396     0.12400042587111     0.12630825009547     1.40337622754604     0.00000000000000
   26     0.01481090716536     0.12636670981933     0.12961984748461     0.12591659889948     1.39543217056171
   27     0.11145984576226     1.38343212159017     0.12442078977521     0.13048844942894     0.12710891407990
   28     0.00073575750044     0.00903993289115     0.01445880136869     0.10946388070911     1.01607111280762
   29     0.00039981154328     0.00435295725395     0.00197658460779     0.02162844509878     0.08723002382907
   30     0.00009029662415     0.00103481540798     0.00202742399779     0.01608489456623     0.02136064313218
   31     0.00007918926055     0.00180572214034     0.00978323990763     0.02348430839266     0.02009108148691
   32     0.00005147043250     0.00062390760342     0.00107355601331     0.00254981842133     0.00405958476509
   33     0.00000848585355     0.00010426036892     0.00025444320808     0.00065736432663     0.00110375855072
   34     0.00007358540895     0.00149377251613     0.00196593983577     0.00467178772733     0.01905657991894
   35     0.00009067452545     0.00098936808115     0.00089585300152     0.00449391965932     0.02060636952516
   36     2.17055447009426     0.13596079096611     0.02552625404317     0.00330620063839     0.00646551237409
[...]
   15     0.00000050411561     0.00000010476965     0.00000178865294     0.00000003718406     0.00000000946853
   16     0.00000010759523     0.00000003116036     0.00000060240876     0.00000002153318     0.00000000452672
   17     0.00000085377768     0.00000032686805     0.00000275150081     0.00000007923445     0.00000002960027
   18     0.00000113543078     0.00000041117155     0.00000661233049     0.00000021092666     0.00000006797130
   19     0.00000077033943     0.00000023220674     0.00000253794209     0.00000008252000     0.00000004312620
   20     0.00000673495652     0.00000208623797     0.00005566949689     0.00000032800136     0.00000035999263
   21     0.00002571935382     0.00000681996992     0.00008603328753     0.00000191838118     0.00000089035326
   22     0.00023189880811     0.00011150481983     0.00202661473146     0.00001057999249     0.00001271040798
   23     0.00033636198961     0.00027051041154     0.00865981240078     0.00002221981307     0.00003440963313
   24     0.00085258024396     0.00085076688813     0.02108097939472     0.00008303362257     0.00006960789641
   25     0.00137142908165     0.00072283671124     0.01316753298423     0.00016960521305     0.00009617608997
   26     0.00050522558954     0.00023749993604     0.00428999221693     0.00008342877098     0.00004315038193
   27     0.00016915565346     0.00010864061373     0.00210530720390     0.00002287267363     0.00002459790992
   28     0.01201351210532     0.00106812027099     0.00626680290441     0.00063858520777     0.00011626851108
   29     0.06409920586629     0.01128829875945     0.01177429122687     0.00296946890747     0.00062653905573
   30     0.79316946340902     0.05806236686093     0.04386944794606     0.01248332959841     0.00384066544696
   31     0.04837280169587     0.86186789468649     0.79034694357278     0.01629885764133     0.01960277075936
   32     0.01330887292732     0.05410765275156     0.05784833341568     0.06833166543498     0.06299319022342
   33     0.01435921607615     0.02134819128809     0.01195146234977     0.91047499684723     0.91985052245572
   34     0.00780746100590     0.01388382687233     0.01962325180412     0.01627248404811     0.01260386088846
   35     0.02108588420046     0.00214241819751     0.00711951145380     0.01235963685282     0.00167928357699
   36     0.00001386629574     0.00000434185141     0.00003567197609     0.00000054309289     0.00000058019435
   37     0.00000003790940     0.00000000698637     0.00000011807018     0.00000000872172     0.00000000165667
   38     0.00000003681981     0.00000005088544     0.00000017861960     0.00000000791585     0.00000000706197
   39     0.00000001464459     0.00000009913401     0.00000055683083     0.00000000239624     0.00000000289683
   40     0.00000015243472     0.00000018862770     0.00000177921056     0.00000004244881     0.00000001063289
   41     0.00001134706637     0.00000180802995     0.00001365337277     0.00000076096746     0.00000015594213
   42     0.00000000123659     0.00000000567514     0.00000002015955     0.00000000087805     0.00000000034876
   43     0.00000000081903     0.00000000067685     0.00000002372331     0.00000000025969     0.00000000007407
   44     0.00000000190415     0.00000000116444     0.00000000806286     0.00000000073626     0.00000000029523
   45     0.00000000389148     0.00000000168956     0.00000006968999     0.00000000189072     0.00000000025129
   46     0.00000014071247     0.00000004687045     0.00000088941741     0.00000000892628     0.00000000567086
   47     0.00000022288160     0.00000004963703     0.00000055919434     0.00000002224489     0.00000001891598
   48     0.00000115823224     0.00000082000399     0.00002024245008     0.00000028390263     0.00000018559719
   49     0.00005222860163     0.00002682049647     0.00070348374647     0.00000219618347     0.00000368030762
   50     0.00012855332924     0.00017773803680     0.00376171713000     0.00003698208624     0.00001640351277
   51     0.00011995965405     0.00002018361952     0.00031013752193     0.00003696073899     0.00000847167305
   52     0.00001220382183     0.00000405242525     0.00005971666710     0.00000213747501     0.00000115238067
   53     0.00116661000468     0.00010491618509     0.00088075888862     0.00006590659751     0.00002064159098
   54     0.00054712333759     0.00031042358670     0.00037245502999     0.00006475125901     0.00002094433909
   55     0.02140286938200     0.00573849651594     0.00830509995111     0.00047894139114     0.00012769944616
   56     0.00000000000000     0.00924982701158     0.01971302926442     0.00704672837070     0.00153896970859
   57     0.00924982701158     0.00000000000000     0.01998579772780     0.00300902796102     0.00677500330396
   58     0.01971302926442     0.01998579772780     0.00000000000000     0.00093554323035     0.00102332576289
   59     0.00704672837070     0.00300902796102     0.00093554323035     0.00000000000000     0.03487525740061
   60     0.00153896970859     0.00677500330396     0.00102332576289     0.03487525740061     0.00000000000000
   61     0.00059396207246     0.00114862249081     0.00066407711417     0.03488506267756     0.03773100618149
   62     0.00041198940895     0.00120563268510     0.00093063480587     0.00299427411209     0.00114723617491
   63     0.00083913419843     0.00094485959748     0.00513711407736     0.00092959820300     0.00066988212379
   64     0.00537103362131     0.00040890451608     0.00083192029088     0.00687648892406     0.00058263864165
   65     0.00081590686101     0.00040626911938     0.00038591367331     0.00045692164666     0.00022779001370
   66     0.00000001972398     0.00000000342902     0.00000009168863     0.00000000169757     0.00000000041265
   67     0.00000002209431     0.00000000376975     0.00000005266760     0.00000000114291     0.00000000034600
   68     0.00000000130480     0.00000000033589     0.00000000733292     0.00000000035974     0.00000000010680

                61                  62                  63                  64                  65

    1     0.00000002997297     0.00000009280818     0.00000072760768     0.00000011977836     0.00000004427096
    2     0.00000001332875     0.00000002530624     0.00000039459135     0.00000003339321     0.00000002339344
    3     0.00000002115471     0.00000003443980     0.00000042647860     0.00000004538771     0.00000005373440
    4     0.00000010248235     0.00000023360104     0.00000306160947     0.00000043087381     0.00000044781798
    5     0.00000053073219     0.00000053674073     0.00000683556778     0.00000091152208     0.00000073967420
    6     0.00000030340158     0.00000061759740     0.00000597474299     0.00000506678426     0.00000044720399
    7     0.00000000289052     0.00000000925460     0.00000009897934     0.00000004741854     0.00000000931939
    8     0.00000000134068     0.00000000299963     0.00000002030934     0.00000000817339     0.00000000952867
    9     0.00000000056597     0.00000000121449     0.00000000496617     0.00000000286584     0.00000000410650
   10     0.00000000077447     0.00000000278037     0.00000001727493     0.00000000465225     0.00000000209292
   11     0.00000000194484     0.00000000779550     0.00000001523977     0.00000000700555     0.00000000480257
   12     0.00000000605166     0.00000000658495     0.00000007864468     0.00000002373630     0.00000001196691
   13     0.00000000079510     0.00000000281587     0.00000006040019     0.00000001100468     0.00000000830918
   14     0.00000000567957     0.00000002925032     0.00000036556131     0.00000011152886     0.00000005266685
   15     0.00000002166322     0.00000009821852     0.00000143378212     0.00000050203860     0.00000017727254
   16     0.00000002714294     0.00000003857571     0.00000055758816     0.00000013096725     0.00000007650221
   17     0.00000003685394     0.00000019121515     0.00000371417309     0.00000071995287     0.00000041514597
   18     0.00000009646898     0.00000045982051     0.00000690863146     0.00000199403372     0.00000092927340
   19     0.00000004574902     0.00000021851188     0.00000423911063     0.00000103121239     0.00000050232185
   20     0.00000034213890     0.00000198155295     0.00003092627373     0.00000683464191     0.00000724756482
   21     0.00000095522570     0.00000711865527     0.00007560782775     0.00002856548762     0.00001867507151
   22     0.00001033974653     0.00009127062939     0.00165079118475     0.00021793756049     0.00017540949654
   23     0.00002575411500     0.00010941738414     0.00195905504995     0.00013854764371     0.00015518147224
   24     0.00004323744362     0.00020595888702     0.00374389116981     0.00048981604852     0.00048884901716
   25     0.00009574689788     0.00068427941191     0.01233672264354     0.00140341947263     0.00570808294418
   26     0.00006955927269     0.00085417971613     0.02179250012022     0.00084953320256     0.00609711308893
   27     0.00003298840171     0.00026201543456     0.00814766004556     0.00034947845034     0.00043254259075
   28     0.00011517310775     0.00106597665521     0.00620391242956     0.01192569453328     0.02120202581652
   29     0.00061990199854     0.01124865018489     0.01187339801604     0.06402311292751     0.05388838064025
   30     0.00169629425397     0.00217305366686     0.00720076033427     0.02111433480700     0.01280982435998
   31     0.01262581245571     0.01385540002076     0.01980309652818     0.00776704562950     0.00228631904451
   32     0.06304216367434     0.05423379938845     0.05778013480751     0.01319222259887     0.01116167401032
   33     0.91987352065167     0.02118225766882     0.01192911505589     0.01406687373698     0.00145694809660
   34     0.01938529794610     0.86308153049270     0.79423296378464     0.04844741538130     0.05712177750719
   35     0.00378372148890     0.05805222479554     0.04424659600628     0.79682646757660     0.86689803549871
   36     0.00000057432826     0.00000255044637     0.00003915099448     0.00001224235124     0.00000787812361
   37     0.00000000822345     0.00000001073033     0.00000010432644     0.00000006431758     0.00000001991201
   38     0.00000000429794     0.00000000302746     0.00000003026549     0.00000001150790     0.00000000675754
   39     0.00000000119436     0.00000000812928     0.00000003364118     0.00000000890374     0.00000000858241
   40     0.00000002738207     0.00000010960601     0.00000118723561     0.00000028889448     0.00000018216474
   41     0.00000018606908     0.00000011290298     0.00000416125986     0.00000493243289     0.00000019793750
   42     0.00000000046586     0.00000000049175     0.00000000385219     0.00000000117213     0.00000000071385
   43     0.00000000010659     0.00000000028431     0.00000000092687     0.00000000011309     0.00000000025410
   44     0.00000000009620     0.00000000049256     0.00000000604957     0.00000000148975     0.00000000137767
   45     0.00000000090988     0.00000000604625     0.00000004242177     0.00000001441607     0.00000000807103
   46     0.00000000455250     0.00000001975371     0.00000140274994     0.00000009153484     0.00000011146811
   47     0.00000000767950     0.00000007581295     0.00000059728998     0.00000018304271     0.00000009272466
   48     0.00000009180158     0.00000073450028     0.00001295141544     0.00000108363556     0.00000294589175
   49     0.00000117310210     0.00000293986006     0.00005324197115     0.00000911996885     0.00001910811816
   50     0.00000745474159     0.00002041197315     0.00023209674934     0.00012182479059     0.00007441677384
   51     0.00001824815008     0.00019445368260     0.00393943379568     0.00011385301675     0.00272605104983
   52     0.00000273804038     0.00002512179104     0.00065234298974     0.00004423407787     0.00002732265340
   53     0.00002094894488     0.00031267222683     0.00035967033779     0.00051335265691     0.00107802986480
   54     0.00001998305052     0.00010309357366     0.00092381713443     0.00116734376425     0.00643245764057
   55     0.00022601635760     0.00038466572644     0.00040717197219     0.00081854152480     0.00117094798544
   56     0.00059396207246     0.00041198940895     0.00083913419843     0.00537103362131     0.00081590686101
   57     0.00114862249081     0.00120563268510     0.00094485959748     0.00040890451608     0.00040626911938
   58     0.00066407711417     0.00093063480587     0.00513711407736     0.00083192029088     0.00038591367331
   59     0.03488506267756     0.00299427411209     0.00092959820300     0.00687648892406     0.00045692164666
   60     0.03773100618149     0.00114723617491     0.00066988212379     0.00058263864165     0.00022779001370
   61     0.00000000000000     0.00666958934719     0.00101827798002     0.00149568346632     0.00012025093006
   62     0.00666958934719     0.00000000000000     0.02022261008722     0.00914421950161     0.00561342849880
   63     0.00101827798002     0.02022261008722     0.00000000000000     0.01918479973665     0.00814204178997
   64     0.00149568346632     0.00914421950161     0.01918479973665     0.00000000000000     0.02043904508398
   65     0.00012025093006     0.00561342849880     0.00814204178997     0.02043904508398     0.00000000000000
   66     0.00000000086417     0.00000000512713     0.00000008964121     0.00000002467568     0.00000000397987
   67     0.00000000048935     0.00000000391485     0.00000005372004     0.00000002129818     0.00000000917822
   68     0.00000000008697     0.00000000058272     0.00000000873703     0.00000000094243     0.00000000085443

                66                  67                  68

    1     0.00000099254364     0.00000078061662     0.00000023093052
    2     0.00000263994435     0.00000195818237     0.00000074825798
    3     0.00001033578288     0.00001111940030     0.00000401325003
    4     0.00000902088372     0.00000881636282     0.00000829985895
    5     0.00000063330648     0.00000053711571     0.00000057748780
    6     0.00000094496422     0.00000044305915     0.00000017741176
    7     0.00004591379529     0.00004118098929     0.00001414387830
    8     0.00010419385021     0.00008059704823     0.00000430110480
    9     0.00004253892995     0.00003945300306     0.00000423834941
   10     0.00030443270306     0.00023763192410     0.00002979729053
   11     0.00089498753407     0.00069574911580     0.00022586655159
   12     0.00029038311143     0.00025305946653     0.00006139906172
   13     0.01039090181149     0.00873673093125     0.00198062850577
   14     0.01640813152129     0.01652335492656     0.00896174469492
   15     0.05714967873104     0.05889875396308     0.05986528030497
   16     0.01467432429005     0.01545848786658     0.02378934894652
   17     0.00124570496387     0.00126834829065     0.00190384967022
   18     0.00273435931661     0.00301750631999     0.00055690976865
   19     0.00122880578001     0.00123250222587     0.00110072857008
   20     0.00031970242723     0.00036563478745     0.00008370174944
   21     0.00019374399990     0.00021725925997     0.00003117336451
   22     0.00001125017668     0.00001141545695     0.00000628632589
   23     0.00001174728298     0.00001380108477     0.00000271060838
   24     0.00000150582648     0.00000142614461     0.00000034189761
   25     0.00000714577111     0.00000828541719     0.00000033068939
   26     0.00000149549451     0.00000143554110     0.00000025273022
   27     0.00001312150221     0.00001357540587     0.00000156281819
   28     0.00000049272260     0.00000057703895     0.00000005141209
   29     0.00000044550311     0.00000054636409     0.00000001433644
   30     0.00000004533980     0.00000007992636     0.00000000874194
   31     0.00000004869216     0.00000005409001     0.00000000926500
   32     0.00000001131709     0.00000000671570     0.00000000446708
   33     0.00000000567109     0.00000000356074     0.00000000066971
   34     0.00000003523177     0.00000004070266     0.00000000499406
   35     0.00000004784307     0.00000007999360     0.00000000735022
   36     0.00012287215173     0.00012173819628     0.00001618548290
   37     0.91842507742781     0.91993880733007     0.92055862661610
   38     0.00000009578708     0.00000008646947     0.00000003889170
   39     0.00000026170462     0.00000028167641     0.00000010108876
   40     0.00000716215477     0.00000706046464     0.00000791268294
   41     0.00000006116620     0.00000005575001     0.00000004100614
   42     0.00000421477870     0.00000338520532     0.00000041921537
   43     0.00000306779333     0.00000258913698     0.00000063149448
   44     0.00476709050235     0.00436449232092     0.00105922856059
   45     0.00118727247716     0.00129422598490     0.00769735777717
   46     0.00022005370020     0.00020493597282     0.00012737047552
   47     0.00018144842864     0.00018015090592     0.00034817144850
   48     0.00004473894645     0.00003799200413     0.00003810078004
   49     0.00000211145289     0.00000300589200     0.00000147646058
   50     0.00000008593737     0.00000004924312     0.00000004297300
   51     0.00000013376945     0.00000018264747     0.00000006940740
   52     0.00000081485741     0.00000083443427     0.00000052285178
   53     0.00000005872822     0.00000008141438     0.00000000844620
   54     0.00000003301754     0.00000004640819     0.00000000837527
   55     0.00000000242729     0.00000000579104     0.00000000103270
   56     0.00000001972398     0.00000002209431     0.00000000130480
   57     0.00000000342902     0.00000000376975     0.00000000033589
   58     0.00000009168863     0.00000005266760     0.00000000733292
   59     0.00000000169757     0.00000000114291     0.00000000035974
   60     0.00000000041265     0.00000000034600     0.00000000010680
   61     0.00000000086417     0.00000000048935     0.00000000008697
   62     0.00000000512713     0.00000000391485     0.00000000058272
   63     0.00000008964121     0.00000005372004     0.00000000873703
   64     0.00000002467568     0.00000002129818     0.00000000094243
   65     0.00000000397987     0.00000000917822     0.00000000085443
   66     0.00000000000000     0.03546503671609     0.03912832128603
   67     0.03546503671609     0.00000000000000     0.03907503516247
   68     0.03912832128603     0.03907503516247     0.00000000000000



  Atomic Valences: 

 #  #
 Irrep: 1
      1:  4.3911277
      2:  4.4220848
      3:  4.6029760
      4:  4.5819238
      5:  3.9186030
      6:  4.5444855
      7:  4.7428610
      8:  4.3682516
      9:  4.5224725
     10:  3.8661437
     11:  5.0008677
     12:  3.9626638
     13:  4.0343500
     14:  4.6595038
     15:  4.6236211
     16:  4.4367313
     17:  4.4019078
     18:  4.6673879
     19:  4.4257287
     20:  4.0760050
     21:  4.9936592
     22:  4.6109501
     23:  4.4642804
     24:  4.4853484
     25:  4.7195015
     26:  4.4776824
     27:  4.4367841
     28:  4.5069182
     29:  4.2489887
     30:  4.5584601
     31:  4.5711653
     32:  4.2177645
     33:  4.2805592
     34:  4.5724517
     35:  4.5586740
     36:  2.7595130
     37:  4.1496803
     38:  1.0978954
     39:  1.1010352
     40:  1.1134196
     41:  1.0916500
     42:  1.1091656
     43:  1.0860231
     44:  1.1754319
     45:  1.0999241
     46:  1.1063512
     47:  1.1397884
     48:  1.1884550
     49:  1.1187419
     50:  1.1111161
     51:  1.1076072
     52:  1.0991576
     53:  1.1088584
     54:  1.1091704
     55:  1.0985074
     56:  1.0467688
     57:  1.0756202
     58:  1.0644921
     59:  1.1329250
     60:  1.1063670
     61:  1.1060461
     62:  1.0764983
     63:  1.0667580
     64:  1.0480005
     65:  1.0880594
     66:  1.1056600
     67:  1.1078415
     68:  1.1066984


    Psi4 stopped on: Tuesday, 14 April 2020 01:05PM
    Psi4 wall time for execution: 0:21:23.77

*** Psi4 exiting successfully. Buy a developer a beer!
