
    -----------------------------------------------------------------------
          Psi4: An Open-Source Ab Initio Electronic Structure Package
                               Psi4 1.3.2 release

                         Git: Rev {HEAD} ecbda83 


    R. M. Parrish, L. A. Burns, D. G. A. Smith, A. C. Simmonett,
    A. E. DePrince III, E. G. Hohenstein, U. Bozkaya, A. Yu. Sokolov,
    R. Di Remigio, R. M. Richard, J. F. Gonthier, A. M. James,
    H. R. McAlexander, A. Kumar, M. Saitow, X. Wang, B. P. Pritchard,
    P. Verma, H. F. Schaefer III, K. Patkowski, R. A. King, E. F. Valeev,
    F. A. Evangelista, J. M. Turney, T. D. Crawford, and C. D. Sherrill,
    J. Chem. Theory Comput. 13(7) pp 3185--3197 (2017).
    (doi: 10.1021/acs.jctc.7b00174)


                         Additional Contributions by
    P. Kraus, H. Kruse, M. H. Lechner, M. C. Schieber, R. A. Shaw,
    A. Alenaizan, R. Galvelis, Z. L. Glick, S. Lehtola, and J. P. Misiewicz

    -----------------------------------------------------------------------


    Psi4 started on: Tuesday, 03 March 2020 06:01PM

    Process ID: 64723
    Host:       g2-node38.bme.utexas.edu
    PSIDATADIR: /home/bdw2292/miniconda3/envs/p4env/share/psi4
    Memory:     500.0 MiB
    Threads:    1
    
  ==> Input File <==

--------------------------------------------------------------------------
molecule { 
0 1
 C   -6.078450    3.672772   -2.141578
 C   -6.081814    3.150834   -0.841561
 C   -5.371800    1.967541   -0.554649
 C   -4.683429    1.377610   -1.644266
 N   -4.670796    1.864743   -2.892218
 C   -5.357874    2.991473   -3.128190
 C   -5.327048    1.337894    0.814476
 C   -5.970031    1.836792    1.960863
 C   -5.797546    1.090340    3.132304
 N   -5.081392   -0.027362    3.212601
 C   -4.504619   -0.425052    2.061297
 N   -4.601147    0.206090    0.891871
 N   -3.772785   -1.580239    2.138766
 C   -2.966401   -2.217767    1.159780
 C   -3.566622   -3.145353    0.261675
 C   -2.725381   -3.747686   -0.685643
 C   -1.355302   -3.479567   -0.785689
 C   -0.784976   -2.560194    0.104001
 C   -1.597769   -1.942037    1.071474
 N    0.595751   -2.175020    0.127355
 C    1.651784   -2.563391   -0.665225
 C    3.031120   -2.016618   -0.350077
 C    3.448633   -1.641846    0.937756
 C    4.738301   -1.148642    1.149240
 C    5.661398   -1.029417    0.093232
 C    5.240497   -1.436741   -1.186836
 C    3.953938   -1.933287   -1.406572
 C    7.065823   -0.468062    0.322622
 N    7.285256    0.984348    0.203590
 C    6.748678    1.872441    1.258824
 C    5.358313    2.479908    0.942991
 N    5.277557    3.172429   -0.363430
 C    5.774774    4.552447   -0.408025
 C    5.770180    2.258619   -1.421942
 C    7.154040    1.622005   -1.126916
 O    1.511807   -3.318855   -1.613991
 C   -5.050548   -3.467094    0.288866
 H   -6.619137    4.582487   -2.385233
 H   -6.644224    3.682184   -0.077876
 H   -4.115001    0.463795   -1.493511
 H   -5.327388    3.359389   -4.152558
 H   -6.570471    2.738024    1.975683
 H   -6.264343    1.412498    4.062749
 H   -3.617960   -1.970264    3.057788
 H   -3.147208   -4.456866   -1.396640
 H   -0.744575   -3.963164   -1.538189
 H   -1.193953   -1.222377    1.770373
 H    0.806784   -1.438861    0.785805
 H    2.763942   -1.742992    1.776060
 H    5.027342   -0.854717    2.158255
 H    5.924336   -1.367744   -2.032749
 H    3.640829   -2.251660   -2.397724
 H    7.398247   -0.761299    1.328961
 H    7.750960   -0.953329   -0.387938
 H    6.779182    1.397233    2.198731
 H    7.728235    3.108429    1.352267
 H    5.041283    3.440108    2.002039
 H    4.466805    1.565181    0.955343
 H    6.855298    4.587809   -0.228971
 H    5.270143    5.161111    0.350925
 H    5.565231    4.997227   -1.387641
 H    5.778832    2.818886   -2.443326
 H    4.797513    1.175614   -1.528130
 H    8.179871    2.826002   -1.159858
 H    7.463308    0.918499   -1.928248
 H   -5.648526   -2.596203   -0.015467
 H   -5.385343   -3.758303    1.294249
 H   -5.322160   -4.291200   -0.385066
}
memory 20GB
set_num_threads(6)
psi4_io.set_default_path("/scratch/bdw2292")
set freeze_core True
E, wfn = energy('mp2/6-311++G**',return_wfn=True)
oeprop(wfn,"WIBERG_LOWDIN_INDICES")
clean()
--------------------------------------------------------------------------

  Memory set to  18.626 GiB by Python driver.
  Threads set to 6 by Python driver.
    SCF Algorithm Type (re)set to DF.

*** tstart() called on g2-node38.bme.utexas.edu
*** at Tue Mar  3 18:01:48 2020

   => Loading Basis Set <=

    Name: 6-311++G**
    Role: ORBITAL
    Keyword: BASIS
    atoms 1-4, 6-9, 11, 14-19, 21-28, 30-31, 33-35, 37 entry C          line   119 file /home/bdw2292/miniconda3/envs/p4env/share/psi4/basis/6-311ppgss.gbs 
    atoms 5, 10, 12-13, 20, 29, 32                     entry N          line   140 file /home/bdw2292/miniconda3/envs/p4env/share/psi4/basis/6-311ppgss.gbs 
    atoms 36                                           entry O          line   161 file /home/bdw2292/miniconda3/envs/p4env/share/psi4/basis/6-311ppgss.gbs 
    atoms 38-68                                        entry H          line    42 file /home/bdw2292/miniconda3/envs/p4env/share/psi4/basis/6-311ppgss.gbs 


         ---------------------------------------------------------
                                   SCF
               by Justin Turney, Rob Parrish, Andy Simmonett
                          and Daniel G. A. Smith
                              RHF Reference
                        6 Threads,  19073 MiB Core
         ---------------------------------------------------------

  ==> Geometry <==

    Molecular point group: c1
    Full point group: C1

    Geometry (in Angstrom), charge = 0, multiplicity = 1:

       Center              X                  Y                   Z               Mass       
    ------------   -----------------  -----------------  -----------------  -----------------
         C           -6.030017923784     3.750331538159    -2.164551626048    12.000000000000
         C           -6.033381923784     3.228393538159    -0.864534626048    12.000000000000
         C           -5.323367923784     2.045100538159    -0.577622626048    12.000000000000
         C           -4.634996923784     1.455169538159    -1.667239626048    12.000000000000
         N           -4.622363923784     1.942302538159    -2.915191626048    14.003074004430
         C           -5.309441923784     3.069032538159    -3.151163626048    12.000000000000
         C           -5.278615923784     1.415453538159     0.791502373952    12.000000000000
         C           -5.921598923784     1.914351538159     1.937889373952    12.000000000000
         C           -5.749113923784     1.167899538159     3.109330373952    12.000000000000
         N           -5.032959923784     0.050197538159     3.189627373952    14.003074004430
         C           -4.456186923784    -0.347492461841     2.038323373952    12.000000000000
         N           -4.552714923784     0.283649538159     0.868897373952    14.003074004430
         N           -3.724352923784    -1.502679461841     2.115792373952    14.003074004430
         C           -2.917968923784    -2.140207461841     1.136806373952    12.000000000000
         C           -3.518189923784    -3.067793461841     0.238701373952    12.000000000000
         C           -2.676948923784    -3.670126461841    -0.708616626048    12.000000000000
         C           -1.306869923784    -3.402007461841    -0.808662626048    12.000000000000
         C           -0.736543923784    -2.482634461841     0.081027373952    12.000000000000
         C           -1.549336923784    -1.864477461841     1.048500373952    12.000000000000
         N            0.644183076216    -2.097460461841     0.104381373952    14.003074004430
         C            1.700216076216    -2.485831461841    -0.688198626048    12.000000000000
         C            3.079552076216    -1.939058461841    -0.373050626048    12.000000000000
         C            3.497065076216    -1.564286461841     0.914782373952    12.000000000000
         C            4.786733076216    -1.071082461841     1.126266373952    12.000000000000
         C            5.709830076216    -0.951857461841     0.070258373952    12.000000000000
         C            5.288929076216    -1.359181461841    -1.209809626048    12.000000000000
         C            4.002370076216    -1.855727461841    -1.429545626048    12.000000000000
         C            7.114255076216    -0.390502461841     0.299648373952    12.000000000000
         N            7.333688076216     1.061907538159     0.180616373952    14.003074004430
         C            6.797110076216     1.950000538159     1.235850373952    12.000000000000
         C            5.406745076216     2.557467538159     0.920017373952    12.000000000000
         N            5.325989076216     3.249988538159    -0.386403626048    14.003074004430
         C            5.823206076216     4.630006538159    -0.430998626048    12.000000000000
         C            5.818612076216     2.336178538159    -1.444915626048    12.000000000000
         C            7.202472076216     1.699564538159    -1.149889626048    12.000000000000
         O            1.560239076216    -3.241295461841    -1.636964626048    15.994914619570
         C           -5.002115923784    -3.389534461841     0.265892373952    12.000000000000
         H           -6.570704923784     4.660046538159    -2.408206626048     1.007825032230
         H           -6.595791923784     3.759743538159    -0.100849626048     1.007825032230
         H           -4.066568923784     0.541354538159    -1.516484626048     1.007825032230
         H           -5.278955923784     3.436948538159    -4.175531626048     1.007825032230
         H           -6.522038923784     2.815583538159     1.952709373952     1.007825032230
         H           -6.215910923784     1.490057538159     4.039775373952     1.007825032230
         H           -3.569527923784    -1.892704461841     3.034814373952     1.007825032230
         H           -3.098775923784    -4.379306461841    -1.419613626048     1.007825032230
         H           -0.696142923784    -3.885604461841    -1.561162626048     1.007825032230
         H           -1.145520923784    -1.144817461841     1.747399373952     1.007825032230
         H            0.855216076216    -1.361301461841     0.762831373952     1.007825032230
         H            2.812374076216    -1.665432461841     1.753086373952     1.007825032230
         H            5.075774076216    -0.777157461841     2.135281373952     1.007825032230
         H            5.972768076216    -1.290184461841    -2.055722626048     1.007825032230
         H            3.689261076216    -2.174100461841    -2.420697626048     1.007825032230
         H            7.446679076216    -0.683739461841     1.305987373952     1.007825032230
         H            7.799392076216    -0.875769461841    -0.410911626048     1.007825032230
         H            6.827614076216     1.474792538159     2.175757373952     1.007825032230
         H            7.776667076216     3.185988538159     1.329293373952     1.007825032230
         H            5.089715076216     3.517667538159     1.979065373952     1.007825032230
         H            4.515237076216     1.642740538159     0.932369373952     1.007825032230
         H            6.903730076216     4.665368538159    -0.251944626048     1.007825032230
         H            5.318575076216     5.238670538159     0.327951373952     1.007825032230
         H            5.613663076216     5.074786538159    -1.410614626048     1.007825032230
         H            5.827264076216     2.896445538159    -2.466299626048     1.007825032230
         H            4.845945076216     1.253173538159    -1.551103626048     1.007825032230
         H            8.228303076216     2.903561538159    -1.182831626048     1.007825032230
         H            7.511740076216     0.996058538159    -1.951221626048     1.007825032230
         H           -5.600093923784    -2.518643461841    -0.038440626048     1.007825032230
         H           -5.336910923784    -3.680743461841     1.271275373952     1.007825032230
         H           -5.273727923784    -4.213640461841    -0.408039626048     1.007825032230

  Running in c1 symmetry.

  Rotational constants: A =      0.00436  B =      0.00132  C =      0.00117 [cm^-1]
  Rotational constants: A =    130.72253  B =     39.70392  C =     34.97303 [MHz]
  Nuclear repulsion = 3582.968549447501573

  Charge       = 0
  Multiplicity = 1
  Electrons    = 262
  Nalpha       = 131
  Nbeta        = 131

  ==> Algorithm <==

  SCF Algorithm Type is DF.
  DIIS enabled.
  MOM disabled.
  Fractional occupation disabled.
  Guess Type is SAD.
  Energy threshold   = 1.00e-08
  Density threshold  = 1.00e-08
  Integral threshold = 0.00e+00

  ==> Primary Basis <==

  Basis Set: 6-311++G**
    Blend: 6-311++G**
    Number of shells: 525
    Number of basis function: 1031
    Number of Cartesian functions: 1068
    Spherical Harmonics?: true
    Max angular momentum: 2

   => Loading Basis Set <=

    Name: (6-311++G** AUX)
    Role: JKFIT
    Keyword: DF_BASIS_SCF
    atoms 1-4, 6-9, 11, 14-19, 21-28, 30-31, 33-35, 37 entry C          line   162 file /home/bdw2292/miniconda3/envs/p4env/share/psi4/basis/aug-cc-pvtz-jkfit.gbs 
    atoms 5, 10, 12-13, 20, 29, 32                     entry N          line   224 file /home/bdw2292/miniconda3/envs/p4env/share/psi4/basis/aug-cc-pvtz-jkfit.gbs 
    atoms 36                                           entry O          line   286 file /home/bdw2292/miniconda3/envs/p4env/share/psi4/basis/aug-cc-pvtz-jkfit.gbs 
    atoms 38-68                                        entry H          line    70 file /home/bdw2292/miniconda3/envs/p4env/share/psi4/basis/aug-cc-pvtz-jkfit.gbs 

  ==> Pre-Iterations <==

   -------------------------------------------------------
    Irrep   Nso     Nmo     Nalpha   Nbeta   Ndocc  Nsocc
   -------------------------------------------------------
     A       1031    1031       0       0       0       0
   -------------------------------------------------------
    Total    1031    1031     131     131     131       0
   -------------------------------------------------------

  ==> Integral Setup <==

  ==> DiskDFJK: Density-Fitted J/K Matrices <==

    J tasked:                  Yes
    K tasked:                  Yes
    wK tasked:                  No
    OpenMP threads:              6
    Integrals threads:           6
    Memory [MiB]:            14305
    Algorithm:                Core
    Integral Cache:           NONE
    Schwarz Cutoff:          1E-12
    Fitting Condition:       1E-10

   => Auxiliary Basis Set <=

  Basis Set: (6-311++G** AUX)
    Blend: AUG-CC-PVTZ-JKFIT
    Number of shells: 1544
    Number of basis function: 5274
    Number of Cartesian functions: 6552
    Spherical Harmonics?: true
    Max angular momentum: 4

  Minimum eigenvalue in the overlap matrix is 1.0018265091E-07.
  Using Symmetric Orthogonalization.

  SCF Guess: Superposition of Atomic Densities via on-the-fly atomic UHF.

  ==> Iterations <==

                           Total Energy        Delta E     RMS |[F,P]|

   @DF-RHF iter SAD: -1571.18732923717880   -1.57119e+03   0.00000e+00 
   @DF-RHF iter   1: -1571.33722008381528   -1.49891e-01   1.22003e-03 DIIS
   @DF-RHF iter   2: -1572.10787452558611   -7.70654e-01   6.50913e-04 DIIS
   @DF-RHF iter   3: -1572.30804506374079   -2.00171e-01   1.67760e-04 DIIS
   @DF-RHF iter   4: -1572.32569267595841   -1.76476e-02   6.69082e-05 DIIS
   @DF-RHF iter   5: -1572.32842771733294   -2.73504e-03   1.34429e-05 DIIS
   @DF-RHF iter   6: -1572.32858712642519   -1.59409e-04   5.90160e-06 DIIS
   @DF-RHF iter   7: -1572.32862348118579   -3.63548e-05   1.95367e-06 DIIS
   @DF-RHF iter   8: -1572.32862928927034   -5.80808e-06   7.58785e-07 DIIS
   @DF-RHF iter   9: -1572.32863022333345   -9.34063e-07   3.10216e-07 DIIS
   @DF-RHF iter  10: -1572.32863042187728   -1.98544e-07   1.40235e-07 DIIS
   @DF-RHF iter  11: -1572.32863046440480   -4.25275e-08   6.66456e-08 DIIS
   @DF-RHF iter  12: -1572.32863047478895   -1.03842e-08   2.97768e-08 DIIS
   @DF-RHF iter  13: -1572.32863047683463   -2.04568e-09   1.13938e-08 DIIS
   @DF-RHF iter  14: -1572.32863047701767   -1.83036e-10   5.75145e-09 DIIS
  Energy and wave function converged.


  ==> Post-Iterations <==

    Orbital Energies [Eh]
    ---------------------

    Doubly Occupied:                                                      

       1A    -20.527249     2A    -15.609228     3A    -15.586145  
       4A    -15.577215     5A    -15.570310     6A    -15.563314  
       7A    -15.559424     8A    -15.558913     9A    -11.371425  
      10A    -11.364485    11A    -11.324469    12A    -11.315973  
      13A    -11.314727    14A    -11.307805    15A    -11.305474  
      16A    -11.305042    17A    -11.297747    18A    -11.287209  
      19A    -11.286500    20A    -11.285673    21A    -11.284169  
      22A    -11.276757    23A    -11.267204    24A    -11.266323  
      25A    -11.266237    26A    -11.266048    27A    -11.257501  
      28A    -11.257168    29A    -11.253877    30A    -11.252362  
      31A    -11.246960    32A    -11.246839    33A    -11.245536  
      34A    -11.241970    35A    -11.238817    36A    -11.234993  
      37A    -11.225048    38A     -1.394112    39A     -1.338409  
      40A     -1.263057    41A     -1.255852    42A     -1.251173  
      43A     -1.239977    44A     -1.204905    45A     -1.201143  
      46A     -1.170972    47A     -1.140077    48A     -1.103805  
      49A     -1.068556    50A     -1.063501    51A     -1.040092  
      52A     -1.036711    53A     -1.033509    54A     -1.006275  
      55A     -1.003650    56A     -0.982717    57A     -0.945156  
      58A     -0.930151    59A     -0.915382    60A     -0.893100  
      61A     -0.871862    62A     -0.860658    63A     -0.852518  
      64A     -0.844895    65A     -0.842813    66A     -0.836725  
      67A     -0.831486    68A     -0.809806    69A     -0.779107  
      70A     -0.749077    71A     -0.746167    72A     -0.728633  
      73A     -0.713856    74A     -0.708742    75A     -0.694746  
      76A     -0.686824    77A     -0.672552    78A     -0.665605  
      79A     -0.660294    80A     -0.657910    81A     -0.649862  
      82A     -0.648598    83A     -0.644184    84A     -0.634800  
      85A     -0.628731    86A     -0.623090    87A     -0.610390  
      88A     -0.609342    89A     -0.604306    90A     -0.599870  
      91A     -0.598260    92A     -0.597807    93A     -0.596123  
      94A     -0.590323    95A     -0.586525    96A     -0.581457  
      97A     -0.579182    98A     -0.570336    99A     -0.567528  
     100A     -0.546465   101A     -0.542940   102A     -0.542763  
     103A     -0.534523   104A     -0.531302   105A     -0.530862  
     106A     -0.521794   107A     -0.513831   108A     -0.510260  
     109A     -0.506789   110A     -0.505271   111A     -0.500002  
     112A     -0.497094   113A     -0.485407   114A     -0.464461  
     115A     -0.460928   116A     -0.439818   117A     -0.435958  
     118A     -0.433051   119A     -0.427101   120A     -0.426666  
     121A     -0.404440   122A     -0.396670   123A     -0.385992  
     124A     -0.384560   125A     -0.355299   126A     -0.351297  
     127A     -0.350212   128A     -0.340765   129A     -0.323245  
     130A     -0.316048   131A     -0.302749  

    Virtual:                                                              

     132A      0.030566   133A      0.033651   134A      0.039787  
     135A      0.042406   136A      0.045254   137A      0.046748  
     138A      0.048367   139A      0.053104   140A      0.054685  
     141A      0.057098   142A      0.061393   143A      0.062847  
     144A      0.063818   145A      0.065060   146A      0.068041  
     147A      0.070034   148A      0.073867   149A      0.075020  
     150A      0.081960   151A      0.083686   152A      0.084567  
     153A      0.086453   154A      0.087887   155A      0.090202  
     156A      0.093622   157A      0.097083   158A      0.098804  
     159A      0.100831   160A      0.102350   161A      0.105096  
     162A      0.108015   163A      0.108902   164A      0.110628  
     165A      0.112837   166A      0.118541   167A      0.120101  
     168A      0.121383   169A      0.122042   170A      0.124469  
     171A      0.129022   172A      0.131664   173A      0.133656  
     174A      0.136302   175A      0.140434   176A      0.143931  
     177A      0.146070   178A      0.146338   179A      0.149975  
     180A      0.151085   181A      0.152126   182A      0.154851  
     183A      0.156541   184A      0.158970   185A      0.161481  
     186A      0.162927   187A      0.165006   188A      0.166785  
     189A      0.167496   190A      0.171045   191A      0.173513  
     192A      0.174046   193A      0.174611   194A      0.175778  
     195A      0.177646   196A      0.180847   197A      0.182759  
     198A      0.184869   199A      0.185559   200A      0.187361  
     201A      0.188164   202A      0.189945   203A      0.190842  
     204A      0.191377   205A      0.192529   206A      0.196107  
     207A      0.196518   208A      0.197751   209A      0.198220  
     210A      0.201524   211A      0.203393   212A      0.205440  
     213A      0.206491   214A      0.210851   215A      0.211540  
     216A      0.212194   217A      0.213665   218A      0.215939  
     219A      0.216518   220A      0.219291   221A      0.219770  
     222A      0.221908   223A      0.224665   224A      0.225841  
     225A      0.227571   226A      0.230110   227A      0.230539  
     228A      0.235839   229A      0.236453   230A      0.238707  
     231A      0.239656   232A      0.241543   233A      0.243168  
     234A      0.244249   235A      0.245326   236A      0.249974  
     237A      0.252387   238A      0.254058   239A      0.255076  
     240A      0.258618   241A      0.259246   242A      0.263303  
     243A      0.265333   244A      0.268751   245A      0.270082  
     246A      0.273900   247A      0.277142   248A      0.277696  
     249A      0.280015   250A      0.283320   251A      0.285698  
     252A      0.287608   253A      0.291549   254A      0.293719  
     255A      0.296149   256A      0.297320   257A      0.299232  
     258A      0.301423   259A      0.305282   260A      0.305468  
     261A      0.309364   262A      0.312861   263A      0.316026  
     264A      0.316709   265A      0.321174   266A      0.322095  
     267A      0.323105   268A      0.325744   269A      0.327806  
     270A      0.329304   271A      0.330131   272A      0.332920  
     273A      0.336517   274A      0.339167   275A      0.340861  
     276A      0.342842   277A      0.344000   278A      0.347990  
     279A      0.348435   280A      0.348891   281A      0.350452  
     282A      0.353923   283A      0.358418   284A      0.360099  
     285A      0.360597   286A      0.364849   287A      0.367980  
     288A      0.370278   289A      0.371052   290A      0.371873  
     291A      0.372418   292A      0.373826   293A      0.377775  
     294A      0.378892   295A      0.380113   296A      0.381497  
     297A      0.383250   298A      0.387030   299A      0.388176  
     300A      0.388912   301A      0.389467   302A      0.391009  
     303A      0.393453   304A      0.395113   305A      0.396359  
     306A      0.398599   307A      0.399298   308A      0.400021  
     309A      0.402457   310A      0.405458   311A      0.408297  
     312A      0.408790   313A      0.410245   314A      0.411509  
     315A      0.412438   316A      0.415977   317A      0.419530  
     318A      0.421638   319A      0.422855   320A      0.425600  
     321A      0.427433   322A      0.428394   323A      0.431413  
     324A      0.433164   325A      0.433857   326A      0.436554  
     327A      0.439025   328A      0.441048   329A      0.442598  
     330A      0.444145   331A      0.446313   332A      0.451498  
     333A      0.452878   334A      0.455056   335A      0.457840  
     336A      0.460659   337A      0.462267   338A      0.464005  
     339A      0.465902   340A      0.468738   341A      0.472388  
     342A      0.473438   343A      0.476286   344A      0.479904  
     345A      0.480981   346A      0.482313   347A      0.484911  
     348A      0.487997   349A      0.493335   350A      0.495320  
     351A      0.496840   352A      0.500669   353A      0.505228  
     354A      0.506937   355A      0.509361   356A      0.511895  
     357A      0.514394   358A      0.516672   359A      0.517868  
     360A      0.521754   361A      0.526682   362A      0.531732  
     363A      0.537113   364A      0.537888   365A      0.539811  
     366A      0.544648   367A      0.546654   368A      0.549034  
     369A      0.552593   370A      0.557499   371A      0.565113  
     372A      0.572066   373A      0.581270   374A      0.586606  
     375A      0.590785   376A      0.592236   377A      0.602688  
     378A      0.604469   379A      0.606368   380A      0.612436  
     381A      0.614836   382A      0.620912   383A      0.624748  
     384A      0.637086   385A      0.640810   386A      0.646064  
     387A      0.659300   388A      0.659975   389A      0.674645  
     390A      0.678268   391A      0.690663   392A      0.696574  
     393A      0.699091   394A      0.704603   395A      0.708445  
     396A      0.710624   397A      0.714242   398A      0.720962  
     399A      0.726012   400A      0.729160   401A      0.732306  
     402A      0.736499   403A      0.739584   404A      0.745201  
     405A      0.747834   406A      0.754185   407A      0.756045  
     408A      0.761242   409A      0.763018   410A      0.765240  
     411A      0.769485   412A      0.772540   413A      0.777059  
     414A      0.778671   415A      0.785767   416A      0.789731  
     417A      0.791094   418A      0.798023   419A      0.799239  
     420A      0.801355   421A      0.804253   422A      0.806484  
     423A      0.809460   424A      0.816720   425A      0.817892  
     426A      0.820668   427A      0.824762   428A      0.825815  
     429A      0.832998   430A      0.837705   431A      0.839787  
     432A      0.848011   433A      0.850896   434A      0.856758  
     435A      0.859244   436A      0.860944   437A      0.864201  
     438A      0.866789   439A      0.871390   440A      0.873412  
     441A      0.875713   442A      0.877228   443A      0.885482  
     444A      0.888744   445A      0.891787   446A      0.894958  
     447A      0.897798   448A      0.900221   449A      0.902924  
     450A      0.905115   451A      0.910088   452A      0.912224  
     453A      0.915615   454A      0.920455   455A      0.926544  
     456A      0.929971   457A      0.931012   458A      0.933401  
     459A      0.936907   460A      0.939858   461A      0.943385  
     462A      0.945092   463A      0.948891   464A      0.950997  
     465A      0.952626   466A      0.956822   467A      0.962322  
     468A      0.964835   469A      0.968020   470A      0.971099  
     471A      0.972406   472A      0.974074   473A      0.975858  
     474A      0.979368   475A      0.985989   476A      0.988976  
     477A      0.994806   478A      0.997921   479A      1.002440  
     480A      1.003821   481A      1.006037   482A      1.010186  
     483A      1.017819   484A      1.021753   485A      1.023925  
     486A      1.025853   487A      1.032502   488A      1.034697  
     489A      1.037128   490A      1.042475   491A      1.056215  
     492A      1.059707   493A      1.065098   494A      1.070452  
     495A      1.072208   496A      1.079453   497A      1.081520  
     498A      1.084624   499A      1.088296   500A      1.090172  
     501A      1.091599   502A      1.094046   503A      1.101836  
     504A      1.107368   505A      1.117338   506A      1.122092  
     507A      1.128380   508A      1.129098   509A      1.133680  
     510A      1.137186   511A      1.139983   512A      1.143867  
     513A      1.147626   514A      1.151203   515A      1.152881  
     516A      1.160244   517A      1.160655   518A      1.164961  
     519A      1.166672   520A      1.172024   521A      1.176957  
     522A      1.179950   523A      1.187515   524A      1.191354  
     525A      1.195350   526A      1.195994   527A      1.203254  
     528A      1.205528   529A      1.206841   530A      1.211875  
     531A      1.216309   532A      1.221028   533A      1.223040  
     534A      1.227562   535A      1.229031   536A      1.235878  
     537A      1.241177   538A      1.244200   539A      1.245938  
     540A      1.253424   541A      1.258732   542A      1.261300  
     543A      1.263650   544A      1.263893   545A      1.276437  
     546A      1.277934   547A      1.284428   548A      1.291376  
     549A      1.295239   550A      1.296620   551A      1.298035  
     552A      1.305709   553A      1.307443   554A      1.312753  
     555A      1.314035   556A      1.325603   557A      1.328000  
     558A      1.337353   559A      1.343071   560A      1.346877  
     561A      1.353449   562A      1.361987   563A      1.363955  
     564A      1.370864   565A      1.374934   566A      1.383297  
     567A      1.387664   568A      1.400698   569A      1.408656  
     570A      1.412951   571A      1.423867   572A      1.429508  
     573A      1.435905   574A      1.440243   575A      1.441670  
     576A      1.449904   577A      1.451887   578A      1.454868  
     579A      1.473750   580A      1.479766   581A      1.485696  
     582A      1.490095   583A      1.495463   584A      1.508978  
     585A      1.514484   586A      1.524505   587A      1.539605  
     588A      1.541112   589A      1.547076   590A      1.558501  
     591A      1.560079   592A      1.570655   593A      1.588620  
     594A      1.596580   595A      1.608657   596A      1.614429  
     597A      1.618312   598A      1.625334   599A      1.630286  
     600A      1.638504   601A      1.658639   602A      1.666558  
     603A      1.669563   604A      1.678220   605A      1.692172  
     606A      1.696124   607A      1.701465   608A      1.707640  
     609A      1.718681   610A      1.728907   611A      1.740721  
     612A      1.749468   613A      1.751662   614A      1.757037  
     615A      1.761041   616A      1.765576   617A      1.766933  
     618A      1.770551   619A      1.777846   620A      1.782573  
     621A      1.786031   622A      1.789689   623A      1.791094  
     624A      1.797912   625A      1.802022   626A      1.804258  
     627A      1.807185   628A      1.809168   629A      1.814288  
     630A      1.819556   631A      1.827554   632A      1.828610  
     633A      1.831283   634A      1.837168   635A      1.844732  
     636A      1.852404   637A      1.853917   638A      1.858983  
     639A      1.861746   640A      1.865301   641A      1.869666  
     642A      1.872763   643A      1.875215   644A      1.888862  
     645A      1.891242   646A      1.895224   647A      1.902213  
     648A      1.906806   649A      1.911335   650A      1.915299  
     651A      1.924818   652A      1.929143   653A      1.932396  
     654A      1.937395   655A      1.944228   656A      1.949449  
     657A      1.952714   658A      1.959291   659A      1.962913  
     660A      1.964394   661A      1.972634   662A      1.974633  
     663A      1.976697   664A      1.980223   665A      1.985113  
     666A      1.988837   667A      1.991630   668A      1.993973  
     669A      1.999734   670A      2.010316   671A      2.015653  
     672A      2.022124   673A      2.023001   674A      2.032276  
     675A      2.037852   676A      2.038551   677A      2.040264  
     678A      2.046476   679A      2.049540   680A      2.052521  
     681A      2.058218   682A      2.068560   683A      2.069485  
     684A      2.070402   685A      2.080698   686A      2.082841  
     687A      2.084531   688A      2.092003   689A      2.097488  
     690A      2.110958   691A      2.117812   692A      2.124107  
     693A      2.133081   694A      2.143175   695A      2.152329  
     696A      2.156857   697A      2.160459   698A      2.165418  
     699A      2.169419   700A      2.174505   701A      2.180118  
     702A      2.183413   703A      2.190277   704A      2.200319  
     705A      2.203141   706A      2.210342   707A      2.212149  
     708A      2.215924   709A      2.217456   710A      2.225840  
     711A      2.239826   712A      2.241935   713A      2.253068  
     714A      2.253877   715A      2.257180   716A      2.260282  
     717A      2.263285   718A      2.266809   719A      2.273002  
     720A      2.281118   721A      2.282998   722A      2.284977  
     723A      2.292607   724A      2.297855   725A      2.302817  
     726A      2.305349   727A      2.308755   728A      2.311678  
     729A      2.319829   730A      2.333145   731A      2.334886  
     732A      2.343020   733A      2.354846   734A      2.359827  
     735A      2.364142   736A      2.365747   737A      2.372798  
     738A      2.381399   739A      2.390728   740A      2.397989  
     741A      2.403200   742A      2.405066   743A      2.417770  
     744A      2.419500   745A      2.421631   746A      2.429553  
     747A      2.438607   748A      2.449405   749A      2.449790  
     750A      2.456855   751A      2.476005   752A      2.486021  
     753A      2.496853   754A      2.505825   755A      2.509954  
     756A      2.510944   757A      2.518026   758A      2.523226  
     759A      2.525049   760A      2.535679   761A      2.544778  
     762A      2.567924   763A      2.573925   764A      2.578790  
     765A      2.586202   766A      2.602670   767A      2.619377  
     768A      2.626516   769A      2.633061   770A      2.642279  
     771A      2.659107   772A      2.661592   773A      2.678447  
     774A      2.692106   775A      2.695612   776A      2.706307  
     777A      2.710208   778A      2.713605   779A      2.728455  
     780A      2.739081   781A      2.744176   782A      2.754279  
     783A      2.764865   784A      2.775299   785A      2.782402  
     786A      2.792096   787A      2.796636   788A      2.806022  
     789A      2.816071   790A      2.819726   791A      2.832299  
     792A      2.832649   793A      2.839573   794A      2.845635  
     795A      2.860943   796A      2.871914   797A      2.872318  
     798A      2.873389   799A      2.884421   800A      2.887064  
     801A      2.898036   802A      2.909352   803A      2.909529  
     804A      2.928644   805A      2.937294   806A      2.939320  
     807A      2.942331   808A      2.962104   809A      2.962394  
     810A      2.967377   811A      2.971111   812A      2.979588  
     813A      2.982283   814A      2.986179   815A      2.999657  
     816A      3.000835   817A      3.008890   818A      3.012045  
     819A      3.013461   820A      3.025391   821A      3.033485  
     822A      3.038692   823A      3.041140   824A      3.043578  
     825A      3.047975   826A      3.050933   827A      3.058641  
     828A      3.069340   829A      3.071544   830A      3.075037  
     831A      3.079121   832A      3.082736   833A      3.089036  
     834A      3.092967   835A      3.097828   836A      3.102511  
     837A      3.110776   838A      3.113091   839A      3.116042  
     840A      3.122735   841A      3.125687   842A      3.127441  
     843A      3.134028   844A      3.138838   845A      3.147273  
     846A      3.154740   847A      3.166376   848A      3.172326  
     849A      3.174561   850A      3.189294   851A      3.191136  
     852A      3.199415   853A      3.201544   854A      3.207668  
     855A      3.209858   856A      3.222728   857A      3.235067  
     858A      3.237747   859A      3.243260   860A      3.246475  
     861A      3.254235   862A      3.261802   863A      3.269477  
     864A      3.273872   865A      3.278271   866A      3.283238  
     867A      3.286379   868A      3.294860   869A      3.297246  
     870A      3.303227   871A      3.305772   872A      3.310676  
     873A      3.317972   874A      3.322605   875A      3.334299  
     876A      3.337376   877A      3.339504   878A      3.345094  
     879A      3.348105   880A      3.352066   881A      3.366141  
     882A      3.370979   883A      3.377764   884A      3.385240  
     885A      3.388535   886A      3.392970   887A      3.397734  
     888A      3.410298   889A      3.414215   890A      3.424575  
     891A      3.434345   892A      3.453373   893A      3.467231  
     894A      3.502457   895A      3.515214   896A      3.542649  
     897A      3.563755   898A      3.576627   899A      3.585823  
     900A      3.593386   901A      3.610707   902A      3.625590  
     903A      3.633684   904A      3.648358   905A      3.650330  
     906A      3.663784   907A      3.665834   908A      3.694254  
     909A      3.721854   910A      3.766796   911A      3.772945  
     912A      3.774650   913A      3.777917   914A      3.790719  
     915A      3.794180   916A      3.824998   917A      3.837374  
     918A      3.852869   919A      3.868927   920A      3.876912  
     921A      3.898880   922A      3.910394   923A      3.922120  
     924A      3.929737   925A      3.935057   926A      3.947296  
     927A      3.951184   928A      3.954676   929A      3.978518  
     930A      3.985014   931A      4.002985   932A      4.007867  
     933A      4.029103   934A      4.057011   935A      4.064376  
     936A      4.092724   937A      4.098015   938A      4.100286  
     939A      4.130858   940A      4.136311   941A      4.143810  
     942A      4.153399   943A      4.179253   944A      4.192190  
     945A      4.199995   946A      4.205028   947A      4.205350  
     948A      4.227220   949A      4.247683   950A      4.329788  
     951A      4.347028   952A      4.365276   953A      4.385865  
     954A      4.402403   955A      4.414835   956A      4.423323  
     957A      4.436404   958A      4.438826   959A      4.441349  
     960A      4.466428   961A      4.473258   962A      4.522440  
     963A      4.529808   964A      4.563014   965A      4.570791  
     966A      4.572632   967A      4.576878   968A      4.595706  
     969A      4.605716   970A      4.669736   971A      4.698361  
     972A      4.768775   973A      4.776473   974A      4.793460  
     975A      4.914974   976A      4.936122   977A      5.009763  
     978A      5.053344   979A      5.233565   980A      5.256571  
     981A      5.275472   982A      5.282315   983A      5.285821  
     984A      5.334354   985A      5.340078   986A      5.378103  
     987A      5.403101   988A      5.610906   989A      5.681592  
     990A      5.702668   991A      5.807500   992A      5.859918  
     993A      5.867381   994A      6.392828   995A     24.769943  
     996A     24.786269   997A     24.816839   998A     24.854465  
     999A     24.869632  1000A     24.917096  1001A     24.952606  
    1002A     25.005618  1003A     25.011355  1004A     25.034406  
    1005A     25.044064  1006A     25.078442  1007A     25.082092  
    1008A     25.103813  1009A     25.104840  1010A     25.115392  
    1011A     25.117975  1012A     25.135294  1013A     25.136407  
    1014A     25.143075  1015A     25.180737  1016A     25.195437  
    1017A     25.208995  1018A     25.236060  1019A     25.242027  
    1020A     25.244031  1021A     25.259658  1022A     25.311933  
    1023A     25.322036  1024A     36.940092  1025A     36.979806  
    1026A     37.035018  1027A     37.066979  1028A     37.088643  
    1029A     37.156297  1030A     37.167430  1031A     51.757098  

    Final Occupation by Irrep:
              A 
    DOCC [   131 ]

  @DF-RHF Final Energy: -1572.32863047701767

   => Energetics <=

    Nuclear Repulsion Energy =           3582.9685494475015730
    One-Electron Energy =               -9264.3304058555404481
    Two-Electron Energy =                4109.0332259310207519
    Total Energy =                      -1572.3286304770181232

Computation Completed


Properties will be evaluated at   0.000000,   0.000000,   0.000000 [a0]

Properties computed using the SCF density matrix

  Nuclear Dipole Moment: [e a0]
     X:    39.5252      Y:    17.7969      Z:    -0.5627

  Electronic Dipole Moment: [e a0]
     X:   -39.9449      Y:   -16.5769      Z:     1.8020

  Dipole Moment: [e a0]
     X:    -0.4197      Y:     1.2200      Z:     1.2393     Total:     1.7890

  Dipole Moment: [D]
     X:    -1.0667      Y:     3.1009      Z:     3.1500     Total:     4.5471


*** tstop() called on g2-node38.bme.utexas.edu at Tue Mar  3 18:25:56 2020
Module time:
	user time   =    7144.89 seconds =     119.08 minutes
	system time =     228.48 seconds =       3.81 minutes
	total time  =       1448 seconds =      24.13 minutes
Total time:
	user time   =    7144.89 seconds =     119.08 minutes
	system time =     228.48 seconds =       3.81 minutes
	total time  =       1448 seconds =      24.13 minutes

*** tstart() called on g2-node38.bme.utexas.edu
*** at Tue Mar  3 18:25:56 2020


  //>>>>>>>>>>>>>>>>>>>>>>>>>>>>>>>>>>>//
  //               DFMP2               //
  //<<<<<<<<<<<<<<<<<<<<<<<<<<<<<<<<<<<//

   => Loading Basis Set <=

    Name: (6-311++G** AUX)
    Role: RIFIT
    Keyword: DF_BASIS_MP2
    atoms 1-4, 6-9, 11, 14-19, 21-28, 30-31, 33-35, 37 entry C          line   148 file /home/bdw2292/miniconda3/envs/p4env/share/psi4/basis/aug-cc-pvtz-ri.gbs 
    atoms 5, 10, 12-13, 20, 29, 32                     entry N          line   206 file /home/bdw2292/miniconda3/envs/p4env/share/psi4/basis/aug-cc-pvtz-ri.gbs 
    atoms 36                                           entry O          line   264 file /home/bdw2292/miniconda3/envs/p4env/share/psi4/basis/aug-cc-pvtz-ri.gbs 
    atoms 38-68                                        entry H          line    30 file /home/bdw2292/miniconda3/envs/p4env/share/psi4/basis/aug-cc-pvtz-ri.gbs 

	 --------------------------------------------------------
	                          DF-MP2                         
	      2nd-Order Density-Fitted Moller-Plesset Theory     
	              RMP2 Wavefunction,   6 Threads             
	                                                         
	        Rob Parrish, Justin Turney, Andy Simmonett,      
	           Ed Hohenstein, and C. David Sherrill          
	 --------------------------------------------------------

   => Auxiliary Basis Set <=

  Basis Set: (6-311++G** AUX)
    Blend: AUG-CC-PVTZ-RI
    Number of shells: 1470
    Number of basis function: 5348
    Number of Cartesian functions: 6737
    Spherical Harmonics?: true
    Max angular momentum: 4

	 --------------------------------------------------------
	                 NBF =  1031, NAUX =  5348
	 --------------------------------------------------------
	   CLASS    FOCC     OCC    AOCC    AVIR     VIR    FVIR
	   PAIRS      37     131      94     900     900       0
	 --------------------------------------------------------

	-----------------------------------------------------------
	 ==================> DF-MP2 Energies <==================== 
	-----------------------------------------------------------
	 Reference Energy          =   -1572.3286304770176685 [Eh]
	 Singles Energy            =      -0.0000000000000000 [Eh]
	 Same-Spin Energy          =      -1.4677713705744129 [Eh]
	 Opposite-Spin Energy      =      -4.0439275071966234 [Eh]
	 Correlation Energy        =      -5.5116988777710363 [Eh]
	 Total Energy              =   -1577.8403293547887642 [Eh]
	-----------------------------------------------------------
	 ================> DF-SCS-MP2 Energies <================== 
	-----------------------------------------------------------
	 SCS Same-Spin Scale       =       0.3333333333333333 [-]
	 SCS Opposite-Spin Scale   =       1.2000000000000000 [-]
	 SCS Same-Spin Energy      =      -0.4892571235248043 [Eh]
	 SCS Opposite-Spin Energy  =      -4.8527130086359476 [Eh]
	 SCS Correlation Energy    =      -5.3419701321607516 [Eh]
	 SCS Total Energy          =   -1577.6706006091783365 [Eh]
	-----------------------------------------------------------


*** tstop() called on g2-node38.bme.utexas.edu at Tue Mar  3 18:36:48 2020
Module time:
	user time   =    3512.51 seconds =      58.54 minutes
	system time =      32.13 seconds =       0.54 minutes
	total time  =        652 seconds =      10.87 minutes
Total time:
	user time   =   10657.41 seconds =     177.62 minutes
	system time =     260.61 seconds =       4.34 minutes
	total time  =       2100 seconds =      35.00 minutes


Properties will be evaluated at   0.000000,   0.000000,   0.000000 [a0]
OEProp: No title given, name of density matrix used for the following properties is 'SCF density'


  Wiberg Bond Indices using Orthogonal Lowdin Orbitals:

  Irrep: 1 Size: 68 x 68

                 1                   2                   3                   4                   5

    1     0.00000000000000     1.46787681173848     0.12519984450337     0.13986499808752     0.12480981282130
    2     1.46787681173848     0.00000000000000     1.40068808358717     0.12713201344647     0.12223729236790
    3     0.12519984450337     1.40068808358717     0.00000000000000     1.36162458934505     0.12021265423591
    4     0.13986499808752     0.12713201344647     1.36162458934505     0.00000000000000     1.66739144460024
    5     0.12480981282130     0.12223729236790     0.12021265423591     1.66739144460024     0.00000000000000
    6     1.46365813651671     0.13772843089607     0.13566844178621     0.15342909452909     1.63851418407404
    7     0.01483435986696     0.10401047629580     1.02413160556021     0.10429550921113     0.01405609374182
    8     0.00362665834939     0.04207118059813     0.09823851846735     0.02375139713034     0.00218505292778
    9     0.00036982119556     0.00481548687129     0.01496568542643     0.00413604775231     0.00069016464119
   10     0.00042707353155     0.00543309244819     0.00582629519705     0.00607122842487     0.00030854725422
   11     0.00093945483452     0.00347163079527     0.01842592199203     0.00731303111635     0.00046526553009
   12     0.00287783887333     0.02222116323533     0.12088857327365     0.06525608073354     0.00417944277416
   13     0.00017294217552     0.00052338199942     0.00178164337953     0.00087859454848     0.00008201268285
   14     0.00004355829879     0.00012807215463     0.00077036514250     0.00175322849241     0.00014704224070
   15     0.00003990099179     0.00007319213716     0.00042815006803     0.00122587830628     0.00014205014740
   16     0.00001175877956     0.00002487721981     0.00012324359947     0.00035918556042     0.00007282426383
   17     0.00000798066921     0.00001393128754     0.00008214346696     0.00014667537580     0.00003762876198
   18     0.00001161708937     0.00001860285413     0.00005440828287     0.00015219778699     0.00005310374042
   19     0.00002562051645     0.00005708789949     0.00028545264619     0.00065369519642     0.00008420642725
   20     0.00000087715064     0.00000167304898     0.00000692970214     0.00005338974772     0.00000367332879
   21     0.00000021520880     0.00000047484485     0.00000140445417     0.00001082829769     0.00000104990627
   22     0.00000009884320     0.00000018111760     0.00000047397798     0.00000120893182     0.00000018134121
   23     0.00000007932875     0.00000021132404     0.00000045377601     0.00000061832477     0.00000019864540
   24     0.00000003287420     0.00000004633112     0.00000009186827     0.00000011274960     0.00000004335234
   25     0.00000002510177     0.00000005375424     0.00000008400464     0.00000015933256     0.00000004537448
   26     0.00000001621283     0.00000004498060     0.00000009629414     0.00000008881531     0.00000007794567
   27     0.00000003545314     0.00000008618884     0.00000021878281     0.00000045367783     0.00000014942500
   28     0.00000000453652     0.00000000995632     0.00000002215898     0.00000002389332     0.00000001197562
   29     0.00000000415088     0.00000000427951     0.00000001062076     0.00000003575422     0.00000000461963
   30     0.00000000757245     0.00000000524895     0.00000001086264     0.00000000926303     0.00000000695395
   31     0.00000001367758     0.00000000462068     0.00000002187645     0.00000003750255     0.00000001181348
   32     0.00000002020724     0.00000000375769     0.00000002085297     0.00000003532763     0.00000000773743
   33     0.00000000260928     0.00000000244041     0.00000000571148     0.00000001935600     0.00000000891228
   34     0.00000000623542     0.00000000544390     0.00000001599784     0.00000004603914     0.00000003051809
   35     0.00000000283607     0.00000000690882     0.00000001199836     0.00000002123245     0.00000000961733
   36     0.00000015729886     0.00000025984622     0.00000161478773     0.00000351013672     0.00000086842674
   37     0.00005371078678     0.00005943632998     0.00039032044934     0.00070642881846     0.00006831123329
   38     0.88690840026199     0.07955004199630     0.01185573195375     0.00630342668847     0.01073820282441
   39     0.07806173417550     0.87078065538364     0.07272308908521     0.01163109494374     0.00393605857020
   40     0.00563295431099     0.01080170584751     0.06999558245552     0.85537969160173     0.08524375026144
   41     0.07750655766886     0.01194566714676     0.00610805266401     0.01574669842997     0.08759505290377
   42     0.00113129002287     0.01457470643421     0.01435258977932     0.00137294455296     0.00029687330205
   43     0.00004534217585     0.00029008804121     0.00145524508785     0.00032110487637     0.00008129384236
   44     0.00002709320501     0.00008896682465     0.00037590444044     0.00009503855658     0.00000773338324
   45     0.00000180654237     0.00000269825490     0.00001030143169     0.00004721640262     0.00000963867149
   46     0.00000048122372     0.00000100078827     0.00000393505290     0.00001734551156     0.00000355791549
   47     0.00000466892847     0.00000567021157     0.00002269813183     0.00004359987692     0.00000729143609
   48     0.00000063397990     0.00000131098673     0.00000246265346     0.00000702515904     0.00000184172336
   49     0.00000001190682     0.00000003827271     0.00000023759886     0.00000024497012     0.00000018737307
   50     0.00000000276017     0.00000000219833     0.00000000981923     0.00000001833446     0.00000001248135
   51     0.00000000149660     0.00000000252709     0.00000000903206     0.00000000555914     0.00000000580140
   52     0.00000000227458     0.00000000389635     0.00000001769980     0.00000007245968     0.00000001714729
   53     0.00000000024684     0.00000000060495     0.00000000222880     0.00000000321183     0.00000000134233
   54     0.00000000046052     0.00000000036234     0.00000000402056     0.00000000362825     0.00000000123236
   55     0.00000000028153     0.00000000046974     0.00000000195119     0.00000000141027     0.00000000103357
   56     0.00000000105942     0.00000000120341     0.00000000228626     0.00000000762608     0.00000000062598
   57     0.00000000069740     0.00000000057001     0.00000000198537     0.00000000825120     0.00000000185373
   58     0.00000001111776     0.00000000525770     0.00000002595706     0.00000002406515     0.00000000509673
   59     0.00000000019815     0.00000000021799     0.00000000084130     0.00000000348805     0.00000000058611
   60     0.00000000036787     0.00000000143505     0.00000000166047     0.00000000487834     0.00000000222982
   61     0.00000000070862     0.00000000043556     0.00000000050016     0.00000000411337     0.00000000382926
   62     0.00000000096637     0.00000000076888     0.00000000163809     0.00000000465171     0.00000000195841
   63     0.00000000369580     0.00000000471749     0.00000001675481     0.00000007790691     0.00000009393195
   64     0.00000000024859     0.00000000095669     0.00000000242837     0.00000001911071     0.00000000198175
   65     0.00000000020973     0.00000000053175     0.00000000121962     0.00000000191389     0.00000000283449
   66     0.00006599005000     0.00003544001418     0.00024787927181     0.00041057786758     0.00004708340133
   67     0.00000205983872     0.00000439266705     0.00004292502818     0.00006930782128     0.00000279832249
   68     0.00000334383146     0.00000389210571     0.00003753188507     0.00006542317701     0.00000536249731

                 6                   7                   8                   9                  10

    1     1.46365813651671     0.01483435986696     0.00362665834939     0.00036982119556     0.00042707353155
    2     0.13772843089607     0.10401047629580     0.04207118059813     0.00481548687129     0.00543309244819
    3     0.13566844178621     1.02413160556021     0.09823851846735     0.01496568542643     0.00582629519705
    4     0.15342909452909     0.10429550921113     0.02375139713034     0.00413604775231     0.00607122842487
    5     1.63851418407404     0.01405609374182     0.00218505292778     0.00069016464119     0.00030854725422
    6     0.00000000000000     0.01003918035547     0.00680745455424     0.00125122703352     0.00339500414539
    7     0.01003918035547     0.00000000000000     1.38264722712745     0.14605638702089     0.11169842986137
    8     0.00680745455424     1.38264722712745     0.00000000000000     1.43712290658508     0.13271928517458
    9     0.00125122703352     0.14605638702089     1.43712290658508     0.00000000000000     1.66231529340909
   10     0.00339500414539     0.11169842986137     0.13271928517458     1.66231529340909     0.00000000000000
   11     0.00091130507556     0.14423086244954     0.11297257914533     0.15502835420933     1.50598081845245
   12     0.00615729573599     1.53288738374842     0.12561331144994     0.11044739803404     0.10863867401267
   13     0.00008569333446     0.02043193686463     0.02202388191078     0.02420729681094     0.16298105787562
   14     0.00005969897692     0.00429285050684     0.00266489578695     0.00338894582786     0.01756009141729
   15     0.00004573508381     0.00154180727187     0.00098301058416     0.00085615367210     0.00313575406882
   16     0.00001608382636     0.00025849835219     0.00019025558597     0.00015536551547     0.00041775508815
   17     0.00000725846855     0.00017955537298     0.00009221836845     0.00009443573531     0.00028053712530
   18     0.00001056850833     0.00016370152746     0.00019646069042     0.00014061887152     0.00038420882886
   19     0.00002271266305     0.00138528180732     0.00106389493649     0.00091674742490     0.00304173438535
   20     0.00000117735693     0.00002763525664     0.00002522366640     0.00001900734683     0.00005616031555
   21     0.00000042454205     0.00000691394301     0.00000945093378     0.00000588521088     0.00001888010369
   22     0.00000018444596     0.00000158083699     0.00000218526835     0.00000145758935     0.00000421415329
   23     0.00000011328049     0.00000106132455     0.00000049840036     0.00000055023344     0.00000155534045
   24     0.00000003069894     0.00000021745539     0.00000006482208     0.00000009328140     0.00000025703826
   25     0.00000004084782     0.00000020977803     0.00000010435166     0.00000010505803     0.00000019263213
   26     0.00000005161921     0.00000022620955     0.00000023265563     0.00000011791997     0.00000032143826
   27     0.00000011961353     0.00000063358035     0.00000073345253     0.00000048761739     0.00000122140620
   28     0.00000000529972     0.00000002905970     0.00000001233042     0.00000001415244     0.00000003262964
   29     0.00000000236141     0.00000001941694     0.00000000571592     0.00000000835522     0.00000001286025
   30     0.00000000633020     0.00000002549377     0.00000000573707     0.00000000627157     0.00000002631219
   31     0.00000001423830     0.00000001989213     0.00000001334560     0.00000001349468     0.00000002467959
   32     0.00000001164359     0.00000003426507     0.00000001034638     0.00000001444085     0.00000000790367
   33     0.00000000387465     0.00000000541961     0.00000000316207     0.00000000353635     0.00000000522519
   34     0.00000000947964     0.00000001745301     0.00000000989763     0.00000001592995     0.00000002584020
   35     0.00000000205452     0.00000002079295     0.00000000622403     0.00000000340512     0.00000000977292
   36     0.00000037701028     0.00000705848814     0.00000227648259     0.00000171447088     0.00000430574814
   37     0.00002419851372     0.00208106804832     0.00052665503568     0.00055752894820     0.00167847008275
   38     0.08248318964281     0.00131451276251     0.00025619960255     0.00004069372058     0.00002691689273
   39     0.01167033706202     0.01623886376125     0.01524784082785     0.00118834610504     0.00040333936663
   40     0.01466311174564     0.01641215920460     0.00178020386045     0.00043147068308     0.00066592006447
   41     0.88003278288502     0.00056015221826     0.00026990498309     0.00005386105105     0.00010609744985
   42     0.00049939779331     0.07544359576018     0.87656526082626     0.08069076706535     0.01053879120106
   43     0.00004553274877     0.01179642664510     0.07641833839961     0.87593908026132     0.08919115054739
   44     0.00001153162448     0.00221185092240     0.00220571804448     0.00326009877425     0.02763560824541
   45     0.00000181084246     0.00002109965535     0.00002859764540     0.00002935841620     0.00008194896232
   46     0.00000064650450     0.00000811612974     0.00000485297257     0.00000634318570     0.00001681579296
   47     0.00000486854005     0.00012016002904     0.00008541188524     0.00011967502544     0.00036330828399
   48     0.00000030891121     0.00000510513139     0.00000299754592     0.00000366512249     0.00001140164665
   49     0.00000003338759     0.00000041881268     0.00000040192566     0.00000027664010     0.00000077679207
   50     0.00000000355677     0.00000001415457     0.00000000713069     0.00000000769654     0.00000002171312
   51     0.00000000162782     0.00000001838024     0.00000002813480     0.00000001110115     0.00000004958105
   52     0.00000000734952     0.00000007403539     0.00000006088636     0.00000004212317     0.00000013779277
   53     0.00000000047990     0.00000000543420     0.00000000173407     0.00000000152590     0.00000000584881
   54     0.00000000060202     0.00000000690873     0.00000000284238     0.00000000199559     0.00000000440221
   55     0.00000000034121     0.00000000341684     0.00000000415152     0.00000000234235     0.00000000230017
   56     0.00000000077628     0.00000000289084     0.00000000091584     0.00000000149769     0.00000000172694
   57     0.00000000104714     0.00000000508969     0.00000000411867     0.00000000243280     0.00000000853169
   58     0.00000001390914     0.00000000753437     0.00000001754145     0.00000001276011     0.00000002103337
   59     0.00000000026010     0.00000000133005     0.00000000030782     0.00000000027573     0.00000000092913
   60     0.00000000086287     0.00000000117702     0.00000000077230     0.00000000020819     0.00000000110417
   61     0.00000000141426     0.00000000072094     0.00000000073412     0.00000000054300     0.00000000135993
   62     0.00000000120743     0.00000000222889     0.00000000139807     0.00000000115978     0.00000000168652
   63     0.00000002298625     0.00000000757264     0.00000000327160     0.00000001221335     0.00000002482042
   64     0.00000000041982     0.00000000600337     0.00000000067927     0.00000000059751     0.00000000192690
   65     0.00000000071203     0.00000000266493     0.00000000171552     0.00000000056171     0.00000000278628
   66     0.00003652174914     0.00129304844941     0.00029424841248     0.00031891569917     0.00040268572848
   67     0.00000208100206     0.00011618368928     0.00009195468650     0.00006195202116     0.00042520192275
   68     0.00000252094794     0.00012226672052     0.00004211023441     0.00005082248091     0.00010051446146

                11                  12                  13                  14                  15

    1     0.00093945483452     0.00287783887333     0.00017294217552     0.00004355829879     0.00003990099179
    2     0.00347163079527     0.02222116323533     0.00052338199942     0.00012807215463     0.00007319213716
    3     0.01842592199203     0.12088857327365     0.00178164337953     0.00077036514250     0.00042815006803
    4     0.00731303111635     0.06525608073354     0.00087859454848     0.00175322849241     0.00122587830628
    5     0.00046526553009     0.00417944277416     0.00008201268285     0.00014704224070     0.00014205014740
    6     0.00091130507556     0.00615729573599     0.00008569333446     0.00005969897692     0.00004573508381
    7     0.14423086244954     1.53288738374842     0.02043193686463     0.00429285050684     0.00154180727187
    8     0.11297257914533     0.12561331144994     0.02202388191078     0.00266489578695     0.00098301058416
    9     0.15502835420933     0.11044739803404     0.02420729681094     0.00338894582786     0.00085615367210
   10     1.50598081845245     0.10863867401267     0.16298105787562     0.01756009141729     0.00313575406882
   11     0.00000000000000     1.54126756071155     1.28174457467140     0.09014182859245     0.02164717750452
   12     1.54126756071155     0.00000000000000     0.14898023514622     0.04142420569739     0.01644563330941
   13     1.28174457467140     0.14898023514622     0.00000000000000     1.11824207004483     0.10886657503143
   14     0.09014182859245     0.04142420569739     1.11824207004483     0.00000000000000     1.32923750237565
   15     0.02164717750452     0.01644563330941     0.10886657503143     1.32923750237565     0.00000000000000
   16     0.00254399660989     0.00180757390089     0.01344599291271     0.12764675050903     1.43553345145684
   17     0.00331641096201     0.00148953478529     0.00748787132470     0.12524879693360     0.12450681372451
   18     0.00249889786283     0.00135463083937     0.01363245970868     0.12505258526783     0.12189876172409
   19     0.02457479109102     0.01479378048447     0.11931380408351     1.42186552703603     0.12169987112990
   20     0.00034615688382     0.00016604824020     0.00149131476932     0.01481954042951     0.01144315701201
   21     0.00008885895609     0.00003609740946     0.00033816273533     0.00288657608102     0.00591248570908
   22     0.00001738287191     0.00000814722219     0.00006242088239     0.00037117095257     0.00028322849048
   23     0.00000566934414     0.00000572330011     0.00001104298991     0.00013452963129     0.00036591945558
   24     0.00000103038234     0.00000080373583     0.00000183748212     0.00001359835777     0.00003945161011
   25     0.00000110559482     0.00000076254922     0.00000175362237     0.00003259323741     0.00019418729057
   26     0.00000080376969     0.00000052219971     0.00000271817947     0.00002067446383     0.00003495738128
   27     0.00000470784402     0.00000272999879     0.00001451559545     0.00011046556790     0.00033248396098
   28     0.00000013397698     0.00000007914446     0.00000019215377     0.00000304817919     0.00001410570330
   29     0.00000009125059     0.00000006101031     0.00000009874288     0.00000207349319     0.00001091796473
   30     0.00000009038094     0.00000007152969     0.00000008882265     0.00000053429788     0.00000215328473
   31     0.00000005740480     0.00000007988275     0.00000005969173     0.00000061000979     0.00000063755646
   32     0.00000004391055     0.00000002955073     0.00000002126591     0.00000019830547     0.00000033017760
   33     0.00000001936005     0.00000000836148     0.00000000781571     0.00000013347606     0.00000015836590
   34     0.00000003411081     0.00000002598750     0.00000004576375     0.00000057374729     0.00000086410226
   35     0.00000004628858     0.00000003752154     0.00000004400301     0.00000054855007     0.00000146906623
   36     0.00003432646889     0.00002708824930     0.00009669263797     0.00099167284627     0.00359054601876
   37     0.01486334601870     0.01272648772605     0.03994815818881     0.09664415795589     1.05536843701224
   38     0.00009477956209     0.00032455090458     0.00001690336771     0.00001064097825     0.00000835643643
   39     0.00029642094089     0.00111857728761     0.00006963481363     0.00002402983047     0.00000857120590
   40     0.00305070760582     0.02832156388138     0.00038346861166     0.00134254027640     0.00098447574072
   41     0.00004591940006     0.00026284845501     0.00000552820432     0.00000437657227     0.00000247647665
   42     0.00587033657022     0.01077673002051     0.00109605030726     0.00014794402754     0.00005922556723
   43     0.01584311719513     0.00395994841879     0.00137598524674     0.00040875790085     0.00009400157360
   44     0.07050103853300     0.01296229032368     0.93323201450557     0.06540135503535     0.01387078540673
   45     0.00033286251037     0.00010418065379     0.00119646999024     0.01141730337113     0.07568101691013
   46     0.00013095654382     0.00004668419416     0.00030517969722     0.00536766721966     0.01036718519867
   47     0.00521743821691     0.00136585667782     0.02158812039008     0.07612777826371     0.01064086204385
   48     0.00007620151007     0.00002443097035     0.00022146333538     0.00207440450672     0.00115356468498
   49     0.00000248412435     0.00000184478673     0.00000519372382     0.00004104852468     0.00010152932738
   50     0.00000010194317     0.00000004698875     0.00000025513324     0.00000144028701     0.00000128163766
   51     0.00000013920715     0.00000006709640     0.00000056361998     0.00000290249034     0.00000228405784
   52     0.00000075518822     0.00000037197444     0.00000225399764     0.00001580604829     0.00002033323282
   53     0.00000002022706     0.00000001674132     0.00000004390163     0.00000044476667     0.00000145139543
   54     0.00000003348907     0.00000001088746     0.00000004620635     0.00000048492844     0.00000243668063
   55     0.00000000660314     0.00000000257635     0.00000000947186     0.00000009809938     0.00000019586153
   56     0.00000000805836     0.00000000842781     0.00000001092291     0.00000011944854     0.00000052010531
   57     0.00000001593749     0.00000001402676     0.00000000887306     0.00000004701911     0.00000018857888
   58     0.00000004500564     0.00000008400175     0.00000004255568     0.00000068135011     0.00000123006731
   59     0.00000000326955     0.00000000170076     0.00000000262611     0.00000004989316     0.00000002919393
   60     0.00000000174469     0.00000000183005     0.00000000151085     0.00000000823650     0.00000001143036
   61     0.00000000542542     0.00000000146991     0.00000000091844     0.00000000569072     0.00000001360582
   62     0.00000000431699     0.00000000731904     0.00000000657799     0.00000006104508     0.00000012710767
   63     0.00000002442465     0.00000005103361     0.00000005849875     0.00000040923302     0.00000082838259
   64     0.00000001594056     0.00000000788739     0.00000000454585     0.00000021417811     0.00000060173842
   65     0.00000000775887     0.00000000586124     0.00000001662959     0.00000008450981     0.00000011147390
   66     0.00600235664608     0.00624921373510     0.00697546864210     0.01699354230510     0.05799588723476
   67     0.00405694469701     0.00094465122459     0.01207549627108     0.01752978201086     0.05854202856100
   68     0.00057295569872     0.00052339858146     0.00196511482982     0.00911271939822     0.06015564789513

                16                  17                  18                  19                  20

    1     0.00001175877956     0.00000798066921     0.00001161708937     0.00002562051645     0.00000087715064
    2     0.00002487721981     0.00001393128754     0.00001860285413     0.00005708789949     0.00000167304898
    3     0.00012324359947     0.00008214346696     0.00005440828287     0.00028545264619     0.00000692970214
    4     0.00035918556042     0.00014667537580     0.00015219778699     0.00065369519642     0.00005338974772
    5     0.00007282426383     0.00003762876198     0.00005310374042     0.00008420642725     0.00000367332879
    6     0.00001608382636     0.00000725846855     0.00001056850833     0.00002271266305     0.00000117735693
    7     0.00025849835219     0.00017955537298     0.00016370152746     0.00138528180732     0.00002763525664
    8     0.00019025558597     0.00009221836845     0.00019646069042     0.00106389493649     0.00002522366640
    9     0.00015536551547     0.00009443573531     0.00014061887152     0.00091674742490     0.00001900734683
   10     0.00041775508815     0.00028053712530     0.00038420882886     0.00304173438535     0.00005616031555
   11     0.00254399660989     0.00331641096201     0.00249889786283     0.02457479109102     0.00034615688382
   12     0.00180757390089     0.00148953478529     0.00135463083937     0.01479378048447     0.00016604824020
   13     0.01344599291271     0.00748787132470     0.01363245970868     0.11931380408351     0.00149131476932
   14     0.12764675050903     0.12524879693360     0.12505258526783     1.42186552703603     0.01481954042951
   15     1.43553345145684     0.12450681372451     0.12189876172409     0.12169987112990     0.01144315701201
   16     0.00000000000000     1.44805881982876     0.13214919089946     0.12908598433092     0.01357125175098
   17     1.44805881982876     0.00000000000000     1.39934281646549     0.12153416838349     0.10458207424097
   18     0.13214919089946     1.39934281646549     0.00000000000000     1.36443353835933     1.12360489234352
   19     0.12908598433092     0.12153416838349     1.36443353835933     0.00000000000000     0.12356486276228
   20     0.01357125175098     0.10458207424097     1.12360489234352     0.12356486276228     0.00000000000000
   21     0.00283630271605     0.03195882890583     0.08674142331178     0.02254097184955     1.31649510360745
   22     0.00036371250825     0.00330197163754     0.01444133728775     0.00200976363946     0.10168151175343
   23     0.00014558443220     0.00121882981685     0.00354808769652     0.00108204323386     0.04104387821328
   24     0.00002231675460     0.00016266042816     0.00038847300545     0.00013304294434     0.00345560794117
   25     0.00002774122976     0.00029400464404     0.00037835500821     0.00026636700034     0.00349074402014
   26     0.00002026525841     0.00013536572404     0.00048372245034     0.00011104951083     0.00241951899665
   27     0.00010366504855     0.00093854248571     0.00226539262782     0.00070898707712     0.01753166464171
   28     0.00000271512067     0.00002517171241     0.00003750196130     0.00002094861458     0.00027753832756
   29     0.00000157638874     0.00001464332228     0.00001947902952     0.00001357819764     0.00016517505139
   30     0.00000047187832     0.00000283657564     0.00000426199614     0.00000270662236     0.00003342979636
   31     0.00000038518959     0.00000260292913     0.00000405850295     0.00000234043864     0.00003068001901
   32     0.00000009493380     0.00000080339512     0.00000230511498     0.00000066721228     0.00000744501514
   33     0.00000004997043     0.00000038636429     0.00000053736229     0.00000032883551     0.00000191002733
   34     0.00000040739716     0.00000254643066     0.00000513500601     0.00000335491929     0.00002908938656
   35     0.00000053585338     0.00000374975261     0.00000589212195     0.00000272448636     0.00003362832353
   36     0.00389866115793     0.05347083399555     0.03217047616454     0.00510792046925     0.19187912948517
   37     0.11426178220033     0.01430795264603     0.00733853724917     0.01424408661002     0.00070594056564
   38     0.00000295502570     0.00000160103480     0.00000199112349     0.00000458344694     0.00000007703256
   39     0.00000226657848     0.00000111321209     0.00000125233056     0.00000783721415     0.00000032162238
   40     0.00026037011780     0.00010507817631     0.00014739860555     0.00049635694300     0.00002729761869
   41     0.00000126796064     0.00000088205162     0.00000070531434     0.00000152035204     0.00000009324768
   42     0.00001108155224     0.00001048688392     0.00000966809705     0.00006011849639     0.00000148657177
   43     0.00001734558708     0.00002268087483     0.00001385600630     0.00008901779852     0.00000135809854
   44     0.00143716236567     0.00278539248643     0.00145426397105     0.01661266582714     0.00015496274623
   45     0.87127447299723     0.07927993878414     0.01174595553403     0.00547864428701     0.00102248942427
   46     0.07689776145039     0.85728643940081     0.07459951633171     0.01107063803413     0.01455703927125
   47     0.00597799476820     0.01087194169224     0.07179069649137     0.85637177907199     0.02315401594981
   48     0.00139585158684     0.01024713062321     0.06221510007954     0.02151770234577     0.93964486478617
   49     0.00006023708615     0.00036266482097     0.00137685411390     0.00047840791224     0.01539081394627
   50     0.00000238696210     0.00001443020947     0.00003238543302     0.00001120768793     0.00020979124362
   51     0.00000268168103     0.00001642336288     0.00006647669432     0.00001736138551     0.00027786891403
   52     0.00002963916444     0.00020238334725     0.00026483875881     0.00007036939134     0.00160950545493
   53     0.00000050635464     0.00000355508901     0.00000634953846     0.00000272280509     0.00003312044302
   54     0.00000053597847     0.00000478545218     0.00000708996385     0.00000400334140     0.00005572697863
   55     0.00000007342449     0.00000035646955     0.00000072911415     0.00000030520984     0.00000486487851
   56     0.00000009962137     0.00000068576032     0.00000073631602     0.00000068643062     0.00000730907606
   57     0.00000004270418     0.00000029014309     0.00000027253711     0.00000038326891     0.00000229896541
   58     0.00000065927397     0.00000487340885     0.00000738967950     0.00000443115701     0.00002963417253
   59     0.00000001444750     0.00000007549833     0.00000008935693     0.00000009481741     0.00000039789282
   60     0.00000000532798     0.00000003980528     0.00000009068799     0.00000003419255     0.00000033777663
   61     0.00000000746677     0.00000004377690     0.00000006537478     0.00000001850197     0.00000028601922
   62     0.00000003516922     0.00000025710047     0.00000034041249     0.00000021752788     0.00000188658360
   63     0.00000035247716     0.00000303432324     0.00000601022270     0.00000314476855     0.00002919953840
   64     0.00000011967823     0.00000111127392     0.00000096583827     0.00000104289184     0.00000831150092
   65     0.00000009073864     0.00000047137936     0.00000143672846     0.00000047688781     0.00000803068302
   66     0.01580798056884     0.00127700811278     0.00321582437264     0.00136148474587     0.00037238096344
   67     0.01356635159391     0.00123928795272     0.00249427974442     0.00135831859724     0.00029571467562
   68     0.02325212402205     0.00183893944416     0.00061379834493     0.00112278612057     0.00009509898051

                21                  22                  23                  24                  25

    1     0.00000021520880     0.00000009884320     0.00000007932875     0.00000003287420     0.00000002510177
    2     0.00000047484485     0.00000018111760     0.00000021132404     0.00000004633112     0.00000005375424
    3     0.00000140445417     0.00000047397798     0.00000045377601     0.00000009186827     0.00000008400464
    4     0.00001082829769     0.00000120893182     0.00000061832477     0.00000011274960     0.00000015933256
    5     0.00000104990627     0.00000018134121     0.00000019864540     0.00000004335234     0.00000004537448
    6     0.00000042454205     0.00000018444596     0.00000011328049     0.00000003069894     0.00000004084782
    7     0.00000691394301     0.00000158083699     0.00000106132455     0.00000021745539     0.00000020977803
    8     0.00000945093378     0.00000218526835     0.00000049840036     0.00000006482208     0.00000010435166
    9     0.00000588521088     0.00000145758935     0.00000055023344     0.00000009328140     0.00000010505803
   10     0.00001888010369     0.00000421415329     0.00000155534045     0.00000025703826     0.00000019263213
   11     0.00008885895609     0.00001738287191     0.00000566934414     0.00000103038234     0.00000110559482
   12     0.00003609740946     0.00000814722219     0.00000572330011     0.00000080373583     0.00000076254922
   13     0.00033816273533     0.00006242088239     0.00001104298991     0.00000183748212     0.00000175362237
   14     0.00288657608102     0.00037117095257     0.00013452963129     0.00001359835777     0.00003259323741
   15     0.00591248570908     0.00028322849048     0.00036591945558     0.00003945161011     0.00019418729057
   16     0.00283630271605     0.00036371250825     0.00014558443220     0.00002231675460     0.00002774122976
   17     0.03195882890583     0.00330197163754     0.00121882981685     0.00016266042816     0.00029400464404
   18     0.08674142331178     0.01444133728775     0.00354808769652     0.00038847300545     0.00037835500821
   19     0.02254097184955     0.00200976363946     0.00108204323386     0.00013304294434     0.00026636700034
   20     1.31649510360745     0.10168151175343     0.04104387821328     0.00345560794117     0.00349074402014
   21     0.00000000000000     0.97449731104649     0.10477135752138     0.01448934995585     0.01114491646399
   22     0.97449731104649     0.00000000000000     1.40313114021048     0.12753246809421     0.12403773417584
   23     0.10477135752138     1.40313114021048     0.00000000000000     1.46081997707630     0.12594301658097
   24     0.01448934995585     0.12753246809421     1.46081997707630     0.00000000000000     1.40320994528661
   25     0.01114491646399     0.12403773417584     0.12594301658097     1.40320994528661     0.00000000000000
   26     0.01478607804186     0.12693107339309     0.12945969030864     0.12524988639902     1.39579499344880
   27     0.11107379521954     1.38294143102289     0.12362210698189     0.13036707528698     0.12766989546814
   28     0.00073013441562     0.00906824294312     0.01444780048539     0.10901096694989     1.01632108190204
   29     0.00039505271983     0.00440232451759     0.00199136289143     0.02175034472542     0.08779548218285
   30     0.00008640268865     0.00097039645810     0.00179215712439     0.01423735949005     0.01987071687591
   31     0.00007288874927     0.00134702324805     0.00796766226773     0.02183269231120     0.01716536154147
   32     0.00006456828316     0.00067094032842     0.00091675900219     0.00247602439531     0.00392424101118
   33     0.00000835146757     0.00010861954005     0.00021402171442     0.00062762010366     0.00106586506210
   34     0.00010016578342     0.00217149706130     0.00216020748522     0.00585589833371     0.02096071412889
   35     0.00010007111873     0.00106654204289     0.00094369618249     0.00476760871058     0.02138241126599
   36     2.16937151877762     0.13772614677636     0.02617355185940     0.00338000779377     0.00650817918936
[...]
   15     0.00000052010531     0.00000018857888     0.00000123006731     0.00000002919393     0.00000001143036
   16     0.00000009962137     0.00000004270418     0.00000065927397     0.00000001444750     0.00000000532798
   17     0.00000068576032     0.00000029014309     0.00000487340885     0.00000007549833     0.00000003980528
   18     0.00000073631602     0.00000027253711     0.00000738967950     0.00000008935693     0.00000009068799
   19     0.00000068643062     0.00000038326891     0.00000443115701     0.00000009481741     0.00000003419255
   20     0.00000730907606     0.00000229896541     0.00002963417253     0.00000039789282     0.00000033777663
   21     0.00002642005391     0.00000686755598     0.00006396904408     0.00000189981844     0.00000073671973
   22     0.00024560696260     0.00010935220296     0.00132083375607     0.00001249602103     0.00001173606124
   23     0.00033090526295     0.00022187683627     0.00676764902497     0.00002203308694     0.00002938961373
   24     0.00078310411635     0.00068090378550     0.01818138255906     0.00008270821222     0.00007143609159
   25     0.00147233015782     0.00057612631013     0.01036767066900     0.00017587374276     0.00009937580796
   26     0.00050893605453     0.00019892942889     0.00282269109272     0.00008530366496     0.00004132758055
   27     0.00015539589478     0.00009636058017     0.00170753889121     0.00002547201284     0.00002482751927
   28     0.01244585445390     0.00102114630077     0.00568915181361     0.00069393570750     0.00012220611699
   29     0.06577322318049     0.01348960212915     0.01217953423714     0.00330321353500     0.00074155224359
   30     0.77237686347477     0.05878859032895     0.04643765527140     0.01309080817306     0.00411684514206
   31     0.05124499040725     0.82430228170495     0.82554836687974     0.01652483326028     0.02157926587480
   32     0.01436623139941     0.05156784679023     0.05928911286499     0.06756923551127     0.06251306753073
   33     0.01632019699768     0.02443855998380     0.01137553700061     0.91089148521463     0.91973574049776
   34     0.00838432404072     0.01554766593496     0.01925615087723     0.01616799141070     0.01247894046167
   35     0.02334975389813     0.00184924138414     0.00714545066624     0.01254693361715     0.00175369656572
   36     0.00001605031217     0.00000520235238     0.00004178512693     0.00000106115588     0.00000054318308
   37     0.00000003055299     0.00000001957548     0.00000009422508     0.00000000355437     0.00000000299154
   38     0.00000000002235     0.00000000006999     0.00000000034143     0.00000000002352     0.00000000003035
   39     0.00000000012832     0.00000000006000     0.00000000012415     0.00000000003196     0.00000000006271
   40     0.00000000790831     0.00000000892535     0.00000000388189     0.00000000668148     0.00000001081004
   41     0.00000000007942     0.00000000010947     0.00000000035068     0.00000000005345     0.00000000009141
   42     0.00000000011612     0.00000000015755     0.00000000057814     0.00000000002855     0.00000000004172
   43     0.00000000007557     0.00000000007565     0.00000000034116     0.00000000002513     0.00000000001165
   44     0.00000000155848     0.00000000658174     0.00000000830845     0.00000000066844     0.00000000053749
   45     0.00000000685717     0.00000000113345     0.00000005245819     0.00000000148994     0.00000000042588
   46     0.00000007158368     0.00000003507106     0.00000149012600     0.00000000778402     0.00000000625395
   47     0.00000012990707     0.00000028133568     0.00000177034402     0.00000000590191     0.00000002807806
   48     0.00001404915824     0.00000587384021     0.00001326485277     0.00000029896485     0.00000033291112
   49     0.00004505575059     0.00002341835987     0.00050782622607     0.00000213136917     0.00000240569727
   50     0.00009412775215     0.00015937138771     0.00343636425202     0.00003678340912     0.00001790213738
   51     0.00013757833247     0.00001728647950     0.00017049494703     0.00003507383011     0.00000706731214
   52     0.00001326366078     0.00000316753102     0.00004670756970     0.00000249053383     0.00000128301115
   53     0.00124536871598     0.00008910465565     0.00084451944386     0.00006464963574     0.00001997695061
   54     0.00049995579039     0.00040966370197     0.00033219211080     0.00006555758656     0.00002404378370
   55     0.02516323676467     0.00605004726038     0.00779816327292     0.00061323621017     0.00017464279419
   56     0.00000000000000     0.01053718960189     0.01762969401444     0.00843201212325     0.00172620910510
   57     0.01053718960189     0.00000000000000     0.01991382451712     0.00341199105639     0.00803220981771
   58     0.01762969401444     0.01991382451712     0.00000000000000     0.00094990701035     0.00103547254757
   59     0.00843201212325     0.00341199105639     0.00094990701035     0.00000000000000     0.03483457411403
   60     0.00172620910510     0.00803220981771     0.00103547254757     0.03483457411403     0.00000000000000
   61     0.00072843428750     0.00124437066977     0.00069781770883     0.03500421825417     0.03774795892192
   62     0.00049891641105     0.00130397277526     0.00089036569828     0.00286613754416     0.00114475430651
   63     0.00083979252400     0.00113669613492     0.00506271796849     0.00100175317674     0.00064902504425
   64     0.00626992949410     0.00042180433319     0.00095910956663     0.00796574256973     0.00065780415457
   65     0.00092365741363     0.00043337047069     0.00043307309647     0.00052860118775     0.00022386902945
   66     0.00000002194869     0.00000000618943     0.00000003563856     0.00000000181715     0.00000000049572
   67     0.00000002104793     0.00000000665416     0.00000003253424     0.00000000176704     0.00000000031254
   68     0.00000000206937     0.00000000230193     0.00000000313818     0.00000000032033     0.00000000012740

                61                  62                  63                  64                  65

    1     0.00000000070862     0.00000000096637     0.00000000369580     0.00000000024859     0.00000000020973
    2     0.00000000043556     0.00000000076888     0.00000000471749     0.00000000095669     0.00000000053175
    3     0.00000000050016     0.00000000163809     0.00000001675481     0.00000000242837     0.00000000121962
    4     0.00000000411337     0.00000000465171     0.00000007790691     0.00000001911071     0.00000000191389
    5     0.00000000382926     0.00000000195841     0.00000009393195     0.00000000198175     0.00000000283449
    6     0.00000000141426     0.00000000120743     0.00000002298625     0.00000000041982     0.00000000071203
    7     0.00000000072094     0.00000000222889     0.00000000757264     0.00000000600337     0.00000000266493
    8     0.00000000073412     0.00000000139807     0.00000000327160     0.00000000067927     0.00000000171552
    9     0.00000000054300     0.00000000115978     0.00000001221335     0.00000000059751     0.00000000056171
   10     0.00000000135993     0.00000000168652     0.00000002482042     0.00000000192690     0.00000000278628
   11     0.00000000542542     0.00000000431699     0.00000002442465     0.00000001594056     0.00000000775887
   12     0.00000000146991     0.00000000731904     0.00000005103361     0.00000000788739     0.00000000586124
   13     0.00000000091844     0.00000000657799     0.00000005849875     0.00000000454585     0.00000001662959
   14     0.00000000569072     0.00000006104508     0.00000040923302     0.00000021417811     0.00000008450981
   15     0.00000001360582     0.00000012710767     0.00000082838259     0.00000060173842     0.00000011147390
   16     0.00000000746677     0.00000003516922     0.00000035247716     0.00000011967823     0.00000009073864
   17     0.00000004377690     0.00000025710047     0.00000303432324     0.00000111127392     0.00000047137936
   18     0.00000006537478     0.00000034041249     0.00000601022270     0.00000096583827     0.00000143672846
   19     0.00000001850197     0.00000021752788     0.00000314476855     0.00000104289184     0.00000047688781
   20     0.00000028601922     0.00000188658360     0.00002919953840     0.00000831150092     0.00000803068302
   21     0.00000091191367     0.00000967019121     0.00012062267851     0.00003815075125     0.00002027423204
   22     0.00001200054491     0.00012025376597     0.00256162315061     0.00030169579268     0.00019505960530
   23     0.00002318138622     0.00011926532732     0.00235725770492     0.00021444743017     0.00019055988803
   24     0.00004206055110     0.00025181084120     0.00490815889687     0.00058810910104     0.00055316168252
   25     0.00009812339426     0.00082079757194     0.01445506144143     0.00149318843609     0.00578818906193
   26     0.00006973830482     0.00092053493968     0.02258191054238     0.00097928013834     0.00600340921002
   27     0.00003468441448     0.00030452354143     0.00943101405013     0.00045523051383     0.00048398502144
   28     0.00012067854074     0.00113162442355     0.00663190084228     0.01212841473744     0.01945712510229
   29     0.00064746268263     0.01038075381675     0.01214912402588     0.06554045696624     0.05811130725837
   30     0.00182849218358     0.00239690049029     0.00728161409670     0.02318766405723     0.01210632314738
   31     0.01288716246375     0.01334663698392     0.01901553657748     0.00828610202635     0.00255702528255
   32     0.06312613764503     0.05651312286710     0.05878967677823     0.01386329590730     0.01018749642881
   33     0.91951823888738     0.02028864354963     0.01234839339734     0.01579133035467     0.00160710140162
   34     0.01873474896410     0.88018682616669     0.77111295700098     0.04947940795919     0.06004874566903
   35     0.00383096817052     0.05944411892981     0.04376372475436     0.77072619510588     0.88922372815254
   36     0.00000056091816     0.00000333347675     0.00008042457346     0.00001555037518     0.00000638869573
   37     0.00000000179646     0.00000000933265     0.00000012651051     0.00000004303947     0.00000001055190
   38     0.00000000002243     0.00000000004192     0.00000000066344     0.00000000006409     0.00000000001145
   39     0.00000000001500     0.00000000003441     0.00000000011805     0.00000000003858     0.00000000002329
   40     0.00000000773632     0.00000000809350     0.00000002910662     0.00000000210668     0.00000000071664
   41     0.00000000030626     0.00000000020153     0.00000000115173     0.00000000001567     0.00000000002774
   42     0.00000000003454     0.00000000005063     0.00000000057717     0.00000000008544     0.00000000005544
   43     0.00000000004035     0.00000000011696     0.00000000090084     0.00000000007997     0.00000000005097
   44     0.00000000032417     0.00000000236405     0.00000000715738     0.00000000301313     0.00000000259930
   45     0.00000000025258     0.00000000352965     0.00000004220270     0.00000000484497     0.00000001647412
   46     0.00000000501714     0.00000002895930     0.00000093431037     0.00000004791200     0.00000020465090
   47     0.00000000953522     0.00000003793293     0.00000044607763     0.00000010283353     0.00000007363545
   48     0.00000014621270     0.00000117070011     0.00000982768667     0.00000359878348     0.00000139703523
   49     0.00000115358973     0.00000498660580     0.00006929913281     0.00001740335330     0.00002223866679
   50     0.00000909324714     0.00001982783653     0.00036056570927     0.00014332753802     0.00007580573133
   51     0.00001624506022     0.00016816200789     0.00377824893717     0.00011990316798     0.00256486653220
   52     0.00000304454011     0.00002654018813     0.00077284195454     0.00005546694034     0.00003040176113
   53     0.00001978029602     0.00028297372103     0.00038946648522     0.00053129892599     0.00107194934358
   54     0.00002088449509     0.00011245879947     0.00091896341674     0.00122030099044     0.00558615239398
   55     0.00022172850329     0.00030764371085     0.00049419164179     0.00093559126988     0.00112868315985
   56     0.00072843428750     0.00049891641105     0.00083979252400     0.00626992949410     0.00092365741363
   57     0.00124437066977     0.00130397277526     0.00113669613492     0.00042180433319     0.00043337047069
   58     0.00069781770883     0.00089036569828     0.00506271796849     0.00095910956663     0.00043307309647
   59     0.03500421825417     0.00286613754416     0.00100175317674     0.00796574256973     0.00052860118775
   60     0.03774795892192     0.00114475430651     0.00064902504425     0.00065780415457     0.00022386902945
   61     0.00000000000000     0.00631576590920     0.00103054906551     0.00175721666502     0.00013821218424
   62     0.00631576590920     0.00000000000000     0.02159888779729     0.00999904545319     0.00571739949546
   63     0.00103054906551     0.02159888779729     0.00000000000000     0.02386129904700     0.00859092324770
   64     0.00175721666502     0.00999904545319     0.02386129904700     0.00000000000000     0.02329514812641
   65     0.00013821218424     0.00571739949546     0.00859092324770     0.02329514812641     0.00000000000000
   66     0.00000000048990     0.00000000823785     0.00000004383233     0.00000003687372     0.00000000339276
   67     0.00000000086057     0.00000000465249     0.00000006426542     0.00000002230087     0.00000000473641
   68     0.00000000017883     0.00000000060329     0.00000000521154     0.00000000208709     0.00000000209467

                66                  67                  68

    1     0.00006599005000     0.00000205983872     0.00000334383146
    2     0.00003544001418     0.00000439266705     0.00000389210571
    3     0.00024787927181     0.00004292502818     0.00003753188507
    4     0.00041057786758     0.00006930782128     0.00006542317701
    5     0.00004708340133     0.00000279832249     0.00000536249731
    6     0.00003652174914     0.00000208100206     0.00000252094794
    7     0.00129304844941     0.00011618368928     0.00012226672052
    8     0.00029424841248     0.00009195468650     0.00004211023441
    9     0.00031891569917     0.00006195202116     0.00005082248091
   10     0.00040268572848     0.00042520192275     0.00010051446146
   11     0.00600235664608     0.00405694469701     0.00057295569872
   12     0.00624921373510     0.00094465122459     0.00052339858146
   13     0.00697546864210     0.01207549627108     0.00196511482982
   14     0.01699354230510     0.01752978201086     0.00911271939822
   15     0.05799588723476     0.05854202856100     0.06015564789513
   16     0.01580798056884     0.01356635159391     0.02325212402205
   17     0.00127700811278     0.00123928795272     0.00183893944416
   18     0.00321582437264     0.00249427974442     0.00061379834493
   19     0.00136148474587     0.00135831859724     0.00112278612057
   20     0.00037238096344     0.00029571467562     0.00009509898051
   21     0.00023674949274     0.00018309728465     0.00003758798637
   22     0.00001151174583     0.00001171037328     0.00000715982692
   23     0.00001636892644     0.00001218742726     0.00000314018181
   24     0.00000172072108     0.00000146557304     0.00000032885778
   25     0.00000890617013     0.00000662860380     0.00000053232832
   26     0.00000135062522     0.00000125637782     0.00000050091185
   27     0.00001383131089     0.00001168327369     0.00000240130081
   28     0.00000069474499     0.00000042765964     0.00000006177152
   29     0.00000049863148     0.00000037157271     0.00000003247510
   30     0.00000008882158     0.00000008577993     0.00000000683657
   31     0.00000002608338     0.00000001970942     0.00000000951635
   32     0.00000001124022     0.00000001031939     0.00000000514557
   33     0.00000000858522     0.00000000747747     0.00000000084258
   34     0.00000004972577     0.00000003264514     0.00000000721064
   35     0.00000004385060     0.00000004120143     0.00000001293011
   36     0.00014386293902     0.00011260543635     0.00002014598410
   37     0.91133094729138     0.91458557956570     0.92175369175142
   38     0.00000275098984     0.00000033893811     0.00000036169366
   39     0.00000473812462     0.00000102349880     0.00000076271855
   40     0.00035126490618     0.00001321160874     0.00001691497744
   41     0.00000124732147     0.00000017650436     0.00000010933224
   42     0.00000846039457     0.00000569604692     0.00000189829470
   43     0.00001164657724     0.00000677288967     0.00000255883367
   44     0.00065454918092     0.00145741767419     0.00017562592029
   45     0.00138121693695     0.00117136160849     0.00726370194705
   46     0.00019210252722     0.00023310891011     0.00013162972890
   47     0.00023991370306     0.00026050390760     0.00037735729487
   48     0.00004523397846     0.00004191808842     0.00004410189241
   49     0.00000446947382     0.00000329752404     0.00000167834628
   50     0.00000006928166     0.00000007357976     0.00000006046457
   51     0.00000015548546     0.00000008176801     0.00000006437193
   52     0.00000105993822     0.00000073994889     0.00000062668257
   53     0.00000006376214     0.00000005875067     0.00000001508304
   54     0.00000011043382     0.00000010153412     0.00000001708118
   55     0.00000000762840     0.00000001074251     0.00000000155855
   56     0.00000002194869     0.00000002104793     0.00000000206937
   57     0.00000000618943     0.00000000665416     0.00000000230193
   58     0.00000003563856     0.00000003253424     0.00000000313818
   59     0.00000000181715     0.00000000176704     0.00000000032033
   60     0.00000000049572     0.00000000031254     0.00000000012740
   61     0.00000000048990     0.00000000086057     0.00000000017883
   62     0.00000000823785     0.00000000465249     0.00000000060329
   63     0.00000004383233     0.00000006426542     0.00000000521154
   64     0.00000003687372     0.00000002230087     0.00000000208709
   65     0.00000000339276     0.00000000473641     0.00000000209467
   66     0.00000000000000     0.03552055889465     0.03811230327639
   67     0.03552055889465     0.00000000000000     0.03843062028437
   68     0.03811230327639     0.03843062028437     0.00000000000000



  Atomic Valences: 

 #  #
 Irrep: 1
      1:  4.3942459
      2:  4.4266736
      3:  4.6070317
      4:  4.5577229
      5:  3.8837204
      6:  4.5472890
      7:  4.7449320
      8:  4.3688319
      9:  4.5297408
     10:  3.8623514
     11:  5.0449341
     12:  3.9466926
     13:  4.0673666
     14:  4.7317275
     15:  4.6556002
     16:  4.4371616
     17:  4.4079348
     18:  4.6630647
     19:  4.4108020
     20:  4.0700636
     21:  4.9988503
     22:  4.6153496
     23:  4.4421566
     24:  4.4710075
     25:  4.7166538
     26:  4.4762398
     27:  4.4378063
     28:  4.4942687
     29:  4.2525400
     30:  4.5623288
     31:  4.5750629
     32:  4.2179457
     33:  4.2898141
     34:  4.5608865
     35:  4.5465801
     36:  2.7724074
     37:  4.1532454
     38:  1.0993563
     39:  1.1030727
     40:  1.1000700
     41:  1.0914172
     42:  1.1110168
     43:  1.0871082
     44:  1.1645696
     45:  1.1002278
     46:  1.1067555
     47:  1.1018248
     48:  1.1816983
     49:  1.1055341
     50:  1.1057767
     51:  1.1058575
     52:  1.0983181
     53:  1.1065709
     54:  1.1067544
     55:  1.1373795
     56:  1.0426092
     57:  1.0460979
     58:  1.0889687
     59:  1.1370112
     60:  1.1096208
     61:  1.1059323
     62:  1.0975009
     63:  1.0581991
     64:  1.0413152
     65:  1.1173167
     66:  1.1077023
     67:  1.1049962
     68:  1.1060724


    Psi4 stopped on: Tuesday, 03 March 2020 06:36PM
    Psi4 wall time for execution: 0:35:01.61

*** Psi4 exiting successfully. Buy a developer a beer!
