
    -----------------------------------------------------------------------
          Psi4: An Open-Source Ab Initio Electronic Structure Package
                               Psi4 1.3.2 release

                         Git: Rev {HEAD} ecbda83 


    R. M. Parrish, L. A. Burns, D. G. A. Smith, A. C. Simmonett,
    A. E. DePrince III, E. G. Hohenstein, U. Bozkaya, A. Yu. Sokolov,
    R. Di Remigio, R. M. Richard, J. F. Gonthier, A. M. James,
    H. R. McAlexander, A. Kumar, M. Saitow, X. Wang, B. P. Pritchard,
    P. Verma, H. F. Schaefer III, K. Patkowski, R. A. King, E. F. Valeev,
    F. A. Evangelista, J. M. Turney, T. D. Crawford, and C. D. Sherrill,
    J. Chem. Theory Comput. 13(7) pp 3185--3197 (2017).
    (doi: 10.1021/acs.jctc.7b00174)


                         Additional Contributions by
    P. Kraus, H. Kruse, M. H. Lechner, M. C. Schieber, R. A. Shaw,
    A. Alenaizan, R. Galvelis, Z. L. Glick, S. Lehtola, and J. P. Misiewicz

    -----------------------------------------------------------------------


    Psi4 started on: Tuesday, 14 April 2020 12:43PM

    Process ID: 114007
    Host:       node51.bme.utexas.edu
    PSIDATADIR: /home/bdw2292/miniconda3/envs/p4env/share/psi4
    Memory:     500.0 MiB
    Threads:    1
    
  ==> Input File <==

--------------------------------------------------------------------------
molecule { 
0 1
 C   -8.489986   -3.688797   -0.103926
 C   -7.173566   -3.302984   -0.386919
 C   -6.750454   -1.985933   -0.117075
 C   -7.727209   -1.126351    0.443161
 N   -8.989625   -1.478957    0.720102
 C   -9.356615   -2.739840    0.447800
 C   -5.354651   -1.485126   -0.392232
 C   -4.319517   -2.264614   -0.936055
 C   -3.093440   -1.616146   -1.113080
 N   -2.869293   -0.342204   -0.803266
 C   -3.918019    0.335805   -0.293464
 N   -5.125486   -0.192978   -0.084250
 N   -3.718959    1.665801    0.029485
 C   -2.575078    2.543924    0.126939
 C   -2.793724    3.918879    0.453023
 C   -1.666617    4.751406    0.539408
 C   -0.355428    4.312824    0.332068
 C   -0.147942    2.964147    0.023856
 C   -1.258429    2.108474   -0.077964
 N    1.131261    2.364110   -0.220483
 C    2.407537    2.859802   -0.078091
 C    3.562223    1.951137   -0.454876
 C    3.498279    0.983024   -1.470751
 C    4.597470    0.162036   -1.735347
 C    5.803524    0.293078   -1.020970
 C    5.868440    1.300153   -0.038686
 C    4.775336    2.126250    0.231641
 C    6.989143   -0.639406   -1.278282
 N    7.079298   -1.916018   -0.549249
 C    6.148367   -3.013318   -0.899205
 C    4.863292   -3.069647   -0.033102
 N    5.119711   -3.088204    1.427093
 C    5.459618   -4.387157    2.019382
 C    6.012719   -1.953993    1.768071
 C    7.306027   -1.887010    0.914266
 O    2.634787    3.980918    0.348789
 C   -4.168398    4.514577    0.710417
 H   -8.836730   -4.698021   -0.305680
 H   -6.501531   -4.041978   -0.816319
 H   -7.476264   -0.097111    0.682430
 H  -10.389358   -2.989139    0.686345
 H   -4.415031   -3.306579   -1.214693
 H   -2.224440   -2.129679   -1.523801
 H   -4.615095    2.094685    0.202998
 H   -1.801562    5.804732    0.782130
 H    0.485887    4.989167    0.416428
 H   -1.106769    1.068902   -0.323786
 H    1.082742    1.377334   -0.430808
 H    2.584336    0.875293   -2.049393
 H    4.506372   -0.602475   -2.506715
 H    6.782858    1.436379    0.537994
 H    4.841354    2.902636    0.990020
 H    7.010726   -0.883210   -2.349899
 H    7.913768   -0.086186   -1.060390
 H    5.888161   -2.980676   -2.037246
 H    6.883190   -4.286284   -0.679947
 H    4.144797   -4.162098   -0.360732
 H    4.109988   -2.019948   -0.280774
 H    6.419875   -4.752982    1.638323
 H    4.682576   -5.124326    1.786576
 H    5.522541   -4.300038    3.110213
 H    6.313722   -2.017948    3.030338
 H    5.267365   -0.777454    1.578533
 H    8.115966   -3.068863    1.246531
 H    7.954032   -0.950539    1.209825
 H   -4.714231    3.996719    1.511944
 H   -4.790054    4.467942   -0.187924
 H   -4.124036    5.566216    1.005091
}
memory 20GB
set_num_threads(6)
psi4_io.set_default_path("/scratch/bdw2292")
set freeze_core True
E, wfn = energy('mp2/6-311++G**',return_wfn=True)
oeprop(wfn,"WIBERG_LOWDIN_INDICES")
clean()
--------------------------------------------------------------------------

  Memory set to  18.626 GiB by Python driver.
  Threads set to 6 by Python driver.
    SCF Algorithm Type (re)set to DF.

*** tstart() called on node51.bme.utexas.edu
*** at Tue Apr 14 12:43:43 2020

   => Loading Basis Set <=

    Name: 6-311++G**
    Role: ORBITAL
    Keyword: BASIS
    atoms 1-4, 6-9, 11, 14-19, 21-28, 30-31, 33-35, 37 entry C          line   119 file /home/bdw2292/miniconda3/envs/p4env/share/psi4/basis/6-311ppgss.gbs 
    atoms 5, 10, 12-13, 20, 29, 32                     entry N          line   140 file /home/bdw2292/miniconda3/envs/p4env/share/psi4/basis/6-311ppgss.gbs 
    atoms 36                                           entry O          line   161 file /home/bdw2292/miniconda3/envs/p4env/share/psi4/basis/6-311ppgss.gbs 
    atoms 38-68                                        entry H          line    42 file /home/bdw2292/miniconda3/envs/p4env/share/psi4/basis/6-311ppgss.gbs 


         ---------------------------------------------------------
                                   SCF
               by Justin Turney, Rob Parrish, Andy Simmonett
                          and Daniel G. A. Smith
                              RHF Reference
                        6 Threads,  19073 MiB Core
         ---------------------------------------------------------

  ==> Geometry <==

    Molecular point group: c1
    Full point group: C1

    Geometry (in Angstrom), charge = 0, multiplicity = 1:

       Center              X                  Y                   Z               Mass       
    ------------   -----------------  -----------------  -----------------  -----------------
         C           -8.401668125031    -3.742658079932    -0.079869149383    12.000000000000
         C           -7.085248125031    -3.356845079932    -0.362862149383    12.000000000000
         C           -6.662136125031    -2.039794079932    -0.093018149383    12.000000000000
         C           -7.638891125031    -1.180212079932     0.467217850617    12.000000000000
         N           -8.901307125031    -1.532818079932     0.744158850617    14.003074004430
         C           -9.268297125031    -2.793701079932     0.471856850617    12.000000000000
         C           -5.266333125031    -1.538987079932    -0.368175149383    12.000000000000
         C           -4.231199125031    -2.318475079932    -0.911998149383    12.000000000000
         C           -3.005122125031    -1.670007079932    -1.089023149383    12.000000000000
         N           -2.780975125031    -0.396065079932    -0.779209149383    14.003074004430
         C           -3.829701125031     0.281943920068    -0.269407149383    12.000000000000
         N           -5.037168125031    -0.246839079932    -0.060193149383    14.003074004430
         N           -3.630641125031     1.611939920068     0.053541850617    14.003074004430
         C           -2.486760125031     2.490062920068     0.150995850617    12.000000000000
         C           -2.705406125031     3.865017920068     0.477079850617    12.000000000000
         C           -1.578299125031     4.697544920068     0.563464850617    12.000000000000
         C           -0.267110125031     4.258962920068     0.356124850617    12.000000000000
         C           -0.059624125031     2.910285920068     0.047912850617    12.000000000000
         C           -1.170111125031     2.054612920068    -0.053907149383    12.000000000000
         N            1.219578874969     2.310248920068    -0.196426149383    14.003074004430
         C            2.495854874969     2.805940920068    -0.054034149383    12.000000000000
         C            3.650540874969     1.897275920068    -0.430819149383    12.000000000000
         C            3.586596874969     0.929162920068    -1.446694149383    12.000000000000
         C            4.685787874969     0.108174920068    -1.711290149383    12.000000000000
         C            5.891841874969     0.239216920068    -0.996913149383    12.000000000000
         C            5.956757874969     1.246291920068    -0.014629149383    12.000000000000
         C            4.863653874969     2.072388920068     0.255697850617    12.000000000000
         C            7.077460874969    -0.693267079932    -1.254225149383    12.000000000000
         N            7.167615874969    -1.969879079932    -0.525192149383    14.003074004430
         C            6.236684874969    -3.067179079932    -0.875148149383    12.000000000000
         C            4.951609874969    -3.123508079932    -0.009045149383    12.000000000000
         N            5.208028874969    -3.142065079932     1.451149850617    14.003074004430
         C            5.547935874969    -4.441018079932     2.043438850617    12.000000000000
         C            6.101036874969    -2.007854079932     1.792127850617    12.000000000000
         C            7.394344874969    -1.940871079932     0.938322850617    12.000000000000
         O            2.723104874969     3.927056920068     0.372845850617    15.994914619570
         C           -4.080080125031     4.460715920068     0.734473850617    12.000000000000
         H           -8.748412125031    -4.751882079932    -0.281623149383     1.007825032230
         H           -6.413213125031    -4.095839079932    -0.792262149383     1.007825032230
         H           -7.387946125031    -0.150972079932     0.706486850617     1.007825032230
         H          -10.301040125031    -3.043000079932     0.710401850617     1.007825032230
         H           -4.326713125031    -3.360440079932    -1.190636149383     1.007825032230
         H           -2.136122125031    -2.183540079932    -1.499744149383     1.007825032230
         H           -4.526777125031     2.040823920068     0.227054850617     1.007825032230
         H           -1.713244125031     5.750870920068     0.806186850617     1.007825032230
         H            0.574204874969     4.935305920068     0.440484850617     1.007825032230
         H           -1.018451125031     1.015040920068    -0.299729149383     1.007825032230
         H            1.171059874969     1.323472920068    -0.406751149383     1.007825032230
         H            2.672653874969     0.821431920068    -2.025336149383     1.007825032230
         H            4.594689874969    -0.656336079932    -2.482658149383     1.007825032230
         H            6.871175874969     1.382517920068     0.562050850617     1.007825032230
         H            4.929671874969     2.848774920068     1.014076850617     1.007825032230
         H            7.099043874969    -0.937071079932    -2.325842149383     1.007825032230
         H            8.002085874969    -0.140047079932    -1.036333149383     1.007825032230
         H            5.976478874969    -3.034537079932    -2.013189149383     1.007825032230
         H            6.971507874969    -4.340145079932    -0.655890149383     1.007825032230
         H            4.233114874969    -4.215959079932    -0.336675149383     1.007825032230
         H            4.198305874969    -2.073809079932    -0.256717149383     1.007825032230
         H            6.508192874969    -4.806843079932     1.662379850617     1.007825032230
         H            4.770893874969    -5.178187079932     1.810632850617     1.007825032230
         H            5.610858874969    -4.353899079932     3.134269850617     1.007825032230
         H            6.402039874969    -2.071809079932     3.054394850617     1.007825032230
         H            5.355682874969    -0.831315079932     1.602589850617     1.007825032230
         H            8.204283874969    -3.122724079932     1.270587850617     1.007825032230
         H            8.042349874969    -1.004400079932     1.233881850617     1.007825032230
         H           -4.625913125031     3.942857920068     1.536000850617     1.007825032230
         H           -4.701736125031     4.414080920068    -0.163867149383     1.007825032230
         H           -4.035718125031     5.512354920068     1.029147850617     1.007825032230

  Running in c1 symmetry.

  Rotational constants: A =      0.00444  B =      0.00121  C =      0.00099 [cm^-1]
  Rotational constants: A =    132.97727  B =     36.20351  C =     29.68421 [MHz]
  Nuclear repulsion = 3523.311635708084850

  Charge       = 0
  Multiplicity = 1
  Electrons    = 262
  Nalpha       = 131
  Nbeta        = 131

  ==> Algorithm <==

  SCF Algorithm Type is DF.
  DIIS enabled.
  MOM disabled.
  Fractional occupation disabled.
  Guess Type is SAD.
  Energy threshold   = 1.00e-08
  Density threshold  = 1.00e-08
  Integral threshold = 0.00e+00

  ==> Primary Basis <==

  Basis Set: 6-311++G**
    Blend: 6-311++G**
    Number of shells: 525
    Number of basis function: 1031
    Number of Cartesian functions: 1068
    Spherical Harmonics?: true
    Max angular momentum: 2

   => Loading Basis Set <=

    Name: (6-311++G** AUX)
    Role: JKFIT
    Keyword: DF_BASIS_SCF
    atoms 1-4, 6-9, 11, 14-19, 21-28, 30-31, 33-35, 37 entry C          line   162 file /home/bdw2292/miniconda3/envs/p4env/share/psi4/basis/aug-cc-pvtz-jkfit.gbs 
    atoms 5, 10, 12-13, 20, 29, 32                     entry N          line   224 file /home/bdw2292/miniconda3/envs/p4env/share/psi4/basis/aug-cc-pvtz-jkfit.gbs 
    atoms 36                                           entry O          line   286 file /home/bdw2292/miniconda3/envs/p4env/share/psi4/basis/aug-cc-pvtz-jkfit.gbs 
    atoms 38-68                                        entry H          line    70 file /home/bdw2292/miniconda3/envs/p4env/share/psi4/basis/aug-cc-pvtz-jkfit.gbs 

  ==> Pre-Iterations <==

   -------------------------------------------------------
    Irrep   Nso     Nmo     Nalpha   Nbeta   Ndocc  Nsocc
   -------------------------------------------------------
     A       1031    1031       0       0       0       0
   -------------------------------------------------------
    Total    1031    1031     131     131     131       0
   -------------------------------------------------------

  ==> Integral Setup <==

  ==> DiskDFJK: Density-Fitted J/K Matrices <==

    J tasked:                  Yes
    K tasked:                  Yes
    wK tasked:                  No
    OpenMP threads:              6
    Integrals threads:           6
    Memory [MiB]:            14305
    Algorithm:                Core
    Integral Cache:           NONE
    Schwarz Cutoff:          1E-12
    Fitting Condition:       1E-10

   => Auxiliary Basis Set <=

  Basis Set: (6-311++G** AUX)
    Blend: AUG-CC-PVTZ-JKFIT
    Number of shells: 1544
    Number of basis function: 5274
    Number of Cartesian functions: 6552
    Spherical Harmonics?: true
    Max angular momentum: 4

  Minimum eigenvalue in the overlap matrix is 1.2932002771E-07.
  Using Symmetric Orthogonalization.

  SCF Guess: Superposition of Atomic Densities via on-the-fly atomic UHF.

  ==> Iterations <==

                           Total Energy        Delta E     RMS |[F,P]|

   @DF-RHF iter SAD: -1571.15359696328278   -1.57115e+03   0.00000e+00 
   @DF-RHF iter   1: -1571.38423932035903   -2.30642e-01   1.21508e-03 DIIS
   @DF-RHF iter   2: -1572.14772413739388   -7.63485e-01   6.41855e-04 DIIS
   @DF-RHF iter   3: -1572.34131738383417   -1.93593e-01   1.65156e-04 DIIS
   @DF-RHF iter   4: -1572.35833202728577   -1.70146e-02   6.50458e-05 DIIS
   @DF-RHF iter   5: -1572.36086746194678   -2.53543e-03   1.31191e-05 DIIS
   @DF-RHF iter   6: -1572.36101421265153   -1.46751e-04   5.79939e-06 DIIS
   @DF-RHF iter   7: -1572.36104734213200   -3.31295e-05   1.89588e-06 DIIS
   @DF-RHF iter   8: -1572.36105270092958   -5.35880e-06   7.54081e-07 DIIS
   @DF-RHF iter   9: -1572.36105361322075   -9.12291e-07   3.13206e-07 DIIS
   @DF-RHF iter  10: -1572.36105380916547   -1.95945e-07   1.42462e-07 DIIS
   @DF-RHF iter  11: -1572.36105384930352   -4.01380e-08   6.89488e-08 DIIS
   @DF-RHF iter  12: -1572.36105385969199   -1.03885e-08   2.94850e-08 DIIS
   @DF-RHF iter  13: -1572.36105386194708   -2.25509e-09   1.18116e-08 DIIS
   @DF-RHF iter  14: -1572.36105386212694   -1.79853e-10   5.92622e-09 DIIS
  Energy and wave function converged.


  ==> Post-Iterations <==

    Orbital Energies [Eh]
    ---------------------

    Doubly Occupied:                                                      

       1A    -20.524751     2A    -15.605178     3A    -15.602506  
       4A    -15.576744     5A    -15.572552     6A    -15.571078  
       7A    -15.568135     8A    -15.558321     9A    -11.373591  
      10A    -11.368624    11A    -11.333204    12A    -11.313125  
      13A    -11.312300    14A    -11.311176    15A    -11.311171  
      16A    -11.309813    17A    -11.303513    18A    -11.293192  
      19A    -11.293176    20A    -11.291305    21A    -11.283153  
      22A    -11.282206    23A    -11.273441    24A    -11.264348  
      25A    -11.263207    26A    -11.263056    27A    -11.258363  
      28A    -11.255194    29A    -11.254484    30A    -11.251373  
      31A    -11.250145    32A    -11.248888    33A    -11.246827  
      34A    -11.238755    35A    -11.233819    36A    -11.230723  
      37A    -11.223883    38A     -1.390544    39A     -1.343081  
      40A     -1.269365    41A     -1.251914    42A     -1.248477  
      43A     -1.240573    44A     -1.207126    45A     -1.202824  
      46A     -1.168245    47A     -1.140561    48A     -1.109809  
      49A     -1.072306    50A     -1.063340    51A     -1.043151  
      52A     -1.037686    53A     -1.030892    54A     -1.007375  
      55A     -0.995156    56A     -0.980497    57A     -0.947891  
      58A     -0.930898    59A     -0.920297    60A     -0.901400  
      61A     -0.869115    62A     -0.865668    63A     -0.856251  
      64A     -0.848112    65A     -0.834912    66A     -0.829176  
      67A     -0.823526    68A     -0.807900    69A     -0.778240  
      70A     -0.753194    71A     -0.738300    72A     -0.734020  
      73A     -0.717569    74A     -0.704030    75A     -0.698847  
      76A     -0.679214    77A     -0.674863    78A     -0.665612  
      79A     -0.660682    80A     -0.652900    81A     -0.649745  
      82A     -0.646144    83A     -0.638145    84A     -0.633064  
      85A     -0.623280    86A     -0.618920    87A     -0.613551  
      88A     -0.609102    89A     -0.607064    90A     -0.602306  
      91A     -0.599828    92A     -0.593263    93A     -0.591851  
      94A     -0.584861    95A     -0.583656    96A     -0.582318  
      97A     -0.581370    98A     -0.578733    99A     -0.567557  
     100A     -0.554090   101A     -0.548138   102A     -0.537490  
     103A     -0.534058   104A     -0.530017   105A     -0.528505  
     106A     -0.524292   107A     -0.514121   108A     -0.511980  
     109A     -0.510273   110A     -0.508454   111A     -0.507892  
     112A     -0.500612   113A     -0.482512   114A     -0.482027  
     115A     -0.457037   116A     -0.448453   117A     -0.439071  
     118A     -0.433237   119A     -0.431237   120A     -0.427546  
     121A     -0.414081   122A     -0.410940   123A     -0.394508  
     124A     -0.385880   125A     -0.371731   126A     -0.352268  
     127A     -0.348189   128A     -0.339357   129A     -0.317949  
     130A     -0.314209   131A     -0.288941  

    Virtual:                                                              

     132A      0.026293   133A      0.033181   134A      0.039791  
     135A      0.042568   136A      0.044229   137A      0.046088  
     138A      0.046871   139A      0.048768   140A      0.055745  
     141A      0.058623   142A      0.060934   143A      0.064144  
     144A      0.065455   145A      0.066176   146A      0.067377  
     147A      0.070558   148A      0.076137   149A      0.077353  
     150A      0.079490   151A      0.081962   152A      0.083383  
     153A      0.086052   154A      0.089053   155A      0.089913  
     156A      0.095090   157A      0.097288   158A      0.098009  
     159A      0.099087   160A      0.102706   161A      0.106119  
     162A      0.107383   163A      0.108945   164A      0.111557  
     165A      0.116035   166A      0.117284   167A      0.119732  
     168A      0.122547   169A      0.124732   170A      0.125194  
     171A      0.127593   172A      0.130844   173A      0.132094  
     174A      0.135558   175A      0.141276   176A      0.143688  
     177A      0.144999   178A      0.146856   179A      0.150625  
     180A      0.152986   181A      0.154593   182A      0.156125  
     183A      0.156431   184A      0.158045   185A      0.160700  
     186A      0.162284   187A      0.163914   188A      0.165790  
     189A      0.167951   190A      0.170998   191A      0.172426  
     192A      0.172488   193A      0.175397   194A      0.176040  
     195A      0.179498   196A      0.180349   197A      0.181685  
     198A      0.182222   199A      0.185448   200A      0.187295  
     201A      0.188639   202A      0.191662   203A      0.192642  
     204A      0.194804   205A      0.196396   206A      0.197662  
     207A      0.199082   208A      0.201520   209A      0.203408  
     210A      0.205015   211A      0.206774   212A      0.208922  
     213A      0.209587   214A      0.210619   215A      0.211635  
     216A      0.213762   217A      0.214400   218A      0.216605  
     219A      0.218474   220A      0.219895   221A      0.222489  
     222A      0.222901   223A      0.223365   224A      0.224931  
     225A      0.226311   226A      0.228635   227A      0.233336  
     228A      0.234705   229A      0.236341   230A      0.238284  
     231A      0.238754   232A      0.240501   233A      0.241819  
     234A      0.246621   235A      0.248273   236A      0.250428  
     237A      0.254261   238A      0.256427   239A      0.257782  
     240A      0.259259   241A      0.259615   242A      0.262215  
     243A      0.263475   244A      0.266283   245A      0.266757  
     246A      0.270901   247A      0.275303   248A      0.277549  
     249A      0.278984   250A      0.281951   251A      0.284415  
     252A      0.288098   253A      0.290445   254A      0.294949  
     255A      0.296039   256A      0.297792   257A      0.298397  
     258A      0.301988   259A      0.305280   260A      0.307375  
     261A      0.307927   262A      0.313221   263A      0.314431  
     264A      0.318557   265A      0.319335   266A      0.321066  
     267A      0.321994   268A      0.322913   269A      0.326556  
     270A      0.327753   271A      0.328421   272A      0.331482  
     273A      0.335187   274A      0.337420   275A      0.340199  
     276A      0.342011   277A      0.343875   278A      0.344210  
     279A      0.346068   280A      0.350164   281A      0.351891  
     282A      0.354685   283A      0.355768   284A      0.357199  
     285A      0.360944   286A      0.362340   287A      0.364881  
     288A      0.366251   289A      0.367512   290A      0.370095  
     291A      0.372271   292A      0.373252   293A      0.374761  
     294A      0.376017   295A      0.376832   296A      0.379352  
     297A      0.383552   298A      0.385427   299A      0.387950  
     300A      0.389077   301A      0.391286   302A      0.392198  
     303A      0.393085   304A      0.393698   305A      0.396726  
     306A      0.398366   307A      0.399619   308A      0.401113  
     309A      0.403598   310A      0.404482   311A      0.405404  
     312A      0.406904   313A      0.408792   314A      0.409402  
     315A      0.412791   316A      0.413993   317A      0.416205  
     318A      0.417576   319A      0.420597   320A      0.424027  
     321A      0.425303   322A      0.428640   323A      0.428761  
     324A      0.432159   325A      0.435135   326A      0.437542  
     327A      0.438968   328A      0.440427   329A      0.443537  
     330A      0.446048   331A      0.446815   332A      0.451410  
     333A      0.453067   334A      0.453647   335A      0.454501  
     336A      0.460143   337A      0.460931   338A      0.462962  
     339A      0.465873   340A      0.468138   341A      0.469728  
     342A      0.472509   343A      0.473329   344A      0.475976  
     345A      0.478811   346A      0.482354   347A      0.487848  
     348A      0.489297   349A      0.490920   350A      0.492588  
     351A      0.493320   352A      0.495794   353A      0.501539  
     354A      0.505634   355A      0.507686   356A      0.509632  
     357A      0.514809   358A      0.516215   359A      0.519564  
     360A      0.524172   361A      0.524843   362A      0.529540  
     363A      0.530968   364A      0.535417   365A      0.536858  
     366A      0.538467   367A      0.545356   368A      0.552016  
     369A      0.553247   370A      0.558248   371A      0.564152  
     372A      0.569821   373A      0.574854   374A      0.576079  
     375A      0.587226   376A      0.590901   377A      0.604101  
     378A      0.604667   379A      0.608479   380A      0.612663  
     381A      0.614761   382A      0.616972   383A      0.623284  
     384A      0.627224   385A      0.631024   386A      0.641470  
     387A      0.643594   388A      0.661554   389A      0.669527  
     390A      0.682241   391A      0.688223   392A      0.692141  
     393A      0.698731   394A      0.704414   395A      0.706505  
     396A      0.711285   397A      0.712920   398A      0.715740  
     399A      0.717345   400A      0.729534   401A      0.737964  
     402A      0.742557   403A      0.745112   404A      0.747262  
     405A      0.750966   406A      0.755374   407A      0.759401  
     408A      0.761144   409A      0.766968   410A      0.768378  
     411A      0.773469   412A      0.775801   413A      0.776194  
     414A      0.778395   415A      0.784684   416A      0.788211  
     417A      0.791015   418A      0.792020   419A      0.794244  
     420A      0.801753   421A      0.804080   422A      0.806813  
     423A      0.810646   424A      0.815492   425A      0.820249  
     426A      0.822550   427A      0.826418   428A      0.827817  
     429A      0.830977   430A      0.834574   431A      0.839436  
     432A      0.846224   433A      0.848880   434A      0.850851  
     435A      0.855498   436A      0.858666   437A      0.861855  
     438A      0.863654   439A      0.866227   440A      0.870297  
     441A      0.870728   442A      0.874281   443A      0.879659  
     444A      0.884153   445A      0.885521   446A      0.887697  
     447A      0.889885   448A      0.894135   449A      0.897315  
     450A      0.899393   451A      0.907080   452A      0.908447  
     453A      0.913737   454A      0.915183   455A      0.918406  
     456A      0.922554   457A      0.926154   458A      0.927662  
     459A      0.933757   460A      0.935048   461A      0.936543  
     462A      0.938203   463A      0.944226   464A      0.945781  
     465A      0.950123   466A      0.951971   467A      0.957806  
     468A      0.959497   469A      0.960748   470A      0.963538  
     471A      0.967966   472A      0.972844   473A      0.975799  
     474A      0.977078   475A      0.981799   476A      0.986135  
     477A      0.987643   478A      0.995721   479A      0.998733  
     480A      1.002090   481A      1.005330   482A      1.013011  
     483A      1.016913   484A      1.019494   485A      1.021964  
     486A      1.024880   487A      1.033958   488A      1.037512  
     489A      1.043500   490A      1.048411   491A      1.050703  
     492A      1.052027   493A      1.061276   494A      1.063763  
     495A      1.069620   496A      1.072856   497A      1.073710  
     498A      1.080329   499A      1.084474   500A      1.088496  
     501A      1.089348   502A      1.090847   503A      1.094695  
     504A      1.100154   505A      1.112999   506A      1.120079  
     507A      1.124715   508A      1.130020   509A      1.135582  
     510A      1.136548   511A      1.138129   512A      1.140306  
     513A      1.142500   514A      1.147307   515A      1.152667  
     516A      1.154816   517A      1.155951   518A      1.159814  
     519A      1.162068   520A      1.167627   521A      1.174030  
     522A      1.175813   523A      1.183233   524A      1.185823  
     525A      1.189843   526A      1.198774   527A      1.203718  
     528A      1.205196   529A      1.207927   530A      1.209458  
     531A      1.212218   532A      1.214890   533A      1.220483  
     534A      1.224603   535A      1.227890   536A      1.236383  
     537A      1.238262   538A      1.246214   539A      1.248651  
     540A      1.252830   541A      1.254894   542A      1.256402  
     543A      1.262331   544A      1.265298   545A      1.271234  
     546A      1.276637   547A      1.279395   548A      1.284105  
     549A      1.287323   550A      1.288999   551A      1.298471  
     552A      1.301721   553A      1.305244   554A      1.309767  
     555A      1.315003   556A      1.325838   557A      1.331025  
     558A      1.333383   559A      1.335566   560A      1.345923  
     561A      1.348251   562A      1.352681   563A      1.359909  
     564A      1.367947   565A      1.377208   566A      1.381752  
     567A      1.391951   568A      1.395156   569A      1.406479  
     570A      1.410522   571A      1.419253   572A      1.422331  
     573A      1.429068   574A      1.430902   575A      1.439463  
     576A      1.444136   577A      1.446279   578A      1.461469  
     579A      1.466767   580A      1.471076   581A      1.478752  
     582A      1.489435   583A      1.500989   584A      1.505479  
     585A      1.516917   586A      1.519829   587A      1.533285  
     588A      1.542439   589A      1.548957   590A      1.554684  
     591A      1.557273   592A      1.575935   593A      1.585755  
     594A      1.593738   595A      1.605681   596A      1.616999  
     597A      1.619483   598A      1.627175   599A      1.631923  
     600A      1.641937   601A      1.647023   602A      1.662517  
     603A      1.666201   604A      1.670052   605A      1.684935  
     606A      1.695832   607A      1.702442   608A      1.710932  
     609A      1.712529   610A      1.717711   611A      1.732431  
     612A      1.734173   613A      1.753883   614A      1.754095  
     615A      1.759533   616A      1.763800   617A      1.767183  
     618A      1.769815   619A      1.783815   620A      1.786631  
     621A      1.789434   622A      1.792700   623A      1.797339  
     624A      1.800680   625A      1.802221   626A      1.805511  
     627A      1.814287   628A      1.817980   629A      1.822529  
     630A      1.823560   631A      1.823819   632A      1.826665  
     633A      1.827856   634A      1.838060   635A      1.843819  
     636A      1.847376   637A      1.853157   638A      1.856286  
     639A      1.857003   640A      1.862427   641A      1.864662  
     642A      1.867581   643A      1.869424   644A      1.877226  
     645A      1.883413   646A      1.890257   647A      1.892663  
     648A      1.902391   649A      1.912281   650A      1.913337  
     651A      1.923106   652A      1.927729   653A      1.934157  
     654A      1.937571   655A      1.939435   656A      1.949002  
     657A      1.951208   658A      1.956230   659A      1.962274  
     660A      1.964518   661A      1.967384   662A      1.974715  
     663A      1.976086   664A      1.978421   665A      1.982906  
     666A      1.985984   667A      1.989235   668A      1.992369  
     669A      2.002783   670A      2.005087   671A      2.008864  
     672A      2.012677   673A      2.020524   674A      2.023083  
     675A      2.029325   676A      2.031301   677A      2.033885  
     678A      2.042988   679A      2.048443   680A      2.051922  
     681A      2.058628   682A      2.059290   683A      2.061856  
     684A      2.066924   685A      2.077649   686A      2.085430  
     687A      2.090290   688A      2.092313   689A      2.100249  
     690A      2.106007   691A      2.109527   692A      2.123911  
     693A      2.135663   694A      2.140417   695A      2.148713  
     696A      2.152396   697A      2.158566   698A      2.163775  
     699A      2.172161   700A      2.176167   701A      2.178328  
     702A      2.187583   703A      2.190188   704A      2.194743  
     705A      2.196982   706A      2.202693   707A      2.213337  
     708A      2.218070   709A      2.220186   710A      2.226179  
     711A      2.237551   712A      2.238400   713A      2.242180  
     714A      2.246126   715A      2.249389   716A      2.255840  
     717A      2.261631   718A      2.264280   719A      2.266947  
     720A      2.271696   721A      2.272814   722A      2.286935  
     723A      2.290302   724A      2.291983   725A      2.295395  
     726A      2.300953   727A      2.304700   728A      2.310563  
     729A      2.322225   730A      2.328900   731A      2.333523  
     732A      2.335359   733A      2.350276   734A      2.354289  
     735A      2.357880   736A      2.362369   737A      2.370719  
     738A      2.379622   739A      2.386402   740A      2.395195  
     741A      2.403068   742A      2.406985   743A      2.414325  
     744A      2.417449   745A      2.418896   746A      2.435089  
     747A      2.442890   748A      2.454439   749A      2.459087  
     750A      2.464278   751A      2.465126   752A      2.490439  
     753A      2.491998   754A      2.504141   755A      2.512967  
     756A      2.521120   757A      2.522765   758A      2.525271  
     759A      2.532894   760A      2.546009   761A      2.549037  
     762A      2.556148   763A      2.570930   764A      2.579076  
     765A      2.584019   766A      2.584107   767A      2.601899  
     768A      2.619591   769A      2.624714   770A      2.637557  
     771A      2.651366   772A      2.660126   773A      2.663234  
     774A      2.673466   775A      2.689270   776A      2.693941  
     777A      2.695122   778A      2.704188   779A      2.721731  
     780A      2.726057   781A      2.727748   782A      2.741167  
     783A      2.763217   784A      2.769975   785A      2.773354  
     786A      2.783272   787A      2.791125   788A      2.794770  
     789A      2.796241   790A      2.807370   791A      2.816739  
     792A      2.821783   793A      2.833564   794A      2.835573  
     795A      2.849443   796A      2.853532   797A      2.860432  
     798A      2.867475   799A      2.868926   800A      2.874340  
     801A      2.887963   802A      2.895791   803A      2.902271  
     804A      2.914921   805A      2.925854   806A      2.931857  
     807A      2.936182   808A      2.938960   809A      2.946836  
     810A      2.960897   811A      2.968774   812A      2.971693  
     813A      2.974234   814A      2.978004   815A      2.981719  
     816A      2.985645   817A      2.995096   818A      2.995733  
     819A      3.004883   820A      3.019639   821A      3.023708  
     822A      3.030062   823A      3.036957   824A      3.044130  
     825A      3.045716   826A      3.055049   827A      3.058712  
     828A      3.068635   829A      3.072815   830A      3.078636  
     831A      3.084007   832A      3.087566   833A      3.089865  
     834A      3.095983   835A      3.100406   836A      3.102605  
     837A      3.108007   838A      3.110768   839A      3.116391  
     840A      3.117429   841A      3.123522   842A      3.128076  
     843A      3.128663   844A      3.136468   845A      3.142231  
     846A      3.152096   847A      3.153181   848A      3.158407  
     849A      3.161252   850A      3.180049   851A      3.203695  
     852A      3.205397   853A      3.206921   854A      3.219852  
     855A      3.221311   856A      3.228441   857A      3.231504  
     858A      3.235447   859A      3.243792   860A      3.247278  
     861A      3.253659   862A      3.259033   863A      3.263831  
     864A      3.268734   865A      3.275843   866A      3.288680  
     867A      3.289052   868A      3.294590   869A      3.299839  
     870A      3.302742   871A      3.303898   872A      3.314605  
     873A      3.321763   874A      3.326729   875A      3.331981  
     876A      3.340613   877A      3.343569   878A      3.348451  
     879A      3.354091   880A      3.357330   881A      3.363977  
     882A      3.367635   883A      3.379712   884A      3.381705  
     885A      3.387793   886A      3.391981   887A      3.399614  
     888A      3.406835   889A      3.416001   890A      3.420120  
     891A      3.427042   892A      3.456821   893A      3.470219  
     894A      3.505040   895A      3.523698   896A      3.527301  
     897A      3.573301   898A      3.587541   899A      3.593469  
     900A      3.599498   901A      3.607411   902A      3.635281  
     903A      3.652913   904A      3.662968   905A      3.666555  
     906A      3.673291   907A      3.683385   908A      3.686848  
     909A      3.759768   910A      3.771629   911A      3.775359  
     912A      3.778373   913A      3.792575   914A      3.797874  
     915A      3.825790   916A      3.847711   917A      3.851061  
     918A      3.859248   919A      3.873177   920A      3.876482  
     921A      3.881148   922A      3.902006   923A      3.910361  
     924A      3.912152   925A      3.923202   926A      3.931505  
     927A      3.945514   928A      3.957951   929A      3.969975  
     930A      3.972807   931A      3.976205   932A      4.002820  
     933A      4.047828   934A      4.052854   935A      4.066443  
     936A      4.075984   937A      4.095284   938A      4.100566  
     939A      4.112635   940A      4.134842   941A      4.154754  
     942A      4.166889   943A      4.179644   944A      4.184752  
     945A      4.195367   946A      4.196706   947A      4.202918  
     948A      4.221704   949A      4.249462   950A      4.286698  
     951A      4.348233   952A      4.357030   953A      4.378416  
     954A      4.388531   955A      4.403061   956A      4.409556  
     957A      4.416083   958A      4.423913   959A      4.430688  
     960A      4.439504   961A      4.444641   962A      4.448331  
     963A      4.513266   964A      4.547463   965A      4.555352  
     966A      4.572687   967A      4.574638   968A      4.597955  
     969A      4.623722   970A      4.669793   971A      4.697796  
     972A      4.767956   973A      4.771588   974A      4.790337  
     975A      4.912043   976A      4.923568   977A      4.986849  
     978A      5.039749   979A      5.212005   980A      5.253573  
     981A      5.259576   982A      5.268193   983A      5.300132  
     984A      5.325959   985A      5.348421   986A      5.379672  
     987A      5.399870   988A      5.609453   989A      5.686299  
     990A      5.693202   991A      5.811993   992A      5.855184  
     993A      5.870639   994A      6.396825   995A     24.762483  
     996A     24.772474   997A     24.804889   998A     24.813897  
     999A     24.841904  1000A     24.851599  1001A     24.940446  
    1002A     24.948291  1003A     25.011101  1004A     25.021670  
    1005A     25.037711  1006A     25.068331  1007A     25.070348  
    1008A     25.093102  1009A     25.103662  1010A     25.107881  
    1011A     25.114914  1012A     25.135136  1013A     25.136887  
    1014A     25.140373  1015A     25.174709  1016A     25.198386  
    1017A     25.209958  1018A     25.238127  1019A     25.241065  
    1020A     25.252293  1021A     25.254623  1022A     25.313349  
    1023A     25.329720  1024A     36.942667  1025A     36.982988  
    1026A     37.015371  1027A     37.067857  1028A     37.079501  
    1029A     37.127481  1030A     37.159686  1031A     51.757692  

    Final Occupation by Irrep:
              A 
    DOCC [   131 ]

  @DF-RHF Final Energy: -1572.36105386212694

   => Energetics <=

    Nuclear Repulsion Energy =           3523.3116357080848502
    One-Electron Energy =               -9144.8159683850990405
    Two-Electron Energy =                4049.1432788148867985
    Total Energy =                      -1572.3610538621269370

Computation Completed


Properties will be evaluated at   0.000000,   0.000000,   0.000000 [a0]

Properties computed using the SCF density matrix

  Nuclear Dipole Moment: [e a0]
     X:    39.6436      Y:   -19.0631      Z:     4.7184

  Electronic Dipole Moment: [e a0]
     X:   -39.8889      Y:    16.8569      Z:    -5.5882

  Dipole Moment: [e a0]
     X:    -0.2453      Y:    -2.2062      Z:    -0.8698     Total:     2.3841

  Dipole Moment: [D]
     X:    -0.6235      Y:    -5.6077      Z:    -2.2107     Total:     6.0599


*** tstop() called on node51.bme.utexas.edu at Tue Apr 14 12:59:05 2020
Module time:
	user time   =    5249.47 seconds =      87.49 minutes
	system time =      32.12 seconds =       0.54 minutes
	total time  =        922 seconds =      15.37 minutes
Total time:
	user time   =    5249.47 seconds =      87.49 minutes
	system time =      32.12 seconds =       0.54 minutes
	total time  =        922 seconds =      15.37 minutes

*** tstart() called on node51.bme.utexas.edu
*** at Tue Apr 14 12:59:05 2020


  //>>>>>>>>>>>>>>>>>>>>>>>>>>>>>>>>>>>//
  //               DFMP2               //
  //<<<<<<<<<<<<<<<<<<<<<<<<<<<<<<<<<<<//

   => Loading Basis Set <=

    Name: (6-311++G** AUX)
    Role: RIFIT
    Keyword: DF_BASIS_MP2
    atoms 1-4, 6-9, 11, 14-19, 21-28, 30-31, 33-35, 37 entry C          line   148 file /home/bdw2292/miniconda3/envs/p4env/share/psi4/basis/aug-cc-pvtz-ri.gbs 
    atoms 5, 10, 12-13, 20, 29, 32                     entry N          line   206 file /home/bdw2292/miniconda3/envs/p4env/share/psi4/basis/aug-cc-pvtz-ri.gbs 
    atoms 36                                           entry O          line   264 file /home/bdw2292/miniconda3/envs/p4env/share/psi4/basis/aug-cc-pvtz-ri.gbs 
    atoms 38-68                                        entry H          line    30 file /home/bdw2292/miniconda3/envs/p4env/share/psi4/basis/aug-cc-pvtz-ri.gbs 

	 --------------------------------------------------------
	                          DF-MP2                         
	      2nd-Order Density-Fitted Moller-Plesset Theory     
	              RMP2 Wavefunction,   6 Threads             
	                                                         
	        Rob Parrish, Justin Turney, Andy Simmonett,      
	           Ed Hohenstein, and C. David Sherrill          
	 --------------------------------------------------------

   => Auxiliary Basis Set <=

  Basis Set: (6-311++G** AUX)
    Blend: AUG-CC-PVTZ-RI
    Number of shells: 1470
    Number of basis function: 5348
    Number of Cartesian functions: 6737
    Spherical Harmonics?: true
    Max angular momentum: 4

	 --------------------------------------------------------
	                 NBF =  1031, NAUX =  5348
	 --------------------------------------------------------
	   CLASS    FOCC     OCC    AOCC    AVIR     VIR    FVIR
	   PAIRS      37     131      94     900     900       0
	 --------------------------------------------------------

	-----------------------------------------------------------
	 ==================> DF-MP2 Energies <==================== 
	-----------------------------------------------------------
	 Reference Energy          =   -1572.3610538621269370 [Eh]
	 Singles Energy            =      -0.0000000000000000 [Eh]
	 Same-Spin Energy          =      -1.4680297064147250 [Eh]
	 Opposite-Spin Energy      =      -4.0440256750131383 [Eh]
	 Correlation Energy        =      -5.5120553814278637 [Eh]
	 Total Energy              =   -1577.8731092435548362 [Eh]
	-----------------------------------------------------------
	 ================> DF-SCS-MP2 Energies <================== 
	-----------------------------------------------------------
	 SCS Same-Spin Scale       =       0.3333333333333333 [-]
	 SCS Opposite-Spin Scale   =       1.2000000000000000 [-]
	 SCS Same-Spin Energy      =      -0.4893432354715750 [Eh]
	 SCS Opposite-Spin Energy  =      -4.8528308100157656 [Eh]
	 SCS Correlation Energy    =      -5.3421740454873401 [Eh]
	 SCS Total Energy          =   -1577.7032279076142913 [Eh]
	-----------------------------------------------------------


*** tstop() called on node51.bme.utexas.edu at Tue Apr 14 13:07:46 2020
Module time:
	user time   =    2936.85 seconds =      48.95 minutes
	system time =      17.94 seconds =       0.30 minutes
	total time  =        521 seconds =       8.68 minutes
Total time:
	user time   =    8186.32 seconds =     136.44 minutes
	system time =      50.06 seconds =       0.83 minutes
	total time  =       1443 seconds =      24.05 minutes


Properties will be evaluated at   0.000000,   0.000000,   0.000000 [a0]
OEProp: No title given, name of density matrix used for the following properties is 'SCF density'


  Wiberg Bond Indices using Orthogonal Lowdin Orbitals:

  Irrep: 1 Size: 68 x 68

                 1                   2                   3                   4                   5

    1     0.00000000000000     1.46819878321462     0.12520369682166     0.13989131499668     0.12468271943068
    2     1.46819878321462     0.00000000000000     1.39960948314523     0.12723812017700     0.12231009883823
    3     0.12520369682166     1.39960948314523     0.00000000000000     1.36403626824858     0.12014501627684
    4     0.13989131499668     0.12723812017700     1.36403626824858     0.00000000000000     1.66832851514941
    5     0.12468271943068     0.12231009883823     0.12014501627684     1.66832851514941     0.00000000000000
    6     1.46353460833854     0.13809374832167     0.13551112127605     0.15325468720339     1.63759908205628
    7     0.01485725836500     0.10351991084147     1.02424486898704     0.10470370622996     0.01406291284721
    8     0.00368560235875     0.04232976351495     0.09877116402568     0.02377867483229     0.00219495116159
    9     0.00037615756427     0.00493672107337     0.01503193456345     0.00426010206783     0.00071211425228
   10     0.00041809205839     0.00534694271227     0.00592653808960     0.00612333631353     0.00030743230339
   11     0.00088571999986     0.00335453830717     0.01814896743216     0.00708101945553     0.00044637374323
   12     0.00285980119032     0.02220201461715     0.12028706380871     0.06541155973203     0.00408135126714
   13     0.00016657186125     0.00054914120041     0.00183805228486     0.00087514607813     0.00008104169713
   14     0.00002784642893     0.00011766426737     0.00035872462177     0.00012997414141     0.00001507814587
   15     0.00001562266880     0.00004523666284     0.00006752287217     0.00003273693646     0.00000609989814
   16     0.00000186862499     0.00000933387541     0.00001353601816     0.00000924744641     0.00000104932289
   17     0.00001037878835     0.00002957272970     0.00001507576720     0.00001367990878     0.00000366042700
   18     0.00000188263516     0.00000845548081     0.00001912471899     0.00001315782763     0.00000433619780
   19     0.00001884271028     0.00008496409088     0.00012697223507     0.00009530444557     0.00001395384362
   20     0.00000015946906     0.00000089535247     0.00000226086267     0.00000165777935     0.00000015665051
   21     0.00000009063683     0.00000027887549     0.00000072505469     0.00000046939685     0.00000017205877
   22     0.00000002236803     0.00000008446348     0.00000021080383     0.00000015003528     0.00000008237900
   23     0.00000003522409     0.00000007571536     0.00000039443742     0.00000011096082     0.00000002039006
   24     0.00000001263073     0.00000002441292     0.00000011143628     0.00000001797868     0.00000001120686
   25     0.00000000783154     0.00000001356735     0.00000002797091     0.00000001567889     0.00000000989084
   26     0.00000000453256     0.00000001102974     0.00000003526099     0.00000001176886     0.00000001245841
   27     0.00000000997688     0.00000003564649     0.00000007249435     0.00000003595678     0.00000001762767
   28     0.00000000307002     0.00000000532403     0.00000000936275     0.00000000429900     0.00000000435416
   29     0.00000000105837     0.00000000278284     0.00000000583409     0.00000000198328     0.00000000136596
   30     0.00000000563643     0.00000000832215     0.00000001233148     0.00000000401905     0.00000000367218
   31     0.00000002735770     0.00000004013212     0.00000007463727     0.00000003155412     0.00000000901488
   32     0.00000001031317     0.00000002080829     0.00000009826973     0.00000000604231     0.00000000847386
   33     0.00000000208771     0.00000000397880     0.00000001452383     0.00000000164877     0.00000000297161
   34     0.00000000667182     0.00000000825761     0.00000002463090     0.00000000339318     0.00000000325506
   35     0.00000000301667     0.00000000651878     0.00000000909290     0.00000000532170     0.00000001356665
   36     0.00000009459312     0.00000024913195     0.00000038056517     0.00000026154359     0.00000005791649
   37     0.00000212035438     0.00000628408844     0.00002299893494     0.00002341844969     0.00000572067658
   38     0.88660296313615     0.07953347778725     0.01184245012323     0.00624138773888     0.01074479607895
   39     0.07786480232319     0.87048337696967     0.07276942053216     0.01160402355949     0.00392932207703
   40     0.00570366786685     0.01093756598358     0.07000828403214     0.85803571543416     0.08561371019360
   41     0.07719697200625     0.01192246038212     0.00609888810902     0.01571373927668     0.08778234619858
   42     0.00115413903849     0.01479194662523     0.01446795562777     0.00138181538992     0.00029627093390
   43     0.00004506176952     0.00028767871728     0.00145598190662     0.00032330741783     0.00008012075624
   44     0.00002832702699     0.00008442619247     0.00038288800770     0.00047232726985     0.00004227896110
   45     0.00000017584404     0.00000092050673     0.00000272061304     0.00000137240350     0.00000014231472
   46     0.00000035939214     0.00000105650367     0.00000164432862     0.00000078822610     0.00000012385063
   47     0.00000417611881     0.00002495043451     0.00007264379324     0.00003585594320     0.00000430395501
   48     0.00000013416336     0.00000069657051     0.00000212286593     0.00000082503932     0.00000016761093
   49     0.00000003844612     0.00000015465267     0.00000037235584     0.00000009579991     0.00000004581270
   50     0.00000000111871     0.00000000284680     0.00000001181832     0.00000000526246     0.00000000330630
   51     0.00000000087842     0.00000000128045     0.00000000245316     0.00000000099799     0.00000000054661
   52     0.00000000129007     0.00000000393932     0.00000000888177     0.00000000654705     0.00000000157741
   53     0.00000000093626     0.00000000079600     0.00000000102402     0.00000000036948     0.00000000030226
   54     0.00000000029946     0.00000000046558     0.00000000122175     0.00000000063453     0.00000000079050
   55     0.00000000083334     0.00000000256242     0.00000000155506     0.00000000048573     0.00000000127004
   56     0.00000000211427     0.00000000115929     0.00000000103646     0.00000000117082     0.00000000043263
   57     0.00000000292218     0.00000002267112     0.00000003221442     0.00000001827399     0.00000000553443
   58     0.00000004115900     0.00000016255768     0.00000017243712     0.00000007162801     0.00000002249724
   59     0.00000000040607     0.00000000051918     0.00000000234390     0.00000000046734     0.00000000043580
   60     0.00000000088386     0.00000000144720     0.00000000159665     0.00000000096582     0.00000000075177
   61     0.00000000062222     0.00000000042453     0.00000000105714     0.00000000016102     0.00000000019769
   62     0.00000000098089     0.00000000064233     0.00000000209923     0.00000000055934     0.00000000084299
   63     0.00000000414832     0.00000000316222     0.00000001000270     0.00000000271617     0.00000000348363
   64     0.00000000083174     0.00000000086726     0.00000000102825     0.00000000099285     0.00000000112396
   65     0.00000000056000     0.00000000044807     0.00000000053489     0.00000000026137     0.00000000050371
   66     0.00000144210106     0.00000305196884     0.00000873044695     0.00000985004771     0.00000490101868
   67     0.00000096735499     0.00000207795353     0.00000493418501     0.00001168033982     0.00000175272643
   68     0.00000007587785     0.00000030891959     0.00000092118334     0.00000086734934     0.00000021055920

                 6                   7                   8                   9                  10

    1     1.46353460833854     0.01485725836500     0.00368560235875     0.00037615756427     0.00041809205839
    2     0.13809374832167     0.10351991084147     0.04232976351495     0.00493672107337     0.00534694271227
    3     0.13551112127605     1.02424486898704     0.09877116402568     0.01503193456345     0.00592653808960
    4     0.15325468720339     0.10470370622996     0.02377867483229     0.00426010206783     0.00612333631353
    5     1.63759908205628     0.01406291284721     0.00219495116159     0.00071211425228     0.00030743230339
    6     0.00000000000000     0.01004703156398     0.00670803163950     0.00128008925124     0.00334230597503
    7     0.01004703156398     0.00000000000000     1.37743650413296     0.14656467968529     0.10994755993592
    8     0.00670803163950     1.37743650413296     0.00000000000000     1.44437924540366     0.13106703845288
    9     0.00128008925124     0.14656467968529     1.44437924540366     0.00000000000000     1.64636867829826
   10     0.00334230597503     0.10994755993592     0.13106703845288     1.64636867829826     0.00000000000000
   11     0.00084246772720     0.14254773414747     0.11364195980830     0.15123915376316     1.49622040470293
   12     0.00625475053656     1.53991283791795     0.12501846736879     0.11291691060709     0.11013445862581
   13     0.00010466257032     0.02144545852298     0.01999630956990     0.02122642555849     0.14223448876491
   14     0.00002474158470     0.00311215790112     0.00254930680730     0.00330613744244     0.03116656536290
   15     0.00001451061175     0.00081534329886     0.00143154565782     0.00055492837104     0.00326533882516
   16     0.00000427997632     0.00015353227062     0.00019745832163     0.00016431169397     0.00107341806839
   17     0.00001151422170     0.00037349916319     0.00136170276464     0.00027439694274     0.00238753521003
   18     0.00000482610070     0.00012796384351     0.00026287086853     0.00057113791903     0.00478456299476
   19     0.00003778979833     0.00138244917730     0.00330701148606     0.00631477456648     0.05904882886031
   20     0.00000027518893     0.00001442884173     0.00001685951187     0.00009151581944     0.00077781828509
   21     0.00000014272390     0.00000444649696     0.00000864629812     0.00001824062863     0.00007924889034
   22     0.00000004069665     0.00000113986138     0.00000152559162     0.00000689395437     0.00001446906736
   23     0.00000002128387     0.00000120740071     0.00000403882022     0.00001287747982     0.00002585092474
   24     0.00000001108841     0.00000013532481     0.00000038919800     0.00000445639708     0.00000209550968
   25     0.00000000843775     0.00000009955799     0.00000034115095     0.00000118499739     0.00000108946256
   26     0.00000000745498     0.00000009971759     0.00000025309216     0.00000095722092     0.00000069329936
   27     0.00000001813986     0.00000036660897     0.00000070398473     0.00000268495916     0.00000381945087
   28     0.00000000272240     0.00000003152348     0.00000007172095     0.00000027494574     0.00000027340275
   29     0.00000000106711     0.00000001546195     0.00000004800035     0.00000019260876     0.00000010468785
   30     0.00000000437934     0.00000003903457     0.00000017362643     0.00000079192533     0.00000012653374
   31     0.00000002348647     0.00000022291824     0.00000078224692     0.00000407997515     0.00000099769923
   32     0.00000000887185     0.00000012188411     0.00000015039818     0.00000124598291     0.00000015781352
   33     0.00000000266295     0.00000003087133     0.00000007077938     0.00000034976713     0.00000005576827
   34     0.00000000372831     0.00000006467118     0.00000007900343     0.00000056026617     0.00000016884222
   35     0.00000000858560     0.00000004119029     0.00000004167563     0.00000020561046     0.00000006468514
   36     0.00000013747500     0.00000343101443     0.00000894142224     0.00001024626862     0.00004780237429
   37     0.00000235323987     0.00012118617348     0.00013039165844     0.00016824661855     0.00085169959047
   38     0.08246692462926     0.00131374357572     0.00026256686338     0.00004142869485     0.00002700764845
   39     0.01165888684052     0.01611517568312     0.01557888765322     0.00122679958197     0.00042090785049
   40     0.01482413500642     0.01648333082110     0.00184398089640     0.00044407650540     0.00070473708847
   41     0.87990619428842     0.00055891610646     0.00026687767007     0.00005547176934     0.00010306053060
   42     0.00050352860494     0.07487782807733     0.87564008108407     0.08139038239976     0.01042815025399
   43     0.00004487537078     0.01172160758773     0.07531952922838     0.87493039560562     0.08946124968247
   44     0.00002854362801     0.00300054243749     0.00199172239588     0.00219888029240     0.01205486038615
   45     0.00000022932884     0.00002268164266     0.00000711109340     0.00002330097583     0.00006712727138
   46     0.00000040127431     0.00001564176931     0.00004328328768     0.00002801747334     0.00016510455567
   47     0.00000817403342     0.00039090434978     0.00099505398757     0.00469721275393     0.04152803725387
   48     0.00000018747907     0.00001122134166     0.00001440843378     0.00004499364103     0.00050209232034
   49     0.00000005629126     0.00000138483005     0.00000382017624     0.00000710212749     0.00001315827373
   50     0.00000000148485     0.00000005930307     0.00000010889098     0.00000158685381     0.00000038498004
   51     0.00000000034048     0.00000000997427     0.00000002338980     0.00000024304105     0.00000013632532
   52     0.00000000182074     0.00000003846049     0.00000006743903     0.00000048671734     0.00000078493208
   53     0.00000000026291     0.00000000308179     0.00000000865116     0.00000006874513     0.00000003932118
   54     0.00000000051653     0.00000000263680     0.00000000956834     0.00000002192773     0.00000001861493
   55     0.00000000081367     0.00000000464023     0.00000001701703     0.00000003113628     0.00000001800065
   56     0.00000000034876     0.00000000812492     0.00000005037618     0.00000031114736     0.00000003480186
   57     0.00000001153511     0.00000011774224     0.00000036719192     0.00000172485572     0.00000046823156
   58     0.00000005176505     0.00000030987703     0.00000122213770     0.00000275157498     0.00000469055203
   59     0.00000000021157     0.00000000517418     0.00000001267514     0.00000001350193     0.00000000848841
   60     0.00000000047497     0.00000000888877     0.00000003978572     0.00000019972873     0.00000002822009
   61     0.00000000009303     0.00000000255396     0.00000000810439     0.00000001846598     0.00000000781000
   62     0.00000000048266     0.00000000543439     0.00000000999356     0.00000005108271     0.00000001246599
   63     0.00000000431363     0.00000004833844     0.00000007184277     0.00000024642645     0.00000009934482
   64     0.00000000096290     0.00000000507059     0.00000001680412     0.00000009949271     0.00000001707592
   65     0.00000000031609     0.00000000311780     0.00000000654382     0.00000004355760     0.00000000767877
   66     0.00000148731168     0.00003921907677     0.00009242833213     0.00005782854178     0.00031949140918
   67     0.00000074074142     0.00002976322148     0.00009148236564     0.00004319340649     0.00026322627677
   68     0.00000009603568     0.00000396917691     0.00000586806405     0.00001794392705     0.00007132296865

                11                  12                  13                  14                  15

    1     0.00088571999986     0.00285980119032     0.00016657186125     0.00002784642893     0.00001562266880
    2     0.00335453830717     0.02220201461715     0.00054914120041     0.00011766426737     0.00004523666284
    3     0.01814896743216     0.12028706380871     0.00183805228486     0.00035872462177     0.00006752287217
    4     0.00708101945553     0.06541155973203     0.00087514607813     0.00012997414141     0.00003273693646
    5     0.00044637374323     0.00408135126714     0.00008104169713     0.00001507814587     0.00000609989814
    6     0.00084246772720     0.00625475053656     0.00010466257032     0.00002474158470     0.00001451061175
    7     0.14254773414747     1.53991283791795     0.02144545852298     0.00311215790112     0.00081534329886
    8     0.11364195980830     0.12501846736879     0.01999630956990     0.00254930680730     0.00143154565782
    9     0.15123915376316     0.11291691060709     0.02122642555849     0.00330613744244     0.00055492837104
   10     1.49622040470293     0.11013445862581     0.14223448876491     0.03116656536290     0.00326533882516
   11     0.00000000000000     1.54612634910821     1.26935161275214     0.08147646712799     0.01770479928640
   12     1.54612634910821     0.00000000000000     0.15782907145324     0.01647645126801     0.00341949580130
   13     1.26935161275214     0.15782907145324     0.00000000000000     1.12365801393468     0.10647266958377
   14     0.08147646712799     0.01647645126801     1.12365801393468     0.00000000000000     1.31368173704298
   15     0.01770479928640     0.00341949580130     0.10647266958377     1.31368173704298     0.00000000000000
   16     0.00239646222235     0.00049792596278     0.01446909343409     0.12483983516424     1.44389827119405
   17     0.00404906509128     0.00153876806753     0.01222223986027     0.11927798693834     0.12478842576042
   18     0.00231069455550     0.00041485683620     0.01306285914483     0.12236197614145     0.12066040535226
   19     0.02750849289435     0.00464015087388     0.10940598630999     1.40579378012531     0.11938634788238
   20     0.00029361158816     0.00004527662695     0.00129004909727     0.01482135524673     0.01105484530462
   21     0.00005816053944     0.00001594868370     0.00030468304532     0.00275551550165     0.00585939803214
   22     0.00001018759078     0.00000283548941     0.00005767487530     0.00036445671481     0.00028534942868
   23     0.00000748330324     0.00000225610031     0.00001150532463     0.00011414544687     0.00039516573270
   24     0.00000078482508     0.00000024939768     0.00000201897106     0.00001254610918     0.00004100952283
   25     0.00000066413060     0.00000031469205     0.00000113035603     0.00002440694306     0.00018886144721
   26     0.00000056921632     0.00000025111793     0.00000254894186     0.00001910948591     0.00003088248596
   27     0.00000325557674     0.00000087513523     0.00001215310539     0.00009594699582     0.00031571838319
   28     0.00000011179283     0.00000007030322     0.00000016889325     0.00000250801158     0.00001396117405
   29     0.00000005645351     0.00000002312289     0.00000007633088     0.00000157791336     0.00001019840986
   30     0.00000008608453     0.00000003451117     0.00000008432058     0.00000040146233     0.00000159610253
   31     0.00000036843596     0.00000021594574     0.00000013847270     0.00000075764613     0.00000059196767
   32     0.00000009947101     0.00000003704452     0.00000003847731     0.00000081186475     0.00000038190812
   33     0.00000002371603     0.00000001196165     0.00000001883655     0.00000022105756     0.00000014653025
   34     0.00000006816069     0.00000003527096     0.00000005048284     0.00000075415796     0.00000069074299
   35     0.00000005670165     0.00000007444331     0.00000007725819     0.00000049141288     0.00000145493791
   36     0.00004045526671     0.00001245067490     0.00015695951514     0.00105492369749     0.00349351053349
   37     0.00360939903266     0.00068590171577     0.03882823873995     0.09571717757906     1.05850236814076
   38     0.00009566751528     0.00032643064166     0.00001840035840     0.00000412270045     0.00000098754078
   39     0.00029002144814     0.00112521347340     0.00006717183424     0.00001878331875     0.00000323655963
   40     0.00297126058821     0.02845496917137     0.00041097989003     0.00005491460435     0.00001773021251
   41     0.00004527016098     0.00026253645890     0.00000688802045     0.00000184714921     0.00000058080539
   42     0.00576501194477     0.01069295130790     0.00102836599185     0.00011672478287     0.00006457885641
   43     0.01572606975634     0.00391062862449     0.00118851988644     0.00032993050648     0.00005630438821
   44     0.07463112199421     0.02780283770777     0.93536530096068     0.06005062825206     0.01569855478522
   45     0.00037213722220     0.00005103082102     0.00115395286345     0.01140610464114     0.07489335557562
   46     0.00014817657422     0.00006053868712     0.00052727679839     0.00524653791248     0.01053340774606
   47     0.00974040537695     0.00080762254856     0.01572803605649     0.07411658795234     0.00992580460499
   48     0.00011134434644     0.00001814660706     0.00017292669856     0.00203850513330     0.00113365811113
   49     0.00000362745641     0.00000166863847     0.00000488615052     0.00003440846180     0.00011712070044
   50     0.00000015697774     0.00000004409928     0.00000034890090     0.00000165478947     0.00000175826624
   51     0.00000007603124     0.00000002291108     0.00000055328274     0.00000301288964     0.00000187161919
   52     0.00000071544291     0.00000011515950     0.00000212980642     0.00001457927978     0.00002004251106
   53     0.00000001610422     0.00000000570314     0.00000004249545     0.00000042544848     0.00000155934970
   54     0.00000002116844     0.00000000812793     0.00000003450802     0.00000039909538     0.00000230034528
   55     0.00000001764651     0.00000000227609     0.00000000777166     0.00000007302469     0.00000015689240
   56     0.00000001276180     0.00000000339220     0.00000000741855     0.00000007109791     0.00000041040055
   57     0.00000017485528     0.00000021480831     0.00000002924252     0.00000005292804     0.00000015151206
   58     0.00000065591871     0.00000019740058     0.00000031132787     0.00000064330812     0.00000153053138
   59     0.00000000737128     0.00000000225018     0.00000000402406     0.00000005538183     0.00000002880759
   60     0.00000000938090     0.00000000495502     0.00000000410867     0.00000001664411     0.00000001665612
   61     0.00000000342806     0.00000000271363     0.00000000136997     0.00000001230411     0.00000001300693
   62     0.00000000736392     0.00000000627098     0.00000000816860     0.00000007698827     0.00000014057404
   63     0.00000002308382     0.00000005553266     0.00000010893974     0.00000058516925     0.00000117392610
   64     0.00000002237957     0.00000000608379     0.00000000785713     0.00000009943103     0.00000044716357
   65     0.00000000608003     0.00000000303076     0.00000001124397     0.00000008139183     0.00000010880380
   66     0.00095591995062     0.00028587621805     0.01095823527960     0.01626463068385     0.05691079610498
   67     0.00073609699784     0.00023194460673     0.00899565297064     0.01623534712668     0.05876742358925
   68     0.00023981847594     0.00002973201362     0.00210237752189     0.00887442005806     0.05962083550392

                16                  17                  18                  19                  20

    1     0.00000186862499     0.00001037878835     0.00000188263516     0.00001884271028     0.00000015946906
    2     0.00000933387541     0.00002957272970     0.00000845548081     0.00008496409088     0.00000089535247
    3     0.00001353601816     0.00001507576720     0.00001912471899     0.00012697223507     0.00000226086267
    4     0.00000924744641     0.00001367990878     0.00001315782763     0.00009530444557     0.00000165777935
    5     0.00000104932289     0.00000366042700     0.00000433619780     0.00001395384362     0.00000015665051
    6     0.00000427997632     0.00001151422170     0.00000482610070     0.00003778979833     0.00000027518893
    7     0.00015353227062     0.00037349916319     0.00012796384351     0.00138244917730     0.00001442884173
    8     0.00019745832163     0.00136170276464     0.00026287086853     0.00330701148606     0.00001685951187
    9     0.00016431169397     0.00027439694274     0.00057113791903     0.00631477456648     0.00009151581944
   10     0.00107341806839     0.00238753521003     0.00478456299476     0.05904882886031     0.00077781828509
   11     0.00239646222235     0.00404906509128     0.00231069455550     0.02750849289435     0.00029361158816
   12     0.00049792596278     0.00153876806753     0.00041485683620     0.00464015087388     0.00004527662695
   13     0.01446909343409     0.01222223986027     0.01306285914483     0.10940598630999     0.00129004909727
   14     0.12483983516424     0.11927798693834     0.12236197614145     1.40579378012531     0.01482135524673
   15     1.44389827119405     0.12478842576042     0.12066040535226     0.11938634788238     0.01105484530462
   16     0.00000000000000     1.44480749985000     0.13292272029034     0.12516341307792     0.01373867152469
   17     1.44480749985000     0.00000000000000     1.39994956752180     0.12168749038605     0.10441753786503
   18     0.13292272029034     1.39994956752180     0.00000000000000     1.36501997123464     1.12401052033972
   19     0.12516341307792     0.12168749038605     1.36501997123464     0.00000000000000     0.12236518118925
   20     0.01373867152469     0.10441753786503     1.12401052033972     0.12236518118925     0.00000000000000
   21     0.00285542164714     0.03207123888176     0.08610676687409     0.02224429875892     1.31684856775180
   22     0.00036033980953     0.00329495778572     0.01454975670676     0.00200993238885     0.10312225700422
   23     0.00014534798827     0.00126135711257     0.00361098159605     0.00103906882013     0.04152187968943
   24     0.00002269606481     0.00016764955934     0.00040211261282     0.00012603656078     0.00357704411731
   25     0.00002942199652     0.00029203202648     0.00039614743913     0.00024739813975     0.00350076885119
   26     0.00002044652870     0.00013484875789     0.00048765061390     0.00010949985821     0.00245223989440
   27     0.00010615742143     0.00091941896304     0.00228141237258     0.00066175934028     0.01787003656004
   28     0.00000276266714     0.00002505811180     0.00003806109547     0.00001942908928     0.00027682971936
   29     0.00000163055872     0.00001428695625     0.00002008287898     0.00001250106408     0.00016441423393
   30     0.00000044684264     0.00000287442880     0.00000417695893     0.00000259748641     0.00003045574569
   31     0.00000044017000     0.00000286259772     0.00000403953210     0.00000315914348     0.00003416032618
   32     0.00000012772050     0.00000085657520     0.00000231166287     0.00000108091521     0.00000880963008
   33     0.00000006909136     0.00000042097947     0.00000054316744     0.00000038666236     0.00000194078333
   34     0.00000041720830     0.00000236790564     0.00000518350201     0.00000290449321     0.00003244988164
   35     0.00000057140759     0.00000357578519     0.00000573899891     0.00000191940715     0.00003456533691
   36     0.00375254834071     0.05131127582172     0.03192585073831     0.00523663544072     0.19193473947247
   37     0.11625312687245     0.01448541344345     0.00742435297968     0.01400639923952     0.00071167839932
   38     0.00000015226394     0.00000033947511     0.00000017290321     0.00000148163917     0.00000002559651
   39     0.00000072565852     0.00000102832637     0.00000128672949     0.00001227476305     0.00000016617921
   40     0.00000479945562     0.00000372990799     0.00000476272919     0.00003494710471     0.00000097812835
   41     0.00000016528374     0.00000030452656     0.00000015942095     0.00000139037049     0.00000001713768
   42     0.00000882524066     0.00004921546035     0.00002404746364     0.00018682429286     0.00000371118898
   43     0.00001733919556     0.00001871138981     0.00006136505231     0.00054804166350     0.00001072753924
   44     0.00161809866541     0.00103204761615     0.00127765937465     0.01014370859430     0.00023817825262
   45     0.87089453771754     0.07915501176096     0.01171814397677     0.00559546505759     0.00103477924031
   46     0.07742773047498     0.85856586565896     0.07520501013890     0.01112502834245     0.01482751083882
   47     0.00566508018774     0.01040728059910     0.07208024481103     0.84197254507337     0.02337059446906
   48     0.00139461773016     0.01024533307449     0.06252797777330     0.02121340905060     0.93832751166934
   49     0.00005213396902     0.00037981056497     0.00135027764919     0.00041542148667     0.01507994163837
   50     0.00000229182254     0.00001421887468     0.00003216010649     0.00001093477181     0.00021414745189
   51     0.00000244210086     0.00001602968103     0.00006704888214     0.00001676818071     0.00028140430424
   52     0.00002782528545     0.00019354973734     0.00025522545027     0.00007219491025     0.00165896859795
   53     0.00000048278955     0.00000360160456     0.00000646927071     0.00000270815349     0.00003468506919
   54     0.00000047148630     0.00000451724971     0.00000696933206     0.00000360344925     0.00005338555411
   55     0.00000006590531     0.00000037695039     0.00000071177747     0.00000035834954     0.00000494304540
   56     0.00000011257469     0.00000057509850     0.00000064343497     0.00000063623616     0.00000676226212
   57     0.00000004260001     0.00000021948099     0.00000023234470     0.00000040764972     0.00000208589407
   58     0.00000081723745     0.00000593865002     0.00000685039601     0.00000331457827     0.00003846415178
   59     0.00000001900329     0.00000008122767     0.00000008263488     0.00000010266815     0.00000036077350
   60     0.00000000766215     0.00000003936555     0.00000007794925     0.00000003142427     0.00000032317751
   61     0.00000001389841     0.00000004990762     0.00000008785032     0.00000003970921     0.00000031654291
   62     0.00000003927230     0.00000025968172     0.00000032184524     0.00000024707331     0.00000230258977
   63     0.00000040095943     0.00000379343516     0.00000673498776     0.00000409828261     0.00003554098306
   64     0.00000011651524     0.00000088648001     0.00000075593898     0.00000064717705     0.00000685916585
   65     0.00000009080103     0.00000049950154     0.00000149669324     0.00000041797182     0.00000849247353
   66     0.01455015430923     0.00125525978286     0.00269719302083     0.00118666202017     0.00032121829798
   67     0.01562533056605     0.00127392238100     0.00305870560852     0.00120338872924     0.00035531601155
   68     0.02412332648429     0.00194458460977     0.00056739535588     0.00108237185966     0.00008472005092

                21                  22                  23                  24                  25

    1     0.00000009063683     0.00000002236803     0.00000003522409     0.00000001263073     0.00000000783154
    2     0.00000027887549     0.00000008446348     0.00000007571536     0.00000002441292     0.00000001356735
    3     0.00000072505469     0.00000021080383     0.00000039443742     0.00000011143628     0.00000002797091
    4     0.00000046939685     0.00000015003528     0.00000011096082     0.00000001797868     0.00000001567889
    5     0.00000017205877     0.00000008237900     0.00000002039006     0.00000001120686     0.00000000989084
    6     0.00000014272390     0.00000004069665     0.00000002128387     0.00000001108841     0.00000000843775
    7     0.00000444649696     0.00000113986138     0.00000120740071     0.00000013532481     0.00000009955799
    8     0.00000864629812     0.00000152559162     0.00000403882022     0.00000038919800     0.00000034115095
    9     0.00001824062863     0.00000689395437     0.00001287747982     0.00000445639708     0.00000118499739
   10     0.00007924889034     0.00001446906736     0.00002585092474     0.00000209550968     0.00000108946256
   11     0.00005816053944     0.00001018759078     0.00000748330324     0.00000078482508     0.00000066413060
   12     0.00001594868370     0.00000283548941     0.00000225610031     0.00000024939768     0.00000031469205
   13     0.00030468304532     0.00005767487530     0.00001150532463     0.00000201897106     0.00000113035603
   14     0.00275551550165     0.00036445671481     0.00011414544687     0.00001254610918     0.00002440694306
   15     0.00585939803214     0.00028534942868     0.00039516573270     0.00004100952283     0.00018886144721
   16     0.00285542164714     0.00036033980953     0.00014534798827     0.00002269606481     0.00002942199652
   17     0.03207123888176     0.00329495778572     0.00126135711257     0.00016764955934     0.00029203202648
   18     0.08610676687409     0.01454975670676     0.00361098159605     0.00040211261282     0.00039614743913
   19     0.02224429875892     0.00200993238885     0.00103906882013     0.00012603656078     0.00024739813975
   20     1.31684856775180     0.10312225700422     0.04152187968943     0.00357704411731     0.00350076885119
   21     0.00000000000000     0.97327350396789     0.10433842187649     0.01445239521742     0.01103685889990
   22     0.97327350396789     0.00000000000000     1.40220086024018     0.12768575772837     0.12426427690801
   23     0.10433842187649     1.40220086024018     0.00000000000000     1.46101675873270     0.12578120476335
   24     0.01445239521742     0.12768575772837     1.46101675873270     0.00000000000000     1.40233968652879
   25     0.01103685889990     0.12426427690801     0.12578120476335     1.40233968652879     0.00000000000000
   26     0.01480733658083     0.12707183325533     0.12949266125130     0.12543947475831     1.39709854404836
   27     0.11147096922123     1.38484092181491     0.12378471808693     0.13071551539281     0.12743348317990
   28     0.00072415310680     0.00909895435146     0.01446372319182     0.10843490087856     1.01587444978412
   29     0.00038444763189     0.00439005749905     0.00199795456418     0.02181542291187     0.08768250077982
   30     0.00008728094097     0.00097053536421     0.00184043901867     0.01502253710328     0.02001794819510
   31     0.00007700756519     0.00149078660080     0.00914906874909     0.02366939938200     0.01774283346818
   32     0.00006826409210     0.00067255139025     0.00097205825619     0.00268504277489     0.00396548200590
   33     0.00000846549544     0.00011155422106     0.00024133530831     0.00067194889561     0.00106447557182
   34     0.00010753058788     0.00229355662765     0.00218454907092     0.00621172899714     0.02081656019097
   35     0.00010161537803     0.00105803039033     0.00096931479218     0.00481165732571     0.02167162917503
   36     2.17358264758645     0.13747143652873     0.02559808588349     0.00329490586094     0.00633567010715
[...]
   15     0.00000041040055     0.00000015151206     0.00000153053138     0.00000002880759     0.00000001665612
   16     0.00000011257469     0.00000004260001     0.00000081723745     0.00000001900329     0.00000000766215
   17     0.00000057509850     0.00000021948099     0.00000593865002     0.00000008122767     0.00000003936555
   18     0.00000064343497     0.00000023234470     0.00000685039601     0.00000008263488     0.00000007794925
   19     0.00000063623616     0.00000040764972     0.00000331457827     0.00000010266815     0.00000003142427
   20     0.00000676226212     0.00000208589407     0.00003846415178     0.00000036077350     0.00000032317751
   21     0.00002434024552     0.00000713512529     0.00007335563087     0.00000176029604     0.00000076898163
   22     0.00022177185127     0.00010304709743     0.00154371985687     0.00001121142107     0.00001153006820
   23     0.00033459934045     0.00024414922254     0.00791448530490     0.00002250175227     0.00003011277962
   24     0.00081554054733     0.00080405857189     0.02083217843965     0.00008114138765     0.00007354359877
   25     0.00139070543682     0.00061837353342     0.01097050122247     0.00016652053765     0.00009675871390
   26     0.00046375790098     0.00019080272816     0.00303191632036     0.00008078050118     0.00003995239824
   27     0.00012824646804     0.00010084331381     0.00187955442739     0.00002138424453     0.00002537789412
   28     0.01203875166655     0.00102147036140     0.00582807994914     0.00062933478611     0.00011519880923
   29     0.06392792454569     0.01232221018946     0.01201638678476     0.00293514438316     0.00065338012424
   30     0.79571061145207     0.05726884986307     0.04549493445224     0.01240420480029     0.00384274016472
   31     0.04912329762136     0.84470078717893     0.81528944433831     0.01637864695481     0.02036778205299
   32     0.01331069823566     0.05258011978668     0.05844705942201     0.06816744119345     0.06285804953575
   33     0.01413046917337     0.02263402814226     0.01157904614603     0.91033459952449     0.91998698490098
   34     0.00782518880812     0.01463397250614     0.01923533634614     0.01645952751786     0.01266273818761
   35     0.02118634442133     0.00196783491114     0.00704391590240     0.01228132485094     0.00168154769031
   36     0.00001384041569     0.00000432899437     0.00004322334835     0.00000086601620     0.00000052818948
   37     0.00000002469475     0.00000001169067     0.00000013380773     0.00000000333232     0.00000000122948
   38     0.00000000006967     0.00000000027643     0.00000000097280     0.00000000001986     0.00000000003979
   39     0.00000000123816     0.00000000842582     0.00000001166445     0.00000000016328     0.00000000073894
   40     0.00000000017117     0.00000000446953     0.00000000656556     0.00000000008757     0.00000000017260
   41     0.00000000003365     0.00000000045482     0.00000000333286     0.00000000001315     0.00000000001581
   42     0.00000000392708     0.00000003370839     0.00000005452921     0.00000000080555     0.00000001099206
   43     0.00000030867608     0.00000191988671     0.00000229953784     0.00000003632124     0.00000023173829
   44     0.00000000189786     0.00000000786521     0.00000002971580     0.00000000067923     0.00000000051891
   45     0.00000000665370     0.00000000155537     0.00000013341159     0.00000000190496     0.00000000048150
   46     0.00000004428383     0.00000003386400     0.00000206268393     0.00000000678805     0.00000000587756
   47     0.00000025235181     0.00000049292301     0.00000120151630     0.00000002399554     0.00000018422079
   48     0.00001744904427     0.00000623554398     0.00002659383084     0.00000034261068     0.00000038490083
   49     0.00004523090574     0.00002381087680     0.00065357814226     0.00000208373747     0.00000249059657
   50     0.00010661914915     0.00020289054305     0.00396992585426     0.00003798136093     0.00001945606276
   51     0.00011636927497     0.00001727995941     0.00017311288188     0.00003388424141     0.00000643917751
   52     0.00001240052325     0.00000353513478     0.00005187531925     0.00000201962615     0.00000130102931
   53     0.00117085077991     0.00009255605137     0.00088359463455     0.00006349666749     0.00001963009559
   54     0.00050672853620     0.00035796073738     0.00034031527115     0.00006424218074     0.00002191723172
   55     0.02152307011572     0.00567640958378     0.00787873590063     0.00048605475163     0.00013228833800
   56     0.00000000000000     0.00932801950828     0.01723978453579     0.00693757345307     0.00148335227709
   57     0.00932801950828     0.00000000000000     0.02010544861096     0.00315444935595     0.00723966779963
   58     0.01723978453579     0.02010544861096     0.00000000000000     0.00091906042914     0.00102120551341
   59     0.00693757345307     0.00315444935595     0.00091906042914     0.00000000000000     0.03484912601251
   60     0.00148335227709     0.00723966779963     0.00102120551341     0.03484912601251     0.00000000000000
   61     0.00059565242392     0.00117178827616     0.00068710388978     0.03487660116879     0.03773211083364
   62     0.00038837872084     0.00129074464141     0.00092598071699     0.00310497983920     0.00115486652746
   63     0.00079837289227     0.00096583218781     0.00507081225487     0.00093301649878     0.00067496044371
   64     0.00545101177742     0.00038600058912     0.00087516261324     0.00675242627339     0.00057716469246
   65     0.00084685287026     0.00043160128844     0.00039355004072     0.00047418688512     0.00022119406692
   66     0.00000001445857     0.00000000480546     0.00000004074478     0.00000000085073     0.00000000049877
   67     0.00000001840556     0.00000000735962     0.00000004545819     0.00000000168118     0.00000000025237
   68     0.00000000219008     0.00000000109806     0.00000000836861     0.00000000034716     0.00000000039059

                61                  62                  63                  64                  65

    1     0.00000000062222     0.00000000098089     0.00000000414832     0.00000000083174     0.00000000056000
    2     0.00000000042453     0.00000000064233     0.00000000316222     0.00000000086726     0.00000000044807
    3     0.00000000105714     0.00000000209923     0.00000001000270     0.00000000102825     0.00000000053489
    4     0.00000000016102     0.00000000055934     0.00000000271617     0.00000000099285     0.00000000026137
    5     0.00000000019769     0.00000000084299     0.00000000348363     0.00000000112396     0.00000000050371
    6     0.00000000009303     0.00000000048266     0.00000000431363     0.00000000096290     0.00000000031609
    7     0.00000000255396     0.00000000543439     0.00000004833844     0.00000000507059     0.00000000311780
    8     0.00000000810439     0.00000000999356     0.00000007184277     0.00000001680412     0.00000000654382
    9     0.00000001846598     0.00000005108271     0.00000024642645     0.00000009949271     0.00000004355760
   10     0.00000000781000     0.00000001246599     0.00000009934482     0.00000001707592     0.00000000767877
   11     0.00000000342806     0.00000000736392     0.00000002308382     0.00000002237957     0.00000000608003
   12     0.00000000271363     0.00000000627098     0.00000005553266     0.00000000608379     0.00000000303076
   13     0.00000000136997     0.00000000816860     0.00000010893974     0.00000000785713     0.00000001124397
   14     0.00000001230411     0.00000007698827     0.00000058516925     0.00000009943103     0.00000008139183
   15     0.00000001300693     0.00000014057404     0.00000117392610     0.00000044716357     0.00000010880380
   16     0.00000001389841     0.00000003927230     0.00000040095943     0.00000011651524     0.00000009080103
   17     0.00000004990762     0.00000025968172     0.00000379343516     0.00000088648001     0.00000049950154
   18     0.00000008785032     0.00000032184524     0.00000673498776     0.00000075593898     0.00000149669324
   19     0.00000003970921     0.00000024707331     0.00000409828261     0.00000064717705     0.00000041797182
   20     0.00000031654291     0.00000230258977     0.00003554098306     0.00000685916585     0.00000849247353
   21     0.00000109822683     0.00001186693482     0.00012419558862     0.00003273687365     0.00002020403106
   22     0.00001302802485     0.00013185012654     0.00252554587620     0.00024577762696     0.00019671109466
   23     0.00002479650082     0.00011795357204     0.00232224408114     0.00019210374311     0.00020032835759
   24     0.00004505246153     0.00026987702967     0.00482129620209     0.00050746911803     0.00056275637303
   25     0.00010109505007     0.00073335193515     0.01386453785003     0.00136471580522     0.00614793530450
   26     0.00006735916373     0.00079417909704     0.02022103323670     0.00083901328997     0.00649446976588
   27     0.00003356478348     0.00025384448672     0.00875039163515     0.00032301374250     0.00050821011383
   28     0.00011481827615     0.00105473299258     0.00639906609544     0.01184278033121     0.02040722821895
   29     0.00063314478203     0.01176103848954     0.01189596327647     0.06301256201934     0.05487417678721
   30     0.00169538966564     0.00206904986604     0.00709897900547     0.02113952827936     0.01249732288076
   31     0.01267617641833     0.01422916882146     0.01897678918401     0.00776227693222     0.00233685229650
   32     0.06290176001358     0.05353468257420     0.05868717090511     0.01314673620897     0.01080851013006
   33     0.91984438847402     0.02190222089941     0.01208038372811     0.01381996030413     0.00149791524207
   34     0.01992298275608     0.85426352420587     0.79090231819573     0.04814504577498     0.05809676510699
   35     0.00378396398350     0.05733536043250     0.04404939681983     0.79768412932880     0.87376567006680
   36     0.00000053986697     0.00000426176868     0.00008185369108     0.00001236427288     0.00000657167053
   37     0.00000000118927     0.00000001119132     0.00000012757549     0.00000003149351     0.00000001012689
   38     0.00000000001117     0.00000000004692     0.00000000022951     0.00000000025799     0.00000000001840
   39     0.00000000003821     0.00000000023113     0.00000000240477     0.00000000457744     0.00000000036476
   40     0.00000000003211     0.00000000004233     0.00000000018511     0.00000000011568     0.00000000003472
   41     0.00000000001697     0.00000000001940     0.00000000015843     0.00000000002816     0.00000000001029
   42     0.00000000102981     0.00000000181430     0.00000001008551     0.00000002301370     0.00000000200321
   43     0.00000005265647     0.00000002110835     0.00000002452486     0.00000003318399     0.00000001009429
   44     0.00000000019655     0.00000000054539     0.00000001071920     0.00000000198290     0.00000000271828
   45     0.00000000052268     0.00000000307877     0.00000005294885     0.00000000409809     0.00000001885324
   46     0.00000000609604     0.00000002539229     0.00000097600278     0.00000004771425     0.00000020324280
   47     0.00000001438677     0.00000002872926     0.00000037891331     0.00000005803947     0.00000006917324
   48     0.00000018335163     0.00000157185162     0.00000899372051     0.00000360803083     0.00000148441797
   49     0.00000118256470     0.00000501065580     0.00007090665357     0.00001548265958     0.00002235583841
   50     0.00000967938650     0.00002056804370     0.00038004273691     0.00012290402968     0.00007183867130
   51     0.00001521485258     0.00013475131928     0.00333889383438     0.00012071928941     0.00278351179800
   52     0.00000295063668     0.00002449257161     0.00068905703626     0.00003866225205     0.00002864549963
   53     0.00002120236160     0.00032233703373     0.00038893343680     0.00056206325598     0.00107345766288
   54     0.00002078145100     0.00010176464079     0.00086982361566     0.00114976315199     0.00585867334122
   55     0.00022275606024     0.00041055622995     0.00040974399869     0.00083597560358     0.00114958493450
   56     0.00059565242392     0.00038837872084     0.00079837289227     0.00545101177742     0.00084685287026
   57     0.00117178827616     0.00129074464141     0.00096583218781     0.00038600058912     0.00043160128844
   58     0.00068710388978     0.00092598071699     0.00507081225487     0.00087516261324     0.00039355004072
   59     0.03487660116879     0.00310497983920     0.00093301649878     0.00675242627339     0.00047418688512
   60     0.03773211083364     0.00115486652746     0.00067496044371     0.00057716469246     0.00022119406692
   61     0.00000000000000     0.00694792943748     0.00104337619401     0.00146471849235     0.00012848728102
   62     0.00694792943748     0.00000000000000     0.01912202963510     0.00901010327328     0.00564409800116
   63     0.00104337619401     0.01912202963510     0.00000000000000     0.01914180998511     0.00820215220471
   64     0.00146471849235     0.00901010327328     0.01914180998511     0.00000000000000     0.02148543086035
   65     0.00012848728102     0.00564409800116     0.00820215220471     0.02148543086035     0.00000000000000
   66     0.00000000056340     0.00000000789177     0.00000004714536     0.00000002276607     0.00000000244641
   67     0.00000000055762     0.00000000588837     0.00000006889920     0.00000002052572     0.00000000496611
   68     0.00000000020643     0.00000000067428     0.00000000782986     0.00000000053454     0.00000000134057

                66                  67                  68

    1     0.00000144210106     0.00000096735499     0.00000007587785
    2     0.00000305196884     0.00000207795353     0.00000030891959
    3     0.00000873044695     0.00000493418501     0.00000092118334
    4     0.00000985004771     0.00001168033982     0.00000086734934
    5     0.00000490101868     0.00000175272643     0.00000021055920
    6     0.00000148731168     0.00000074074142     0.00000009603568
    7     0.00003921907677     0.00002976322148     0.00000396917691
    8     0.00009242833213     0.00009148236564     0.00000586806405
    9     0.00005782854178     0.00004319340649     0.00001794392705
   10     0.00031949140918     0.00026322627677     0.00007132296865
   11     0.00095591995062     0.00073609699784     0.00023981847594
   12     0.00028587621805     0.00023194460673     0.00002973201362
   13     0.01095823527960     0.00899565297064     0.00210237752189
   14     0.01626463068385     0.01623534712668     0.00887442005806
   15     0.05691079610498     0.05876742358925     0.05962083550392
   16     0.01455015430923     0.01562533056605     0.02412332648429
   17     0.00125525978286     0.00127392238100     0.00194458460977
   18     0.00269719302083     0.00305870560852     0.00056739535588
   19     0.00118666202017     0.00120338872924     0.00108237185966
   20     0.00032121829798     0.00035531601155     0.00008472005092
   21     0.00019868298806     0.00022175637973     0.00003208000928
   22     0.00000988484670     0.00001358876565     0.00000660144918
   23     0.00001460534620     0.00001566355827     0.00000260779372
   24     0.00000155767399     0.00000178373235     0.00000034129678
   25     0.00000702412405     0.00000820397767     0.00000031346659
   26     0.00000098704083     0.00000135070849     0.00000027952096
   27     0.00001063452617     0.00001378762000     0.00000170030131
   28     0.00000053895939     0.00000052933127     0.00000004532696
   29     0.00000037530249     0.00000046003001     0.00000001792076
   30     0.00000006012142     0.00000008364436     0.00000001022280
   31     0.00000002679618     0.00000002861046     0.00000000626389
   32     0.00000000919544     0.00000001004898     0.00000001450123
   33     0.00000000535768     0.00000000633621     0.00000000161053
   34     0.00000003333479     0.00000003113909     0.00000000987206
   35     0.00000003057729     0.00000005062339     0.00000000624887
   36     0.00012760909253     0.00012848825489     0.00001716940348
   37     0.91801358008221     0.91979445010493     0.92005097582484
   38     0.00000055888248     0.00000026033240     0.00000001468851
   39     0.00000067664151     0.00000049018410     0.00000004961756
   40     0.00000396385939     0.00000311709532     0.00000340636137
   41     0.00000019526555     0.00000011717483     0.00000001475110
   42     0.00000430557271     0.00000359161556     0.00000051163126
   43     0.00000991612348     0.00000734098174     0.00000412742745
   44     0.00578998002372     0.00446365998858     0.00119981416640
   45     0.00120766525509     0.00132031344034     0.00786787605546
   46     0.00021818954959     0.00020639904117     0.00012855625642
   47     0.00018934386813     0.00018604552376     0.00035992232399
   48     0.00003962997952     0.00004244569164     0.00004120616581
   49     0.00000476533874     0.00000410983203     0.00000103080510
   50     0.00000006715337     0.00000010354446     0.00000004534181
   51     0.00000012321768     0.00000007924120     0.00000007010872
   52     0.00000107492461     0.00000071233596     0.00000049394249
   53     0.00000005491878     0.00000007576133     0.00000001034793
   54     0.00000008056717     0.00000011659189     0.00000000987694
   55     0.00000000498330     0.00000000882887     0.00000000170944
   56     0.00000001445857     0.00000001840556     0.00000000219008
   57     0.00000000480546     0.00000000735962     0.00000000109806
   58     0.00000004074478     0.00000004545819     0.00000000836861
   59     0.00000000085073     0.00000000168118     0.00000000034716
   60     0.00000000049877     0.00000000025237     0.00000000039059
   61     0.00000000056340     0.00000000055762     0.00000000020643
   62     0.00000000789177     0.00000000588837     0.00000000067428
   63     0.00000004714536     0.00000006889920     0.00000000782986
   64     0.00000002276607     0.00000002052572     0.00000000053454
   65     0.00000000244641     0.00000000496611     0.00000000134057
   66     0.00000000000000     0.03537146882672     0.03920656855323
   67     0.03537146882672     0.00000000000000     0.03911624332429
   68     0.03920656855323     0.03911624332429     0.00000000000000



  Atomic Valences: 

 #  #
 Irrep: 1
      1:  4.3934427
      2:  4.4260669
      3:  4.6065028
      4:  4.5591365
      5:  3.8835026
      6:  4.5461179
      7:  4.7399891
      8:  4.3704503
      9:  4.5260178
     10:  3.9171064
     11:  5.0011916
     12:  3.9148520
     13:  4.0333890
     14:  4.6581769
     15:  4.6242333
     16:  4.4393322
     17:  4.4057872
     18:  4.6647373
     19:  4.4119662
     20:  4.0710704
     21:  5.0011807
     22:  4.6181874
     23:  4.4431114
     24:  4.4765940
     25:  4.7178279
     26:  4.4745223
     27:  4.4375880
     28:  4.5032320
     29:  4.2460551
     30:  4.5602262
     31:  4.5757813
     32:  4.2193957
     33:  4.2851021
     34:  4.5695044
     35:  4.5583665
     36:  2.7680593
     37:  4.1514801
     38:  1.0988622
     39:  1.1030229
     40:  1.0999896
     41:  1.0910365
     42:  1.1104383
     43:  1.0859183
     44:  1.1791289
     45:  1.1000098
     46:  1.1079865
     47:  1.1278299
     48:  1.1805961
     49:  1.1046058
     50:  1.1074828
     51:  1.1060564
     52:  1.0980335
     53:  1.1083163
     54:  1.1082453
     55:  1.0991955
     56:  1.0472241
     57:  1.0596652
     58:  1.0825132
     59:  1.1326688
     60:  1.1076058
     61:  1.1068015
     62:  1.0670807
     63:  1.0649646
     64:  1.0480735
     65:  1.0972503
     66:  1.1063588
     67:  1.1078601
     68:  1.1068133


    Psi4 stopped on: Tuesday, 14 April 2020 01:07PM
    Psi4 wall time for execution: 0:24:02.91

*** Psi4 exiting successfully. Buy a developer a beer!
