 Entering Gaussian System, Link 0=g09
 Input=MOLECULE0-opt-23-22-21-20-276.com
 Output=MOLECULE0-opt-23-22-21-20-276.log
 Initial command:
 /opt/g09gh/gaussian/g09/l1.exe /scratch/bdw2292/Gau-MOLECULE0/Gau-108229.inp -scrdir=/scratch/bdw2292/Gau-MOLECULE0/
 Entering Link 1 = /opt/g09gh/gaussian/g09/l1.exe PID=    108230.
  
 Copyright (c) 1988,1990,1992,1993,1995,1998,2003,2009, Gaussian, Inc.
                  All Rights Reserved.
  
 This is part of the Gaussian(R) 09 program.  It is based on
 the Gaussian(R) 03 system (copyright 2003, Gaussian, Inc.),
 the Gaussian(R) 98 system (copyright 1998, Gaussian, Inc.),
 the Gaussian(R) 94 system (copyright 1995, Gaussian, Inc.),
 the Gaussian 92(TM) system (copyright 1992, Gaussian, Inc.),
 the Gaussian 90(TM) system (copyright 1990, Gaussian, Inc.),
 the Gaussian 88(TM) system (copyright 1988, Gaussian, Inc.),
 the Gaussian 86(TM) system (copyright 1986, Carnegie Mellon
 University), and the Gaussian 82(TM) system (copyright 1983,
 Carnegie Mellon University). Gaussian is a federally registered
 trademark of Gaussian, Inc.
  
 This software contains proprietary and confidential information,
 including trade secrets, belonging to Gaussian, Inc.
  
 This software is provided under written license and may be
 used, copied, transmitted, or stored only in accord with that
 written license.
  
 The following legend is applicable only to US Government
 contracts under FAR:
  
                    RESTRICTED RIGHTS LEGEND
  
 Use, reproduction and disclosure by the US Government is
 subject to restrictions as set forth in subparagraphs (a)
 and (c) of the Commercial Computer Software - Restricted
 Rights clause in FAR 52.227-19.
  
 Gaussian, Inc.
 340 Quinnipiac St., Bldg. 40, Wallingford CT 06492
  
  
 ---------------------------------------------------------------
 Warning -- This program may not be used in any manner that
 competes with the business of Gaussian, Inc. or will provide
 assistance to any competitor of Gaussian, Inc.  The licensee
 of this program is prohibited from giving any competitor of
 Gaussian, Inc. access to this program.  By using this program,
 the user acknowledges that Gaussian, Inc. is engaged in the
 business of creating and licensing software in the field of
 computational chemistry and represents and warrants to the
 licensee that it is not a competitor of Gaussian, Inc. and that
 it will not use this program in any manner prohibited above.
 ---------------------------------------------------------------
  

 Cite this work as:
 Gaussian 09, Revision A.02,
 M. J. Frisch, G. W. Trucks, H. B. Schlegel, G. E. Scuseria, 
 M. A. Robb, J. R. Cheeseman, G. Scalmani, V. Barone, B. Mennucci, 
 G. A. Petersson, H. Nakatsuji, M. Caricato, X. Li, H. P. Hratchian, 
 A. F. Izmaylov, J. Bloino, G. Zheng, J. L. Sonnenberg, M. Hada, 
 M. Ehara, K. Toyota, R. Fukuda, J. Hasegawa, M. Ishida, T. Nakajima, 
 Y. Honda, O. Kitao, H. Nakai, T. Vreven, J. A. Montgomery, Jr., 
 J. E. Peralta, F. Ogliaro, M. Bearpark, J. J. Heyd, E. Brothers, 
 K. N. Kudin, V. N. Staroverov, R. Kobayashi, J. Normand, 
 K. Raghavachari, A. Rendell, J. C. Burant, S. S. Iyengar, J. Tomasi, 
 M. Cossi, N. Rega, J. M. Millam, M. Klene, J. E. Knox, J. B. Cross, 
 V. Bakken, C. Adamo, J. Jaramillo, R. Gomperts, R. E. Stratmann, 
 O. Yazyev, A. J. Austin, R. Cammi, C. Pomelli, J. W. Ochterski, 
 R. L. Martin, K. Morokuma, V. G. Zakrzewski, G. A. Voth, 
 P. Salvador, J. J. Dannenberg, S. Dapprich, A. D. Daniels, 
 O. Farkas, J. B. Foresman, J. V. Ortiz, J. Cioslowski, 
 and D. J. Fox, Gaussian, Inc., Wallingford CT, 2009.
 
 ******************************************
 Gaussian 09:  EM64L-G09RevA.02 11-Jun-2009
                10-Mar-2020 
 ******************************************
 %RWF=/scratch/bdw2292/Gau-MOLECULE0/,100GB
 %Nosave
 %Chk=MOLECULE0-opt-23-22-21-20-276.chk
 %Mem=20GB
 %Nproc=6
 Will use up to    6 processors via shared memory.
 --------------------------------------------------
 #P opt=(,maxcycle=400) wB97XD/6-31G* MaxDisk=100GB
 --------------------------------------------------
 1/6=400,14=-1,18=20,19=15,26=3,38=1/1,3;
 2/9=110,12=2,17=6,18=5,40=1/2;
 3/5=1,6=6,7=1,11=2,16=1,25=1,30=1,71=1,74=-58/1,2,3;
 4//1;
 5/5=2,38=5/2;
 6/7=2,8=2,9=2,10=2,28=1/1;
 7//1,2,3,16;
 1/6=400,14=-1,18=20,19=15/3(2);
 2/9=110/2;
 99//99;
 2/9=110/2;
 3/5=1,6=6,7=1,11=2,16=1,25=1,30=1,71=1,74=-58/1,2,3;
 4/5=5,16=3/1;
 5/5=2,38=5/2;
 7//1,2,3,16;
 1/6=400,14=-1,18=20,19=15/3(-5);
 2/9=110/2;
 6/7=2,8=2,9=2,10=2,19=2,28=1/1;
 99/9=1/99;
 Leave Link    1 at Tue Mar 10 11:30:55 2020, MaxMem= 2684354560 cpu:       0.2
 (Enter /opt/g09gh/gaussian/g09/l101.exe)
 -----------------------------------------------------------------
 MOLECULE0 Rotatable Bond Optimization on g2-node38.bme.utexas.edu
 -----------------------------------------------------------------
 Symbolic Z-matrix:
 Charge =  0 Multiplicity = 1
 C                    -3.29325  -6.22079  -7.0805 
 C                    -2.00815  -6.77213  -7.17043 
 C                    -1.0898   -6.60084  -6.11443 
 C                    -1.56702  -5.87109  -4.99818 
 N                    -2.79183  -5.34094  -4.89317 
 C                    -3.63352  -5.51336  -5.92273 
 C                     0.31406  -7.15359  -6.13622 
 C                     0.84987  -7.94629  -7.16477 
 C                     2.16986  -8.36916  -6.98263 
 N                     2.91657  -8.06066  -5.9277 
 C                     2.32694  -7.28303  -4.99463 
 N                     1.07162  -6.83025  -5.06759 
 N                     3.13518  -6.96643  -3.91466 
 C                     2.93351  -6.25097  -2.68128 
 C                     3.87979  -6.42382  -1.62502 
 C                     3.64923  -5.71739  -0.43398 
 C                     2.56044  -4.86298  -0.23524 
 C                     1.65055  -4.68928  -1.28394 
 C                     1.84508  -5.38995  -2.48693 
 N                     0.48964  -3.85261  -1.23302 
 C                    -0.08297  -3.18221  -0.1781 
 C                    -1.45734  -2.61315  -0.43984 
 C                    -1.60124  -1.3642   -1.06107 
 C                    -2.87507  -0.85381  -1.32042 
 C                    -4.03735  -1.56776  -0.96955 
 C                    -3.87178  -2.81819  -0.34213 
 C                    -2.6022   -3.33859  -0.08062 
 C                    -5.42884  -0.97911  -1.20829 
 N                    -5.99552  -0.04379  -0.22038 
 C                    -5.47754   1.34156  -0.16315 
 C                    -4.36712   1.57396   0.89377 
 N                    -4.72961   1.13299   2.26071 
 C                    -5.54393   2.05736   3.05889 
 C                    -5.19167  -0.27497   2.20442 
 C                    -6.29025  -0.54334   1.14257 
 O                     0.46361  -3.02796   0.90055 
 C                     5.09391  -7.33239  -1.72083 
 H                    -4.01265  -6.33475  -7.88602 
 H                    -1.74734  -7.31485  -8.07559 
 H                    -0.92928  -5.72312  -4.13345 
 H                    -4.62102  -5.06909  -5.8092 
 H                     0.30285  -8.24708  -8.04969 
 H                     2.65528  -8.99514  -7.73089 
 H                     4.02593  -7.42769  -4.02384 
 H                     4.34475  -5.83036   0.39672 
 H                     2.42034  -4.34015   0.70319 
 H                     1.14684  -5.26946  -3.30104 
 H                    -0.03453  -3.79981  -2.09589 
 H                    -0.70992  -0.8048   -1.33344 
 H                    -2.95893   0.12206  -1.79866 
 H                    -4.74477  -3.396    -0.03909 
 H                    -2.48208  -4.30394   0.40379 
 H                    -5.4223   -0.46331  -2.17965 
 H                    -6.14603  -1.80761  -1.30324 
 H                    -5.19661   1.68122  -1.13236 
 H                    -6.68189   2.25506   0.29548 
 H                    -4.08266   3.00457   0.9284 
 H                    -3.35254   1.00373   0.58005 
 H                    -6.53849   2.18838   2.618 
 H                    -5.05311   3.03509   3.12257 
 H                    -5.65879   1.67363   4.07918 
 H                    -5.50454  -0.60043   3.20906 
 H                    -3.97914  -1.1152    1.81163 
 H                    -7.56049   0.23485   1.6518 
 H                    -6.57345  -1.65694   1.10862 
 H                     5.7958   -6.98328  -2.49133 
 H                     4.80671  -8.36214  -1.97632 
 H                     5.66133  -7.39104  -0.78166 
 
 NAtoms=     68 NQM=     68 NQMF=      0 NMic=      0 NMicF=      0 NTot=     68.
                    Isotopes and Nuclear Properties:
 (Nuclear quadrupole moments (NQMom) in fm**2, nuclear magnetic moments (NMagM)
  in nuclear magnetons)

  Atom         1           2           3           4           5           6           7           8           9          10
 IAtWgt=          12          12          12          12          14          12          12          12          12          14
 AtmWgt=  12.0000000  12.0000000  12.0000000  12.0000000  14.0030740  12.0000000  12.0000000  12.0000000  12.0000000  14.0030740
 NucSpn=           0           0           0           0           2           0           0           0           0           2
 AtZEff=   0.0000000   0.0000000   0.0000000   0.0000000   0.0000000   0.0000000   0.0000000   0.0000000   0.0000000   0.0000000
 NQMom=    0.0000000   0.0000000   0.0000000   0.0000000   2.0440000   0.0000000   0.0000000   0.0000000   0.0000000   2.0440000
 NMagM=    0.0000000   0.0000000   0.0000000   0.0000000   0.4037610   0.0000000   0.0000000   0.0000000   0.0000000   0.4037610

  Atom        11          12          13          14          15          16          17          18          19          20
 IAtWgt=          12          14          14          12          12          12          12          12          12          14
 AtmWgt=  12.0000000  14.0030740  14.0030740  12.0000000  12.0000000  12.0000000  12.0000000  12.0000000  12.0000000  14.0030740
 NucSpn=           0           2           2           0           0           0           0           0           0           2
 AtZEff=   0.0000000   0.0000000   0.0000000   0.0000000   0.0000000   0.0000000   0.0000000   0.0000000   0.0000000   0.0000000
 NQMom=    0.0000000   2.0440000   2.0440000   0.0000000   0.0000000   0.0000000   0.0000000   0.0000000   0.0000000   2.0440000
 NMagM=    0.0000000   0.4037610   0.4037610   0.0000000   0.0000000   0.0000000   0.0000000   0.0000000   0.0000000   0.4037610

  Atom        21          22          23          24          25          26          27          28          29          30
 IAtWgt=          12          12          12          12          12          12          12          12          14          12
 AtmWgt=  12.0000000  12.0000000  12.0000000  12.0000000  12.0000000  12.0000000  12.0000000  12.0000000  14.0030740  12.0000000
 NucSpn=           0           0           0           0           0           0           0           0           2           0
 AtZEff=   0.0000000   0.0000000   0.0000000   0.0000000   0.0000000   0.0000000   0.0000000   0.0000000   0.0000000   0.0000000
 NQMom=    0.0000000   0.0000000   0.0000000   0.0000000   0.0000000   0.0000000   0.0000000   0.0000000   2.0440000   0.0000000
 NMagM=    0.0000000   0.0000000   0.0000000   0.0000000   0.0000000   0.0000000   0.0000000   0.0000000   0.4037610   0.0000000

  Atom        31          32          33          34          35          36          37          38          39          40
 IAtWgt=          12          14          12          12          12          16          12           1           1           1
 AtmWgt=  12.0000000  14.0030740  12.0000000  12.0000000  12.0000000  15.9949146  12.0000000   1.0078250   1.0078250   1.0078250
 NucSpn=           0           2           0           0           0           0           0           1           1           1
 AtZEff=   0.0000000   0.0000000   0.0000000   0.0000000   0.0000000   0.0000000   0.0000000   0.0000000   0.0000000   0.0000000
 NQMom=    0.0000000   2.0440000   0.0000000   0.0000000   0.0000000   0.0000000   0.0000000   0.0000000   0.0000000   0.0000000
 NMagM=    0.0000000   0.4037610   0.0000000   0.0000000   0.0000000   0.0000000   0.0000000   2.7928460   2.7928460   2.7928460

  Atom        41          42          43          44          45          46          47          48          49          50
 IAtWgt=           1           1           1           1           1           1           1           1           1           1
 AtmWgt=   1.0078250   1.0078250   1.0078250   1.0078250   1.0078250   1.0078250   1.0078250   1.0078250   1.0078250   1.0078250
 NucSpn=           1           1           1           1           1           1           1           1           1           1
 AtZEff=   0.0000000   0.0000000   0.0000000   0.0000000   0.0000000   0.0000000   0.0000000   0.0000000   0.0000000   0.0000000
 NQMom=    0.0000000   0.0000000   0.0000000   0.0000000   0.0000000   0.0000000   0.0000000   0.0000000   0.0000000   0.0000000
 NMagM=    2.7928460   2.7928460   2.7928460   2.7928460   2.7928460   2.7928460   2.7928460   2.7928460   2.7928460   2.7928460

  Atom        51          52          53          54          55          56          57          58          59          60
 IAtWgt=           1           1           1           1           1           1           1           1           1           1
 AtmWgt=   1.0078250   1.0078250   1.0078250   1.0078250   1.0078250   1.0078250   1.0078250   1.0078250   1.0078250   1.0078250
 NucSpn=           1           1           1           1           1           1           1           1           1           1
 AtZEff=   0.0000000   0.0000000   0.0000000   0.0000000   0.0000000   0.0000000   0.0000000   0.0000000   0.0000000   0.0000000
 NQMom=    0.0000000   0.0000000   0.0000000   0.0000000   0.0000000   0.0000000   0.0000000   0.0000000   0.0000000   0.0000000
 NMagM=    2.7928460   2.7928460   2.7928460   2.7928460   2.7928460   2.7928460   2.7928460   2.7928460   2.7928460   2.7928460

  Atom        61          62          63          64          65          66          67          68
 IAtWgt=           1           1           1           1           1           1           1           1
 AtmWgt=   1.0078250   1.0078250   1.0078250   1.0078250   1.0078250   1.0078250   1.0078250   1.0078250
 NucSpn=           1           1           1           1           1           1           1           1
 AtZEff=   0.0000000   0.0000000   0.0000000   0.0000000   0.0000000   0.0000000   0.0000000   0.0000000
 NQMom=    0.0000000   0.0000000   0.0000000   0.0000000   0.0000000   0.0000000   0.0000000   0.0000000
 NMagM=    2.7928460   2.7928460   2.7928460   2.7928460   2.7928460   2.7928460   2.7928460   2.7928460
 Leave Link  101 at Tue Mar 10 11:30:55 2020, MaxMem= 2684354560 cpu:       0.5
 (Enter /opt/g09gh/gaussian/g09/l103.exe)

 GradGradGradGradGradGradGradGradGradGradGradGradGradGradGradGradGradGrad
 Berny optimization.
 Initialization pass.
                           ----------------------------
                           !    Initial Parameters    !
                           ! (Angstroms and Degrees)  !
 --------------------------                            --------------------------
 ! Name  Definition              Value          Derivative Info.                !
 --------------------------------------------------------------------------------
 ! R1    R(1,2)                  1.4013         estimate D2E/DX2                !
 ! R2    R(1,6)                  1.3988         estimate D2E/DX2                !
 ! R3    R(1,38)                 1.086          estimate D2E/DX2                !
 ! R4    R(2,3)                  1.4099         estimate D2E/DX2                !
 ! R5    R(2,39)                 1.0871         estimate D2E/DX2                !
 ! R6    R(3,4)                  1.4164         estimate D2E/DX2                !
 ! R7    R(3,7)                  1.5089         estimate D2E/DX2                !
 ! R8    R(4,5)                  1.3388         estimate D2E/DX2                !
 ! R9    R(4,40)                 1.0846         estimate D2E/DX2                !
 ! R10   R(5,6)                  1.341          estimate D2E/DX2                !
 ! R11   R(6,41)                 1.0888         estimate D2E/DX2                !
 ! R12   R(7,8)                  1.4048         estimate D2E/DX2                !
 ! R13   R(7,12)                 1.3492         estimate D2E/DX2                !
 ! R14   R(8,9)                  1.398          estimate D2E/DX2                !
 ! R15   R(8,42)                 1.083          estimate D2E/DX2                !
 ! R16   R(9,10)                 1.3288         estimate D2E/DX2                !
 ! R17   R(9,43)                 1.0897         estimate D2E/DX2                !
 ! R18   R(10,11)                1.3502         estimate D2E/DX2                !
 ! R19   R(11,12)                1.3365         estimate D2E/DX2                !
 ! R20   R(11,13)                1.3856         estimate D2E/DX2                !
 ! R21   R(13,14)                1.4401         estimate D2E/DX2                !
 ! R22   R(13,44)                1.009          estimate D2E/DX2                !
 ! R23   R(14,15)                1.4286         estimate D2E/DX2                !
 ! R24   R(14,19)                1.4014         estimate D2E/DX2                !
 ! R25   R(15,16)                1.4038         estimate D2E/DX2                !
 ! R26   R(15,37)                1.5195         estimate D2E/DX2                !
 ! R27   R(16,17)                1.3982         estimate D2E/DX2                !
 ! R28   R(16,45)                1.0893         estimate D2E/DX2                !
 ! R29   R(17,18)                1.3992         estimate D2E/DX2                !
 ! R30   R(17,46)                1.0833         estimate D2E/DX2                !
 ! R31   R(18,19)                1.4057         estimate D2E/DX2                !
 ! R32   R(18,20)                1.4319         estimate D2E/DX2                !
 ! R33   R(19,47)                1.0793         estimate D2E/DX2                !
 ! R34   R(20,21)                1.3748         estimate D2E/DX2                !
 ! R35   R(20,48)                1.011          estimate D2E/DX2                !
 ! R36   R(21,22)                1.5104         estimate D2E/DX2                !
 ! R37   R(21,36)                1.219          estimate D2E/DX2                !
 ! R38   R(22,23)                1.4023         estimate D2E/DX2                !
 ! R39   R(22,27)                1.4021         estimate D2E/DX2                !
 ! R40   R(23,24)                1.3966         estimate D2E/DX2                !
 ! R41   R(23,49)                1.087          estimate D2E/DX2                !
 ! R42   R(24,25)                1.4084         estimate D2E/DX2                !
 ! R43   R(24,50)                1.09           estimate D2E/DX2                !
 ! R44   R(25,26)                1.4088         estimate D2E/DX2                !
 ! R45   R(25,28)                1.5296         estimate D2E/DX2                !
 ! R46   R(26,27)                1.3968         estimate D2E/DX2                !
 ! R47   R(26,51)                1.0899         estimate D2E/DX2                !
 ! R48   R(27,52)                1.0867         estimate D2E/DX2                !
 ! R49   R(28,29)                1.4737         estimate D2E/DX2                !
 ! R50   R(28,53)                1.0998         estimate D2E/DX2                !
 ! R51   R(28,54)                1.0999         estimate D2E/DX2                !
 ! R52   R(29,30)                1.4801         estimate D2E/DX2                !
 ! R53   R(29,35)                1.4812         estimate D2E/DX2                !
 ! R54   R(30,31)                1.5505         estimate D2E/DX2                !
 ! R55   R(30,55)                1.0647         estimate D2E/DX2                !
 ! R56   R(30,56)                1.5796         estimate D2E/DX2                !
 ! R57   R(31,32)                1.4813         estimate D2E/DX2                !
 ! R58   R(31,57)                1.459          estimate D2E/DX2                !
 ! R59   R(31,58)                1.2054         estimate D2E/DX2                !
 ! R60   R(32,33)                1.4679         estimate D2E/DX2                !
 ! R61   R(32,34)                1.4829         estimate D2E/DX2                !
 ! R62   R(33,59)                1.0958         estimate D2E/DX2                !
 ! R63   R(33,60)                1.0959         estimate D2E/DX2                !
 ! R64   R(33,61)                1.0961         estimate D2E/DX2                !
 ! R65   R(34,35)                1.5513         estimate D2E/DX2                !
 ! R66   R(34,62)                1.1014         estimate D2E/DX2                !
 ! R67   R(34,63)                1.5266         estimate D2E/DX2                !
 ! R68   R(35,64)                1.5743         estimate D2E/DX2                !
 ! R69   R(35,65)                1.1495         estimate D2E/DX2                !
 ! R70   R(37,66)                1.0992         estimate D2E/DX2                !
 ! R71   R(37,67)                1.0992         estimate D2E/DX2                !
 ! R72   R(37,68)                1.0988         estimate D2E/DX2                !
 ! A1    A(2,1,6)              118.3722         estimate D2E/DX2                !
 ! A2    A(2,1,38)             121.2402         estimate D2E/DX2                !
 ! A3    A(6,1,38)             120.3876         estimate D2E/DX2                !
 ! A4    A(1,2,3)              120.0981         estimate D2E/DX2                !
 ! A5    A(1,2,39)             118.026          estimate D2E/DX2                !
 ! A6    A(3,2,39)             121.8703         estimate D2E/DX2                !
 ! A7    A(2,3,4)              115.6833         estimate D2E/DX2                !
 ! A8    A(2,3,7)              123.4135         estimate D2E/DX2                !
 ! A9    A(4,3,7)              120.9021         estimate D2E/DX2                !
 ! A10   A(3,4,5)              125.0349         estimate D2E/DX2                !
 ! A11   A(3,4,40)             120.0326         estimate D2E/DX2                !
 ! A12   A(5,4,40)             114.9225         estimate D2E/DX2                !
 ! A13   A(4,5,6)              117.5885         estimate D2E/DX2                !
 ! A14   A(1,6,5)              123.2175         estimate D2E/DX2                !
 ! A15   A(1,6,41)             120.8841         estimate D2E/DX2                !
 ! A16   A(5,6,41)             115.8977         estimate D2E/DX2                !
 ! A17   A(3,7,8)              124.9007         estimate D2E/DX2                !
 ! A18   A(3,7,12)             115.0339         estimate D2E/DX2                !
 ! A19   A(8,7,12)             120.065          estimate D2E/DX2                !
 ! A20   A(7,8,9)              115.813          estimate D2E/DX2                !
 ! A21   A(7,8,42)             124.2194         estimate D2E/DX2                !
 ! A22   A(9,8,42)             119.9592         estimate D2E/DX2                !
 ! A23   A(8,9,10)             124.32           estimate D2E/DX2                !
 ! A24   A(8,9,43)             120.3262         estimate D2E/DX2                !
 ! A25   A(10,9,43)            115.3538         estimate D2E/DX2                !
 ! A26   A(9,10,11)            115.91           estimate D2E/DX2                !
 ! A27   A(10,11,12)           124.5817         estimate D2E/DX2                !
 ! A28   A(10,11,13)           114.5512         estimate D2E/DX2                !
 ! A29   A(12,11,13)           120.8669         estimate D2E/DX2                !
 ! A30   A(7,12,11)            119.3033         estimate D2E/DX2                !
 ! A31   A(11,13,14)           134.3791         estimate D2E/DX2                !
 ! A32   A(11,13,44)           109.0357         estimate D2E/DX2                !
 ! A33   A(14,13,44)           116.3224         estimate D2E/DX2                !
 ! A34   A(13,14,15)           118.7093         estimate D2E/DX2                !
 ! A35   A(13,14,19)           122.1954         estimate D2E/DX2                !
 ! A36   A(15,14,19)           119.0948         estimate D2E/DX2                !
 ! A37   A(14,15,16)           117.2327         estimate D2E/DX2                !
 ! A38   A(14,15,37)           123.7097         estimate D2E/DX2                !
 ! A39   A(16,15,37)           119.0536         estimate D2E/DX2                !
 ! A40   A(15,16,17)           123.7784         estimate D2E/DX2                !
 ! A41   A(15,16,45)           119.3372         estimate D2E/DX2                !
 ! A42   A(17,16,45)           116.8841         estimate D2E/DX2                !
 ! A43   A(16,17,18)           118.4054         estimate D2E/DX2                !
 ! A44   A(16,17,46)           121.2475         estimate D2E/DX2                !
 ! A45   A(18,17,46)           120.3463         estimate D2E/DX2                !
 ! A46   A(17,18,19)           119.3103         estimate D2E/DX2                !
 ! A47   A(17,18,20)           124.967          estimate D2E/DX2                !
 ! A48   A(19,18,20)           115.7138         estimate D2E/DX2                !
 ! A49   A(14,19,18)           122.1698         estimate D2E/DX2                !
 ! A50   A(14,19,47)           117.805          estimate D2E/DX2                !
 ! A51   A(18,19,47)           120.0243         estimate D2E/DX2                !
 ! A52   A(18,20,21)           130.5323         estimate D2E/DX2                !
 ! A53   A(18,20,48)           114.8679         estimate D2E/DX2                !
 ! A54   A(21,20,48)           114.4237         estimate D2E/DX2                !
 ! A55   A(20,21,22)           115.4512         estimate D2E/DX2                !
 ! A56   A(20,21,36)           123.6354         estimate D2E/DX2                !
 ! A57   A(22,21,36)           120.9078         estimate D2E/DX2                !
 ! A58   A(21,22,23)           120.3784         estimate D2E/DX2                !
 ! A59   A(21,22,27)           120.2424         estimate D2E/DX2                !
 ! A60   A(23,22,27)           119.373          estimate D2E/DX2                !
 ! A61   A(22,23,24)           120.0898         estimate D2E/DX2                !
 ! A62   A(22,23,49)           119.0258         estimate D2E/DX2                !
 ! A63   A(24,23,49)           120.8844         estimate D2E/DX2                !
 ! A64   A(23,24,25)           121.4116         estimate D2E/DX2                !
 ! A65   A(23,24,50)           118.6107         estimate D2E/DX2                !
 ! A66   A(25,24,50)           119.9763         estimate D2E/DX2                !
 ! A67   A(24,25,26)           117.6384         estimate D2E/DX2                !
 ! A68   A(24,25,28)           121.1145         estimate D2E/DX2                !
 ! A69   A(26,25,28)           121.1981         estimate D2E/DX2                !
 ! A70   A(25,26,27)           121.3928         estimate D2E/DX2                !
 ! A71   A(25,26,51)           120.018          estimate D2E/DX2                !
 ! A72   A(27,26,51)           118.5854         estimate D2E/DX2                !
 ! A73   A(22,27,26)           120.0938         estimate D2E/DX2                !
 ! A74   A(22,27,52)           118.9163         estimate D2E/DX2                !
 ! A75   A(26,27,52)           120.9896         estimate D2E/DX2                !
 ! A76   A(25,28,29)           119.3012         estimate D2E/DX2                !
 ! A77   A(25,28,53)           108.2347         estimate D2E/DX2                !
 ! A78   A(25,28,54)           108.4676         estimate D2E/DX2                !
 ! A79   A(29,28,53)           107.2583         estimate D2E/DX2                !
 ! A80   A(29,28,54)           106.5704         estimate D2E/DX2                !
 ! A81   A(53,28,54)           106.3143         estimate D2E/DX2                !
 ! A82   A(28,29,30)           119.037          estimate D2E/DX2                !
 ! A83   A(28,29,35)           118.6388         estimate D2E/DX2                !
 ! A84   A(30,29,35)           110.4694         estimate D2E/DX2                !
 ! A85   A(29,30,31)           114.6623         estimate D2E/DX2                !
 ! A86   A(29,30,55)           110.8375         estimate D2E/DX2                !
 ! A87   A(29,30,56)           106.5992         estimate D2E/DX2                !
 ! A88   A(31,30,55)           112.5646         estimate D2E/DX2                !
 ! A89   A(31,30,56)           105.1546         estimate D2E/DX2                !
 ! A90   A(55,30,56)           106.3185         estimate D2E/DX2                !
 ! A91   A(30,31,32)           114.1514         estimate D2E/DX2                !
 ! A92   A(30,31,57)           107.6241         estimate D2E/DX2                !
 ! A93   A(30,31,58)           110.7617         estimate D2E/DX2                !
 ! A94   A(32,31,57)           108.523          estimate D2E/DX2                !
 ! A95   A(32,31,58)           107.7767         estimate D2E/DX2                !
 ! A96   A(57,31,58)           107.8137         estimate D2E/DX2                !
 ! A97   A(31,32,33)           116.7479         estimate D2E/DX2                !
 ! A98   A(31,32,34)           108.8962         estimate D2E/DX2                !
 ! A99   A(33,32,34)           116.4671         estimate D2E/DX2                !
 ! A100  A(32,33,59)           111.102          estimate D2E/DX2                !
 ! A101  A(32,33,60)           110.18           estimate D2E/DX2                !
 ! A102  A(32,33,61)           110.11           estimate D2E/DX2                !
 ! A103  A(59,33,60)           108.8579         estimate D2E/DX2                !
 ! A104  A(59,33,61)           108.7405         estimate D2E/DX2                !
 ! A105  A(60,33,61)           107.7701         estimate D2E/DX2                !
 ! A106  A(32,34,35)           114.2612         estimate D2E/DX2                !
 ! A107  A(32,34,62)           109.5391         estimate D2E/DX2                !
 ! A108  A(32,34,63)           106.5501         estimate D2E/DX2                !
 ! A109  A(35,34,62)           111.8435         estimate D2E/DX2                !
 ! A110  A(35,34,63)           106.9266         estimate D2E/DX2                !
 ! A111  A(62,34,63)           107.3184         estimate D2E/DX2                !
 ! A112  A(29,35,34)           115.5052         estimate D2E/DX2                !
 ! A113  A(29,35,64)           106.9464         estimate D2E/DX2                !
 ! A114  A(29,35,65)           110.3985         estimate D2E/DX2                !
 ! A115  A(34,35,64)           105.3362         estimate D2E/DX2                !
 ! A116  A(34,35,65)           111.2396         estimate D2E/DX2                !
 ! A117  A(64,35,65)           106.8354         estimate D2E/DX2                !
 ! A118  A(15,37,66)           111.3779         estimate D2E/DX2                !
 ! A119  A(15,37,67)           111.4731         estimate D2E/DX2                !
 ! A120  A(15,37,68)           112.9935         estimate D2E/DX2                !
 ! A121  A(66,37,67)           107.5461         estimate D2E/DX2                !
 ! A122  A(66,37,68)           106.639          estimate D2E/DX2                !
 ! A123  A(67,37,68)           106.4749         estimate D2E/DX2                !
 ! D1    D(6,1,2,3)             -0.4215         estimate D2E/DX2                !
 ! D2    D(6,1,2,39)          -179.5811         estimate D2E/DX2                !
 ! D3    D(38,1,2,3)           179.5181         estimate D2E/DX2                !
 ! D4    D(38,1,2,39)            0.3586         estimate D2E/DX2                !
 ! D5    D(2,1,6,5)             -0.2329         estimate D2E/DX2                !
 ! D6    D(2,1,6,41)          -179.9278         estimate D2E/DX2                !
 ! D7    D(38,1,6,5)           179.8269         estimate D2E/DX2                !
 ! D8    D(38,1,6,41)            0.132          estimate D2E/DX2                !
 ! D9    D(1,2,3,4)              0.8092         estimate D2E/DX2                !
 ! D10   D(1,2,3,7)           -179.5799         estimate D2E/DX2                !
 ! D11   D(39,2,3,4)           179.9357         estimate D2E/DX2                !
 ! D12   D(39,2,3,7)            -0.4535         estimate D2E/DX2                !
 ! D13   D(2,3,4,5)             -0.6392         estimate D2E/DX2                !
 ! D14   D(2,3,4,40)           178.1541         estimate D2E/DX2                !
 ! D15   D(7,3,4,5)            179.7393         estimate D2E/DX2                !
 ! D16   D(7,3,4,40)            -1.4674         estimate D2E/DX2                !
 ! D17   D(2,3,7,8)             -3.1049         estimate D2E/DX2                !
 ! D18   D(2,3,7,12)           176.6793         estimate D2E/DX2                !
 ! D19   D(4,3,7,8)            176.4863         estimate D2E/DX2                !
 ! D20   D(4,3,7,12)            -3.7294         estimate D2E/DX2                !
 ! D21   D(3,4,5,6)              0.0292         estimate D2E/DX2                !
 ! D22   D(40,4,5,6)          -178.8188         estimate D2E/DX2                !
 ! D23   D(4,5,6,1)              0.4285         estimate D2E/DX2                !
 ! D24   D(4,5,6,41)          -179.8626         estimate D2E/DX2                !
 ! D25   D(3,7,8,9)           -179.2993         estimate D2E/DX2                !
 ! D26   D(3,7,8,42)            -0.3559         estimate D2E/DX2                !
 ! D27   D(12,7,8,9)             0.9266         estimate D2E/DX2                !
 ! D28   D(12,7,8,42)          179.8699         estimate D2E/DX2                !
 ! D29   D(3,7,12,11)          179.5267         estimate D2E/DX2                !
 ! D30   D(8,7,12,11)           -0.6778         estimate D2E/DX2                !
 ! D31   D(7,8,9,10)            -0.4937         estimate D2E/DX2                !
 ! D32   D(7,8,9,43)           179.4362         estimate D2E/DX2                !
 ! D33   D(42,8,9,10)         -179.4852         estimate D2E/DX2                !
 ! D34   D(42,8,9,43)            0.4447         estimate D2E/DX2                !
 ! D35   D(8,9,10,11)           -0.1953         estimate D2E/DX2                !
 ! D36   D(43,9,10,11)         179.8716         estimate D2E/DX2                !
 ! D37   D(9,10,11,12)           0.5073         estimate D2E/DX2                !
 ! D38   D(9,10,11,13)        -179.3136         estimate D2E/DX2                !
 ! D39   D(10,11,12,7)          -0.0723         estimate D2E/DX2                !
 ! D40   D(13,11,12,7)         179.738          estimate D2E/DX2                !
 ! D41   D(10,11,13,14)       -176.0684         estimate D2E/DX2                !
 ! D42   D(10,11,13,44)         -2.3885         estimate D2E/DX2                !
 ! D43   D(12,11,13,14)          4.1033         estimate D2E/DX2                !
 ! D44   D(12,11,13,44)        177.7832         estimate D2E/DX2                !
 ! D45   D(11,13,14,15)        162.8629         estimate D2E/DX2                !
 ! D46   D(11,13,14,19)        -17.3764         estimate D2E/DX2                !
 ! D47   D(44,13,14,15)        -10.4699         estimate D2E/DX2                !
 ! D48   D(44,13,14,19)        169.2907         estimate D2E/DX2                !
 ! D49   D(13,14,15,16)       -179.6627         estimate D2E/DX2                !
 ! D50   D(13,14,15,37)         -0.4036         estimate D2E/DX2                !
 ! D51   D(19,14,15,16)          0.5691         estimate D2E/DX2                !
 ! D52   D(19,14,15,37)        179.8282         estimate D2E/DX2                !
 ! D53   D(13,14,19,18)       -179.8389         estimate D2E/DX2                !
 ! D54   D(13,14,19,47)         -0.1835         estimate D2E/DX2                !
 ! D55   D(15,14,19,18)         -0.0791         estimate D2E/DX2                !
 ! D56   D(15,14,19,47)        179.5762         estimate D2E/DX2                !
 ! D57   D(14,15,16,17)         -0.2636         estimate D2E/DX2                !
 ! D58   D(14,15,16,45)        179.4968         estimate D2E/DX2                !
 ! D59   D(37,15,16,17)       -179.5585         estimate D2E/DX2                !
 ! D60   D(37,15,16,45)          0.2018         estimate D2E/DX2                !
 ! D61   D(14,15,37,66)         64.2907         estimate D2E/DX2                !
 ! D62   D(14,15,37,67)        -55.8338         estimate D2E/DX2                !
 ! D63   D(14,15,37,68)       -175.6998         estimate D2E/DX2                !
 ! D64   D(16,15,37,66)       -116.463          estimate D2E/DX2                !
 ! D65   D(16,15,37,67)        123.4126         estimate D2E/DX2                !
 ! D66   D(16,15,37,68)          3.5466         estimate D2E/DX2                !
 ! D67   D(15,16,17,18)         -0.5459         estimate D2E/DX2                !
 ! D68   D(15,16,17,46)        179.7801         estimate D2E/DX2                !
 ! D69   D(45,16,17,18)        179.6884         estimate D2E/DX2                !
 ! D70   D(45,16,17,46)          0.0143         estimate D2E/DX2                !
 ! D71   D(16,17,18,19)          1.0327         estimate D2E/DX2                !
 ! D72   D(16,17,18,20)        179.8972         estimate D2E/DX2                !
 ! D73   D(46,17,18,19)       -179.2902         estimate D2E/DX2                !
 ! D74   D(46,17,18,20)         -0.4257         estimate D2E/DX2                !
 ! D75   D(17,18,19,14)         -0.7449         estimate D2E/DX2                !
 ! D76   D(17,18,19,47)        179.6073         estimate D2E/DX2                !
 ! D77   D(20,18,19,14)       -179.7121         estimate D2E/DX2                !
 ! D78   D(20,18,19,47)          0.6401         estimate D2E/DX2                !
 ! D79   D(17,18,20,21)         -8.3988         estimate D2E/DX2                !
 ! D80   D(17,18,20,48)        176.7619         estimate D2E/DX2                !
 ! D81   D(19,18,20,21)        170.5022         estimate D2E/DX2                !
 ! D82   D(19,18,20,48)         -4.3371         estimate D2E/DX2                !
 ! D83   D(18,20,21,22)       -168.4807         estimate D2E/DX2                !
 ! D84   D(18,20,21,36)         12.3751         estimate D2E/DX2                !
 ! D85   D(48,20,21,22)          6.3769         estimate D2E/DX2                !
 ! D86   D(48,20,21,36)       -172.7672         estimate D2E/DX2                !
 ! D87   D(20,21,22,23)        -84.0897         estimate D2E/DX2                !
 ! D88   D(20,21,22,27)         94.9951         estimate D2E/DX2                !
 ! D89   D(36,21,22,23)         95.0798         estimate D2E/DX2                !
 ! D90   D(36,21,22,27)        -85.8353         estimate D2E/DX2                !
 ! D91   D(21,22,23,24)        178.9283         estimate D2E/DX2                !
 ! D92   D(21,22,23,49)         -1.157          estimate D2E/DX2                !
 ! D93   D(27,22,23,24)         -0.1645         estimate D2E/DX2                !
 ! D94   D(27,22,23,49)        179.7502         estimate D2E/DX2                !
 ! D95   D(21,22,27,26)       -179.0485         estimate D2E/DX2                !
 ! D96   D(21,22,27,52)          1.1338         estimate D2E/DX2                !
 ! D97   D(23,22,27,26)          0.0455         estimate D2E/DX2                !
 ! D98   D(23,22,27,52)       -179.7722         estimate D2E/DX2                !
 ! D99   D(22,23,24,25)          0.0576         estimate D2E/DX2                !
 ! D100  D(22,23,24,50)        179.6227         estimate D2E/DX2                !
 ! D101  D(49,23,24,25)       -179.8555         estimate D2E/DX2                !
 ! D102  D(49,23,24,50)         -0.2904         estimate D2E/DX2                !
 ! D103  D(23,24,25,26)          0.1644         estimate D2E/DX2                !
 ! D104  D(23,24,25,28)        177.6475         estimate D2E/DX2                !
 ! D105  D(50,24,25,26)       -179.395          estimate D2E/DX2                !
 ! D106  D(50,24,25,28)         -1.9118         estimate D2E/DX2                !
 ! D107  D(24,25,26,27)         -0.2855         estimate D2E/DX2                !
 ! D108  D(24,25,26,51)        178.9856         estimate D2E/DX2                !
 ! D109  D(28,25,26,27)       -177.7664         estimate D2E/DX2                !
 ! D110  D(28,25,26,51)          1.5047         estimate D2E/DX2                !
 ! D111  D(24,25,28,29)        -83.0527         estimate D2E/DX2                !
 ! D112  D(24,25,28,53)         39.8411         estimate D2E/DX2                !
 ! D113  D(24,25,28,54)        154.7921         estimate D2E/DX2                !
 ! D114  D(26,25,28,29)         94.3406         estimate D2E/DX2                !
 ! D115  D(26,25,28,53)       -142.7656         estimate D2E/DX2                !
 ! D116  D(26,25,28,54)        -27.8146         estimate D2E/DX2                !
 ! D117  D(25,26,27,22)          0.1845         estimate D2E/DX2                !
 ! D118  D(25,26,27,52)        179.9983         estimate D2E/DX2                !
 ! D119  D(51,26,27,22)       -179.0967         estimate D2E/DX2                !
 ! D120  D(51,26,27,52)          0.7171         estimate D2E/DX2                !
 ! D121  D(25,28,29,30)         74.6566         estimate D2E/DX2                !
 ! D122  D(25,28,29,35)        -64.7112         estimate D2E/DX2                !
 ! D123  D(53,28,29,30)        -48.716          estimate D2E/DX2                !
 ! D124  D(53,28,29,35)        171.9163         estimate D2E/DX2                !
 ! D125  D(54,28,29,30)       -162.2526         estimate D2E/DX2                !
 ! D126  D(54,28,29,35)         58.3796         estimate D2E/DX2                !
 ! D127  D(28,29,30,31)        -95.3556         estimate D2E/DX2                !
 ! D128  D(28,29,30,55)         33.4405         estimate D2E/DX2                !
 ! D129  D(28,29,30,56)        148.7289         estimate D2E/DX2                !
 ! D130  D(35,29,30,31)         47.0512         estimate D2E/DX2                !
 ! D131  D(35,29,30,55)        175.8473         estimate D2E/DX2                !
 ! D132  D(35,29,30,56)        -68.8644         estimate D2E/DX2                !
 ! D133  D(28,29,35,34)         96.5211         estimate D2E/DX2                !
 ! D134  D(28,29,35,64)       -146.6251         estimate D2E/DX2                !
 ! D135  D(28,29,35,65)        -30.7546         estimate D2E/DX2                !
 ! D136  D(30,29,35,34)        -46.0539         estimate D2E/DX2                !
 ! D137  D(30,29,35,64)         70.7999         estimate D2E/DX2                !
 ! D138  D(30,29,35,65)       -173.3297         estimate D2E/DX2                !
 ! D139  D(29,30,31,32)        -52.9783         estimate D2E/DX2                !
 ! D140  D(29,30,31,57)       -173.4928         estimate D2E/DX2                !
 ! D141  D(29,30,31,58)         68.8801         estimate D2E/DX2                !
 ! D142  D(55,30,31,32)        179.0941         estimate D2E/DX2                !
 ! D143  D(55,30,31,57)         58.5796         estimate D2E/DX2                !
 ! D144  D(55,30,31,58)        -59.0475         estimate D2E/DX2                !
 ! D145  D(56,30,31,32)         63.7675         estimate D2E/DX2                !
 ! D146  D(56,30,31,57)        -56.747          estimate D2E/DX2                !
 ! D147  D(56,30,31,58)       -174.3741         estimate D2E/DX2                !
 ! D148  D(30,31,32,33)        -81.7875         estimate D2E/DX2                !
 ! D149  D(30,31,32,34)         52.6424         estimate D2E/DX2                !
 ! D150  D(57,31,32,33)         38.2242         estimate D2E/DX2                !
 ! D151  D(57,31,32,34)        172.6541         estimate D2E/DX2                !
 ! D152  D(58,31,32,33)        154.7266         estimate D2E/DX2                !
 ! D153  D(58,31,32,34)        -70.8435         estimate D2E/DX2                !
 ! D154  D(31,32,33,59)         65.3994         estimate D2E/DX2                !
 ! D155  D(31,32,33,60)        -55.3275         estimate D2E/DX2                !
 ! D156  D(31,32,33,61)       -174.0677         estimate D2E/DX2                !
 ! D157  D(34,32,33,59)        -65.5993         estimate D2E/DX2                !
 ! D158  D(34,32,33,60)        173.6738         estimate D2E/DX2                !
 ! D159  D(34,32,33,61)         54.9336         estimate D2E/DX2                !
 ! D160  D(31,32,34,35)        -51.247          estimate D2E/DX2                !
 ! D161  D(31,32,34,62)       -177.6174         estimate D2E/DX2                !
 ! D162  D(31,32,34,63)         66.5984         estimate D2E/DX2                !
 ! D163  D(33,32,34,35)         83.326          estimate D2E/DX2                !
 ! D164  D(33,32,34,62)        -43.0444         estimate D2E/DX2                !
 ! D165  D(33,32,34,63)       -158.8286         estimate D2E/DX2                !
 ! D166  D(32,34,35,29)         50.426          estimate D2E/DX2                !
 ! D167  D(32,34,35,64)        -67.3305         estimate D2E/DX2                !
 ! D168  D(32,34,35,65)        177.2784         estimate D2E/DX2                !
 ! D169  D(62,34,35,29)        175.5881         estimate D2E/DX2                !
 ! D170  D(62,34,35,64)         57.8316         estimate D2E/DX2                !
 ! D171  D(62,34,35,65)        -57.5596         estimate D2E/DX2                !
 ! D172  D(63,34,35,29)        -67.204          estimate D2E/DX2                !
 ! D173  D(63,34,35,64)        175.0395         estimate D2E/DX2                !
 ! D174  D(63,34,35,65)         59.6484         estimate D2E/DX2                !
 --------------------------------------------------------------------------------
 Trust Radius=3.00D-01 FncErr=1.00D-07 GrdErr=1.00D-06
 Number of steps in this run= 400 maximum allowed number of steps= 408.
 GradGradGradGradGradGradGradGradGradGradGradGradGradGradGradGradGradGrad

 Leave Link  103 at Tue Mar 10 11:30:55 2020, MaxMem= 2684354560 cpu:       0.1
 (Enter /opt/g09gh/gaussian/g09/l202.exe)
 Stoichiometry    C29H31N7O
 Framework group  C1[X(C29H31N7O)]
 Deg. of freedom   198
 Full point group                 C1      NOp   1
 Largest Abelian subgroup         C1      NOp   1
 Largest concise Abelian subgroup C1      NOp   1
                         Standard orientation:                         
 ---------------------------------------------------------------------
 Center     Atomic      Atomic             Coordinates (Angstroms)
 Number     Number       Type             X           Y           Z
 ---------------------------------------------------------------------
      1          6           0        2.691861    5.218512   -0.190865
      2          6           0        3.843375    4.433768   -0.043402
      3          6           0        3.748587    3.027283   -0.069298
      4          6           0        2.447641    2.503229   -0.267281
      5          7           0        1.337578    3.237066   -0.413950
      6          6           0        1.464951    4.571264   -0.370993
      7          6           0        4.936874    2.111297    0.091199
      8          6           0        6.268944    2.538072    0.220948
      9          6           0        7.223701    1.524336    0.344000
     10          7           0        6.940948    0.226032    0.353474
     11          6           0        5.634324   -0.094063    0.238279
     12          7           0        4.644194    0.794319    0.109541
     13          7           0        5.370073   -1.453914    0.266405
     14          6           0        4.181840   -2.252468    0.110834
     15          6           0        4.323467   -3.646772   -0.166411
     16          6           0        3.145072   -4.394281   -0.319363
     17          6           0        1.860884   -3.852099   -0.210333
     18          6           0        1.736316   -2.488705    0.078574
     19          6           0        2.895814   -1.708045    0.227255
     20          7           0        0.494530   -1.789718    0.218947
     21          6           0       -0.793988   -2.198067   -0.032336
     22          6           0       -1.834668   -1.103465   -0.026000
     23          6           0       -2.409721   -0.678639    1.180383
     24          6           0       -3.355056    0.349337    1.181667
     25          6           0       -3.754597    0.980664   -0.012279
     26          6           0       -3.168955    0.536432   -1.214079
     27          6           0       -2.220789   -0.489176   -1.225826
     28          6           0       -4.829274    2.069162   -0.009521
     29          7           0       -6.250523    1.679544   -0.022602
     30          6           0       -6.861157    1.147978    1.216490
     31          6           0       -6.882768   -0.399261    1.314919
     32          7           0       -7.491906   -1.072588    0.144468
     33          6           0       -8.957309   -1.153494    0.117531
     34          6           0       -6.834458   -0.578738   -1.089598
     35          6           0       -6.780445    0.967044   -1.208174
     36          8           0       -1.107295   -3.358776   -0.233902
     37          6           0        5.664765   -4.344543   -0.317450
     38          1           0        2.742396    6.303050   -0.166050
     39          1           0        4.792888    4.942482    0.103204
     40          1           0        2.298037    1.430773   -0.329114
     41          1           0        0.544867    5.140910   -0.490897
     42          1           0        6.579573    3.575490    0.213236
     43          1           0        8.280421    1.772446    0.439681
     44          1           0        6.242089   -1.957339    0.331782
     45          1           0        3.213191   -5.458882   -0.539691
     46          1           0        0.978411   -4.467029   -0.339707
     47          1           0        2.813058   -0.653984    0.443883
     48          1           0        0.581426   -0.816696    0.479258
     49          1           0       -2.109300   -1.161553    2.106722
     50          1           0       -3.791162    0.656200    2.132312
     51          1           0       -3.462075    0.986501   -2.162408
     52          1           0       -1.773197   -0.826760   -2.156780
     53          1           0       -4.673253    2.704581    0.874519
     54          1           0       -4.673051    2.715235   -0.885855
     55          1           0       -6.432491    1.606148    2.076717
     56          1           0       -8.379957    1.581534    1.193054
     57          1           0       -7.648182   -0.755559    2.504862
     58          1           0       -5.766847   -0.834433    1.450271
     59          1           0       -9.405955   -0.157265    0.034174
     60          1           0       -9.326320   -1.632813    1.031307
     61          1           0       -9.285665   -1.759990   -0.734390
     62          1           0       -7.308532   -1.040947   -1.969776
     63          1           0       -5.390404   -1.071432   -1.039991
     64          1           0       -8.276468    1.423444   -1.387077
     65          1           0       -6.217423    1.292580   -2.156062
     66          1           0        6.235790   -4.322624    0.621507
     67          1           0        6.281758   -3.867101   -1.091728
     68          1           0        5.569108   -5.401324   -0.602939
 ---------------------------------------------------------------------
 Rotational constants (GHZ):      0.1550315      0.0438342      0.0351601
 Leave Link  202 at Tue Mar 10 11:30:55 2020, MaxMem= 2684354560 cpu:       0.1
 (Enter /opt/g09gh/gaussian/g09/l301.exe)
 Standard basis: 6-31G(d) (6D, 7F)
 Ernie: Thresh=  0.10000D-02 Tol=  0.10000D-05 Strict=F.
 There are   617 symmetry adapted basis functions of A   symmetry.
 Integral buffers will be    131072 words long.
 Raffenetti 2 integral format.
 Two-electron integral symmetry is turned on.
   617 basis functions,  1160 primitive gaussians,   617 cartesian basis functions
   131 alpha electrons      131 beta electrons
       nuclear repulsion energy      3643.7417048119 Hartrees.
 IExCor= 4639 DFT=T Ex+Corr=wB97XD ExCW=0 ScaHFX=  1.000000
 ScaDFX=  1.000000  1.000000  1.000000  1.000000 ScalE2=  1.000000  1.000000
 IRadAn=      0 IRanWt=     -1 IRanGd=            0 ICorTp=0
  HFx wShort=  0.000000 wLong=  0.200000 cFull=  0.222036 cShort=  0.000000 cLong=  0.777964
  DFx wShort=  0.000000 wLong=  0.200000 cFull=  0.000000 cShort=  0.000000 cLong=  1.000000
 NAtoms=   68 NActive=   68 NUniq=   68 SFac= 7.50D-01 NAtFMM=   80 NAOKFM=F Big=T
 R6Disp: Dispersion energy =        -0.0557187289 Hartrees.
 Nuclear repulsion after empirical dispersion term =     3643.6859860830 Hartrees.
 Leave Link  301 at Tue Mar 10 11:30:55 2020, MaxMem= 2684354560 cpu:       0.4
 (Enter /opt/g09gh/gaussian/g09/l302.exe)
 NPDir=0 NMtPBC=     1 NCelOv=     1 NCel=       1 NClECP=     1 NCelD=      1
         NCelK=      1 NCelE2=     1 NClLst=     1 CellRange=     0.0.
 One-electron integrals computed using PRISM.
 NBasis=   617 RedAO= T  NBF=   617
 NBsUse=   617 1.00D-06 NBFU=   617
 Precomputing XC quadrature grid using
 IXCGrd= 2 IRadAn=           0 IRanWt=          -1 IRanGd=           0 AccXCQ= 1.00D-10.
 NRdTot=    4409 NPtTot=      563904 NUsed=      595664 NTot=      595696
 NSgBfM=   582   582   582   582   582 NAtAll=    68    68.
 Leave Link  302 at Tue Mar 10 11:30:56 2020, MaxMem= 2684354560 cpu:       8.2
 (Enter /opt/g09gh/gaussian/g09/l303.exe)
 DipDrv:  MaxL=1.
 Leave Link  303 at Tue Mar 10 11:30:57 2020, MaxMem= 2684354560 cpu:       0.6
 (Enter /opt/g09gh/gaussian/g09/l401.exe)
 Harris functional with IExCor= 4639 diagonalized for initial guess.
 ExpMin= 1.61D-01 ExpMax= 5.48D+03 ExpMxC= 8.25D+02 IAcc=1 IRadAn=         1 AccDes= 0.00D+00
 HarFok:  IExCor= 4639 AccDes= 0.00D+00 IRadAn=         1 IDoV= 1
 ScaDFX=  1.000000  1.000000  1.000000  1.000000
 FoFCou: FMM=F IPFlag=           0 FMFlag=      100000 FMFlg1=           1
         NFxFlg=           0 DoJE=T BraDBF=F KetDBF=T FulRan=T
         Omega=  0.000000  0.000000  1.000000  0.000000  0.000000 ICntrl=     500 IOpCl=  0
         NMat0=    1 NMatS0=    1 NMatT0=    0 NMatD0=    1 NMtDS0=    0 NMtDT0=    0
         I1Cent=           4 NGrid=           0.
 Petite list used in FoFCou.
 Harris En= -1512.39434174596    
 Initial guess orbital symmetries:
       Occupied  (A) (A) (A) (A) (A) (A) (A) (A) (A) (A) (A) (A)
                 (A) (A) (A) (A) (A) (A) (A) (A) (A) (A) (A) (A)
                 (A) (A) (A) (A) (A) (A) (A) (A) (A) (A) (A) (A)
                 (A) (A) (A) (A) (A) (A) (A) (A) (A) (A) (A) (A)
                 (A) (A) (A) (A) (A) (A) (A) (A) (A) (A) (A) (A)
                 (A) (A) (A) (A) (A) (A) (A) (A) (A) (A) (A) (A)
                 (A) (A) (A) (A) (A) (A) (A) (A) (A) (A) (A) (A)
                 (A) (A) (A) (A) (A) (A) (A) (A) (A) (A) (A) (A)
                 (A) (A) (A) (A) (A) (A) (A) (A) (A) (A) (A) (A)
                 (A) (A) (A) (A) (A) (A) (A) (A) (A) (A) (A) (A)
                 (A) (A) (A) (A) (A) (A) (A) (A) (A) (A) (A)
       Virtual   (A) (A) (A) (A) (A) (A) (A) (A) (A) (A) (A) (A)
                 (A) (A) (A) (A) (A) (A) (A) (A) (A) (A) (A) (A)
                 (A) (A) (A) (A) (A) (A) (A) (A) (A) (A) (A) (A)
                 (A) (A) (A) (A) (A) (A) (A) (A) (A) (A) (A) (A)
                 (A) (A) (A) (A) (A) (A) (A) (A) (A) (A) (A) (A)
                 (A) (A) (A) (A) (A) (A) (A) (A) (A) (A) (A) (A)
                 (A) (A) (A) (A) (A) (A) (A) (A) (A) (A) (A) (A)
                 (A) (A) (A) (A) (A) (A) (A) (A) (A) (A) (A) (A)
                 (A) (A) (A) (A) (A) (A) (A) (A) (A) (A) (A) (A)
                 (A) (A) (A) (A) (A) (A) (A) (A) (A) (A) (A) (A)
                 (A) (A) (A) (A) (A) (A) (A) (A) (A) (A) (A) (A)
                 (A) (A) (A) (A) (A) (A) (A) (A) (A) (A) (A) (A)
                 (A) (A) (A) (A) (A) (A) (A) (A) (A) (A) (A) (A)
                 (A) (A) (A) (A) (A) (A) (A) (A) (A) (A) (A) (A)
                 (A) (A) (A) (A) (A) (A) (A) (A) (A) (A) (A) (A)
                 (A) (A) (A) (A) (A) (A) (A) (A) (A) (A) (A) (A)
                 (A) (A) (A) (A) (A) (A) (A) (A) (A) (A) (A) (A)
                 (A) (A) (A) (A) (A) (A) (A) (A) (A) (A) (A) (A)
                 (A) (A) (A) (A) (A) (A) (A) (A) (A) (A) (A) (A)
                 (A) (A) (A) (A) (A) (A) (A) (A) (A) (A) (A) (A)
                 (A) (A) (A) (A) (A) (A) (A) (A) (A) (A) (A) (A)
                 (A) (A) (A) (A) (A) (A) (A) (A) (A) (A) (A) (A)
                 (A) (A) (A) (A) (A) (A) (A) (A) (A) (A) (A) (A)
                 (A) (A) (A) (A) (A) (A) (A) (A) (A) (A) (A) (A)
                 (A) (A) (A) (A) (A) (A) (A) (A) (A) (A) (A) (A)
                 (A) (A) (A) (A) (A) (A) (A) (A) (A) (A) (A) (A)
                 (A) (A) (A) (A) (A) (A) (A) (A) (A) (A) (A) (A)
                 (A) (A) (A) (A) (A) (A) (A) (A) (A) (A) (A) (A)
                 (A) (A) (A) (A) (A) (A) (A) (A) (A) (A) (A) (A)
                 (A) (A) (A) (A) (A) (A) (A) (A) (A) (A) (A) (A)
                 (A) (A) (A) (A) (A) (A) (A) (A) (A) (A) (A) (A)
                 (A) (A) (A) (A) (A) (A) (A) (A) (A) (A) (A) (A)
                 (A) (A) (A) (A) (A) (A) (A) (A) (A) (A) (A) (A)
                 (A) (A) (A) (A) (A) (A) (A) (A) (A) (A) (A) (A)
                 (A) (A) (A) (A) (A) (A) (A) (A) (A) (A) (A) (A)
                 (A) (A) (A) (A) (A) (A) (A) (A) (A) (A) (A) (A)
                 (A) (A) (A) (A) (A) (A) (A) (A) (A) (A) (A) (A)
                 (A) (A) (A) (A) (A) (A) (A) (A) (A) (A) (A) (A)
                 (A) (A) (A) (A) (A) (A) (A) (A) (A) (A) (A) (A)
                 (A) (A) (A) (A) (A) (A) (A) (A) (A) (A) (A) (A)
                 (A) (A) (A) (A) (A) (A)
 The electronic state of the initial guess is 1-A.
 Leave Link  401 at Tue Mar 10 11:30:59 2020, MaxMem= 2684354560 cpu:      14.2
 (Enter /opt/g09gh/gaussian/g09/l502.exe)
 Closed shell SCF:
 Requested convergence on RMS density matrix=1.00D-08 within 128 cycles.
 Requested convergence on MAX density matrix=1.00D-06.
 Requested convergence on             energy=1.00D-06.
 No special actions if energy rises.
 Using DIIS extrapolation, IDIIS=  1040.
 Integral symmetry usage will be decided dynamically.
       595039 words used for storage of precomputed grid.
 IEnd=     1763619 IEndB=     1763619 NGot=  2684354560 MDV=  2682988888
 LenX=  2682988888 LenY=  2682607582
 Fock matrices will be formed incrementally for  20 cycles.
 Integral accuracy reduced to 1.0D-05 until final iterations.

 Cycle   1  Pass 0  IDiag  1:
 FoFJK:  IHMeth= 1 ICntrl=     0 DoSepK=T KAlg= 1 I1Cent= 0 FoldK=F
 FoFCou: FMM=T IPFlag=           0 FMFlag=      100000 FMFlg1=           1
         NFxFlg=           0 DoJE=T BraDBF=F KetDBF=F FulRan=T
         Omega=  0.000000  0.000000  1.000000  0.000000  0.000000 ICntrl=     500 IOpCl=  0
         NMat0=    1 NMatS0=    1 NMatT0=    0 NMatD0=    1 NMtDS0=    0 NMtDT0=    0
         I1Cent=           0 NGrid=           0.
 Symmetry not used in FoFCou.
 FMM levels:  10  Number of levels for PrismC:   9
 E= -1581.15284537685    
 DIIS: error= 6.40D-02 at cycle   1 NSaved=   1.
 NSaved= 1 IEnMin= 1 EnMin= -1581.15284537685     IErMin= 1 ErrMin= 6.40D-02
 ErrMax= 6.40D-02 EMaxC= 1.00D-01 BMatC= 1.46D+00 BMatP= 1.46D+00
 IDIUse=3 WtCom= 3.60D-01 WtEn= 6.40D-01
 Coeff-Com:  0.100D+01
 Coeff-En:   0.100D+01
 Coeff:      0.100D+01
 Gap=     0.266 Goal=   None    Shift=    0.000
 GapD=    0.266 DampG=1.000 DampE=0.500 DampFc=0.5000 IDamp=-1.
 Damping current iteration by 5.00D-01
 RMSDP=1.86D-03 MaxDP=9.00D-02              OVMax= 1.71D-01

 Cycle   2  Pass 0  IDiag  1:
 RMSU=  6.58D-04    CP:  1.00D+00
 FoFJK:  IHMeth= 1 ICntrl=     0 DoSepK=T KAlg= 1 I1Cent= 0 FoldK=F
 E= -1581.32912021536     Delta-E=       -0.176274838507 Rises=F Damp=T
 DIIS: error= 3.25D-02 at cycle   2 NSaved=   2.
 NSaved= 2 IEnMin= 2 EnMin= -1581.32912021536     IErMin= 2 ErrMin= 3.25D-02
 ErrMax= 3.25D-02 EMaxC= 1.00D-01 BMatC= 3.22D-01 BMatP= 1.46D+00
 IDIUse=3 WtCom= 6.75D-01 WtEn= 3.25D-01
 Coeff-Com: -0.655D+00 0.166D+01
 Coeff-En:   0.000D+00 0.100D+01
 Coeff:     -0.442D+00 0.144D+01
 Gap=     0.285 Goal=   None    Shift=    0.000
 RMSDP=8.58D-04 MaxDP=3.88D-02 DE=-1.76D-01 OVMax= 1.20D-01

 Cycle   3  Pass 0  IDiag  1:
 RMSU=  5.50D-04    CP:  1.00D+00  1.39D+00
 FoFJK:  IHMeth= 1 ICntrl=     0 DoSepK=T KAlg= 1 I1Cent= 0 FoldK=F
 E= -1581.46393402907     Delta-E=       -0.134813813719 Rises=F Damp=F
 DIIS: error= 7.68D-03 at cycle   3 NSaved=   3.
 NSaved= 3 IEnMin= 3 EnMin= -1581.46393402907     IErMin= 3 ErrMin= 7.68D-03
 ErrMax= 7.68D-03 EMaxC= 1.00D-01 BMatC= 5.64D-02 BMatP= 3.22D-01
 IDIUse=3 WtCom= 9.23D-01 WtEn= 7.68D-02
 Coeff-Com: -0.353D+00 0.730D+00 0.623D+00
 Coeff-En:   0.000D+00 0.000D+00 0.100D+01
 Coeff:     -0.326D+00 0.674D+00 0.652D+00
 Gap=     0.260 Goal=   None    Shift=    0.000
 RMSDP=4.46D-04 MaxDP=3.11D-02 DE=-1.35D-01 OVMax= 6.07D-02

 Cycle   4  Pass 0  IDiag  1:
 RMSU=  1.40D-04    CP:  1.00D+00  1.67D+00  6.10D-01
 FoFJK:  IHMeth= 1 ICntrl=     0 DoSepK=T KAlg= 1 I1Cent= 0 FoldK=F
 E= -1581.51378677349     Delta-E=       -0.049852744412 Rises=F Damp=F
 DIIS: error= 2.07D-03 at cycle   4 NSaved=   4.
 NSaved= 4 IEnMin= 4 EnMin= -1581.51378677349     IErMin= 4 ErrMin= 2.07D-03
 ErrMax= 2.07D-03 EMaxC= 1.00D-01 BMatC= 3.60D-03 BMatP= 5.64D-02
 IDIUse=3 WtCom= 9.79D-01 WtEn= 2.07D-02
 Coeff-Com: -0.157D+00 0.320D+00 0.349D+00 0.488D+00
 Coeff-En:   0.000D+00 0.000D+00 0.000D+00 0.100D+01
 Coeff:     -0.154D+00 0.313D+00 0.342D+00 0.499D+00
 Gap=     0.254 Goal=   None    Shift=    0.000
 RMSDP=9.80D-05 MaxDP=9.27D-03 DE=-4.99D-02 OVMax= 1.04D-02

 Cycle   5  Pass 0  IDiag  1:
 RMSU=  4.39D-05    CP:  1.00D+00  1.65D+00  6.74D-01  7.24D-01
 FoFJK:  IHMeth= 1 ICntrl=     0 DoSepK=T KAlg= 1 I1Cent= 0 FoldK=F
 E= -1581.51687969444     Delta-E=       -0.003092920949 Rises=F Damp=F
 DIIS: error= 3.84D-04 at cycle   5 NSaved=   5.
 NSaved= 5 IEnMin= 5 EnMin= -1581.51687969444     IErMin= 5 ErrMin= 3.84D-04
 ErrMax= 3.84D-04 EMaxC= 1.00D-01 BMatC= 8.83D-05 BMatP= 3.60D-03
 IDIUse=3 WtCom= 9.96D-01 WtEn= 3.84D-03
 Coeff-Com: -0.158D-01 0.313D-01 0.564D-01 0.160D+00 0.768D+00
 Coeff-En:   0.000D+00 0.000D+00 0.000D+00 0.000D+00 0.100D+01
 Coeff:     -0.157D-01 0.312D-01 0.562D-01 0.159D+00 0.769D+00
 Gap=     0.252 Goal=   None    Shift=    0.000
 RMSDP=2.32D-05 MaxDP=2.57D-03 DE=-3.09D-03 OVMax= 2.67D-03

 Cycle   6  Pass 0  IDiag  1:
 RMSU=  1.28D-05    CP:  1.00D+00  1.66D+00  6.81D-01  7.86D-01  9.97D-01
 FoFJK:  IHMeth= 1 ICntrl=     0 DoSepK=T KAlg= 1 I1Cent= 0 FoldK=F
 E= -1581.51696332048     Delta-E=       -0.000083626048 Rises=F Damp=F
 DIIS: error= 2.90D-04 at cycle   6 NSaved=   6.
 NSaved= 6 IEnMin= 6 EnMin= -1581.51696332048     IErMin= 6 ErrMin= 2.90D-04
 ErrMax= 2.90D-04 EMaxC= 1.00D-01 BMatC= 2.65D-05 BMatP= 8.83D-05
 IDIUse=3 WtCom= 9.97D-01 WtEn= 2.90D-03
 Coeff-Com:  0.226D-01-0.467D-01-0.370D-01-0.159D-01 0.394D+00 0.683D+00
 Coeff-En:   0.000D+00 0.000D+00 0.000D+00 0.000D+00 0.000D+00 0.100D+01
 Coeff:      0.225D-01-0.466D-01-0.369D-01-0.159D-01 0.393D+00 0.684D+00
 Gap=     0.253 Goal=   None    Shift=    0.000
 RMSDP=1.29D-05 MaxDP=9.13D-04 DE=-8.36D-05 OVMax= 1.64D-03

 Cycle   7  Pass 0  IDiag  1:
 RMSU=  5.59D-06    CP:  1.00D+00  1.66D+00  6.85D-01  8.14D-01  1.11D+00
                    CP:  8.82D-01
 FoFJK:  IHMeth= 1 ICntrl=     0 DoSepK=T KAlg= 1 I1Cent= 0 FoldK=F
 E= -1581.51699279557     Delta-E=       -0.000029475087 Rises=F Damp=F
 DIIS: error= 5.73D-05 at cycle   7 NSaved=   7.
 NSaved= 7 IEnMin= 7 EnMin= -1581.51699279557     IErMin= 7 ErrMin= 5.73D-05
 ErrMax= 5.73D-05 EMaxC= 1.00D-01 BMatC= 1.65D-06 BMatP= 2.65D-05
 IDIUse=1 WtCom= 1.00D+00 WtEn= 0.00D+00
 Coeff-Com:  0.943D-02-0.193D-01-0.174D-01-0.203D-01 0.660D-01 0.238D+00
 Coeff-Com:  0.744D+00
 Coeff:      0.943D-02-0.193D-01-0.174D-01-0.203D-01 0.660D-01 0.238D+00
 Coeff:      0.744D+00
 Gap=     0.253 Goal=   None    Shift=    0.000
 RMSDP=3.98D-06 MaxDP=2.55D-04 DE=-2.95D-05 OVMax= 6.12D-04

 Initial convergence to 1.0D-05 achieved.  Increase integral accuracy.
 Cycle   8  Pass 1  IDiag  1:
 FoFJK:  IHMeth= 1 ICntrl=     0 DoSepK=T KAlg= 1 I1Cent= 0 FoldK=F
 E= -1581.51465020684     Delta-E=        0.002342588726 Rises=F Damp=F
 DIIS: error= 1.14D-04 at cycle   1 NSaved=   1.
 NSaved= 1 IEnMin= 1 EnMin= -1581.51465020684     IErMin= 1 ErrMin= 1.14D-04
 ErrMax= 1.14D-04 EMaxC= 1.00D-01 BMatC= 1.44D-05 BMatP= 1.44D-05
 IDIUse=3 WtCom= 9.99D-01 WtEn= 1.14D-03
 Coeff-Com:  0.100D+01
 Coeff-En:   0.100D+01
 Coeff:      0.100D+01
 Gap=     0.253 Goal=   None    Shift=    0.000
 RMSDP=3.98D-06 MaxDP=2.55D-04 DE= 2.34D-03 OVMax= 4.07D-04

 Cycle   9  Pass 1  IDiag  1:
 RMSU=  1.85D-05    CP:  1.00D+00
 FoFJK:  IHMeth= 1 ICntrl=     0 DoSepK=T KAlg= 1 I1Cent= 0 FoldK=F
 E= -1581.51466188920     Delta-E=       -0.000011682358 Rises=F Damp=F
 DIIS: error= 2.74D-05 at cycle   2 NSaved=   2.
 NSaved= 2 IEnMin= 2 EnMin= -1581.51466188920     IErMin= 2 ErrMin= 2.74D-05
 ErrMax= 2.74D-05 EMaxC= 1.00D-01 BMatC= 7.28D-07 BMatP= 1.44D-05
 IDIUse=1 WtCom= 1.00D+00 WtEn= 0.00D+00
 Coeff-Com:  0.195D-01 0.980D+00
 Coeff:      0.195D-01 0.980D+00
 Gap=     0.253 Goal=   None    Shift=    0.000
 RMSDP=3.02D-06 MaxDP=1.99D-04 DE=-1.17D-05 OVMax= 2.95D-04

 Cycle  10  Pass 1  IDiag  1:
 RMSU=  1.96D-06    CP:  1.00D+00  1.04D+00
 FoFJK:  IHMeth= 1 ICntrl=     0 DoSepK=T KAlg= 1 I1Cent= 0 FoldK=F
 E= -1581.51466200633     Delta-E=       -0.000000117129 Rises=F Damp=F
 DIIS: error= 3.80D-05 at cycle   3 NSaved=   3.
 NSaved= 3 IEnMin= 3 EnMin= -1581.51466200633     IErMin= 2 ErrMin= 2.74D-05
 ErrMax= 3.80D-05 EMaxC= 1.00D-01 BMatC= 8.42D-07 BMatP= 7.28D-07
 IDIUse=1 WtCom= 1.00D+00 WtEn= 0.00D+00
 Coeff-Com: -0.399D-01 0.536D+00 0.503D+00
 Coeff:     -0.399D-01 0.536D+00 0.503D+00
 Gap=     0.253 Goal=   None    Shift=    0.000
 RMSDP=1.49D-06 MaxDP=1.45D-04 DE=-1.17D-07 OVMax= 1.56D-04

 Cycle  11  Pass 1  IDiag  1:
 RMSU=  6.45D-07    CP:  1.00D+00  1.05D+00  5.84D-01
 FoFJK:  IHMeth= 1 ICntrl=     0 DoSepK=T KAlg= 1 I1Cent= 0 FoldK=F
 E= -1581.51466273602     Delta-E=       -0.000000729693 Rises=F Damp=F
 DIIS: error= 7.60D-06 at cycle   4 NSaved=   4.
 NSaved= 4 IEnMin= 4 EnMin= -1581.51466273602     IErMin= 4 ErrMin= 7.60D-06
 ErrMax= 7.60D-06 EMaxC= 1.00D-01 BMatC= 2.88D-08 BMatP= 7.28D-07
 IDIUse=1 WtCom= 1.00D+00 WtEn= 0.00D+00
 Coeff-Com: -0.180D-01 0.131D+00 0.192D+00 0.695D+00
 Coeff:     -0.180D-01 0.131D+00 0.192D+00 0.695D+00
 Gap=     0.253 Goal=   None    Shift=    0.000
 RMSDP=3.56D-07 MaxDP=3.74D-05 DE=-7.30D-07 OVMax= 4.05D-05

 Cycle  12  Pass 1  IDiag  1:
 RMSU=  2.22D-07    CP:  1.00D+00  1.05D+00  6.43D-01  1.01D+00
 FoFJK:  IHMeth= 1 ICntrl=     0 DoSepK=T KAlg= 1 I1Cent= 0 FoldK=F
 E= -1581.51466276338     Delta-E=       -0.000000027359 Rises=F Damp=F
 DIIS: error= 3.18D-06 at cycle   5 NSaved=   5.
 NSaved= 5 IEnMin= 5 EnMin= -1581.51466276338     IErMin= 5 ErrMin= 3.18D-06
 ErrMax= 3.18D-06 EMaxC= 1.00D-01 BMatC= 4.90D-09 BMatP= 2.88D-08
 IDIUse=1 WtCom= 1.00D+00 WtEn= 0.00D+00
 Coeff-Com: -0.499D-03-0.324D-01-0.402D-02 0.287D+00 0.750D+00
 Coeff:     -0.499D-03-0.324D-01-0.402D-02 0.287D+00 0.750D+00
 Gap=     0.253 Goal=   None    Shift=    0.000
 RMSDP=1.90D-07 MaxDP=1.35D-05 DE=-2.74D-08 OVMax= 2.48D-05

 Cycle  13  Pass 1  IDiag  1:
 RMSU=  9.29D-08    CP:  1.00D+00  1.05D+00  6.63D-01  1.15D+00  9.56D-01
 FoFJK:  IHMeth= 1 ICntrl=     0 DoSepK=T KAlg= 1 I1Cent= 0 FoldK=F
 E= -1581.51466277035     Delta-E=       -0.000000006967 Rises=F Damp=F
 DIIS: error= 8.76D-07 at cycle   6 NSaved=   6.
 NSaved= 6 IEnMin= 6 EnMin= -1581.51466277035     IErMin= 6 ErrMin= 8.76D-07
 ErrMax= 8.76D-07 EMaxC= 1.00D-01 BMatC= 6.16D-10 BMatP= 4.90D-09
 IDIUse=1 WtCom= 1.00D+00 WtEn= 0.00D+00
 Coeff-Com:  0.206D-02-0.277D-01-0.265D-01 0.135D-01 0.275D+00 0.763D+00
 Coeff:      0.206D-02-0.277D-01-0.265D-01 0.135D-01 0.275D+00 0.763D+00
 Gap=     0.253 Goal=   None    Shift=    0.000
 RMSDP=8.43D-08 MaxDP=4.06D-06 DE=-6.97D-09 OVMax= 1.76D-05

 Cycle  14  Pass 1  IDiag  1:
 RMSU=  3.71D-08    CP:  1.00D+00  1.05D+00  6.67D-01  1.20D+00  1.09D+00
                    CP:  1.05D+00
 FoFJK:  IHMeth= 1 ICntrl=     0 DoSepK=T KAlg= 1 I1Cent= 0 FoldK=F
 E= -1581.51466277167     Delta-E=       -0.000000001318 Rises=F Damp=F
 DIIS: error= 3.74D-07 at cycle   7 NSaved=   7.
 NSaved= 7 IEnMin= 7 EnMin= -1581.51466277167     IErMin= 7 ErrMin= 3.74D-07
 ErrMax= 3.74D-07 EMaxC= 1.00D-01 BMatC= 1.23D-10 BMatP= 6.16D-10
 IDIUse=1 WtCom= 1.00D+00 WtEn= 0.00D+00
 Coeff-Com:  0.890D-03-0.489D-02-0.107D-01-0.542D-01-0.345D-01 0.299D+00
 Coeff-Com:  0.804D+00
 Coeff:      0.890D-03-0.489D-02-0.107D-01-0.542D-01-0.345D-01 0.299D+00
 Coeff:      0.804D+00
 Gap=     0.253 Goal=   None    Shift=    0.000
 RMSDP=4.58D-08 MaxDP=1.74D-06 DE=-1.32D-09 OVMax= 8.52D-06

 Cycle  15  Pass 1  IDiag  1:
 RMSU=  1.58D-08    CP:  1.00D+00  1.05D+00  6.72D-01  1.22D+00  1.15D+00
                    CP:  1.26D+00  1.07D+00
 FoFJK:  IHMeth= 1 ICntrl=     0 DoSepK=T KAlg= 1 I1Cent= 0 FoldK=F
 E= -1581.51466277196     Delta-E=       -0.000000000296 Rises=F Damp=F
 DIIS: error= 1.67D-07 at cycle   8 NSaved=   8.
 NSaved= 8 IEnMin= 8 EnMin= -1581.51466277196     IErMin= 8 ErrMin= 1.67D-07
 ErrMax= 1.67D-07 EMaxC= 1.00D-01 BMatC= 1.88D-11 BMatP= 1.23D-10
 IDIUse=1 WtCom= 1.00D+00 WtEn= 0.00D+00
 Coeff-Com: -0.485D-04 0.330D-02 0.989D-03-0.204D-01-0.578D-01-0.319D-01
 Coeff-Com:  0.279D+00 0.827D+00
 Coeff:     -0.485D-04 0.330D-02 0.989D-03-0.204D-01-0.578D-01-0.319D-01
 Coeff:      0.279D+00 0.827D+00
 Gap=     0.253 Goal=   None    Shift=    0.000
 RMSDP=1.90D-08 MaxDP=8.86D-07 DE=-2.96D-10 OVMax= 4.79D-06

 Cycle  16  Pass 1  IDiag  1:
 RMSU=  6.54D-09    CP:  1.00D+00  1.05D+00  6.72D-01  1.23D+00  1.17D+00
                    CP:  1.33D+00  1.27D+00  1.08D+00
 FoFJK:  IHMeth= 1 ICntrl=     0 DoSepK=T KAlg= 1 I1Cent= 0 FoldK=F
 E= -1581.51466277205     Delta-E=       -0.000000000083 Rises=F Damp=F
 DIIS: error= 5.88D-08 at cycle   9 NSaved=   9.
 NSaved= 9 IEnMin= 9 EnMin= -1581.51466277205     IErMin= 9 ErrMin= 5.88D-08
 ErrMax= 5.88D-08 EMaxC= 1.00D-01 BMatC= 3.54D-12 BMatP= 1.88D-11
 IDIUse=1 WtCom= 1.00D+00 WtEn= 0.00D+00
 Coeff-Com: -0.175D-03 0.220D-02 0.231D-02 0.154D-02-0.176D-01-0.677D-01
 Coeff-Com: -0.370D-01 0.313D+00 0.803D+00
 Coeff:     -0.175D-03 0.220D-02 0.231D-02 0.154D-02-0.176D-01-0.677D-01
 Coeff:     -0.370D-01 0.313D+00 0.803D+00
 Gap=     0.253 Goal=   None    Shift=    0.000
 RMSDP=7.89D-09 MaxDP=3.97D-07 DE=-8.28D-11 OVMax= 1.93D-06

 SCF Done:  E(RwB97XD) =  -1581.51466277     A.U. after   16 cycles
             Convg  =    0.7887D-08             -V/T =  2.0110
 KE= 1.564355750533D+03 PE=-1.095591867720D+04 EE= 4.166362277807D+03
 Leave Link  502 at Tue Mar 10 11:33:25 2020, MaxMem= 2684354560 cpu:     871.5
 (Enter /opt/g09gh/gaussian/g09/l601.exe)
 Copying SCF densities to generalized density rwf, IOpCl= 0 IROHF=0.

 **********************************************************************

            Population analysis using the SCF density.

 **********************************************************************

 Orbital symmetries:
       Occupied  (A) (A) (A) (A) (A) (A) (A) (A) (A) (A) (A) (A)
                 (A) (A) (A) (A) (A) (A) (A) (A) (A) (A) (A) (A)
                 (A) (A) (A) (A) (A) (A) (A) (A) (A) (A) (A) (A)
                 (A) (A) (A) (A) (A) (A) (A) (A) (A) (A) (A) (A)
                 (A) (A) (A) (A) (A) (A) (A) (A) (A) (A) (A) (A)
                 (A) (A) (A) (A) (A) (A) (A) (A) (A) (A) (A) (A)
                 (A) (A) (A) (A) (A) (A) (A) (A) (A) (A) (A) (A)
                 (A) (A) (A) (A) (A) (A) (A) (A) (A) (A) (A) (A)
                 (A) (A) (A) (A) (A) (A) (A) (A) (A) (A) (A) (A)
                 (A) (A) (A) (A) (A) (A) (A) (A) (A) (A) (A) (A)
                 (A) (A) (A) (A) (A) (A) (A) (A) (A) (A) (A)
       Virtual   (A) (A) (A) (A) (A) (A) (A) (A) (A) (A) (A) (A)
                 (A) (A) (A) (A) (A) (A) (A) (A) (A) (A) (A) (A)
                 (A) (A) (A) (A) (A) (A) (A) (A) (A) (A) (A) (A)
                 (A) (A) (A) (A) (A) (A) (A) (A) (A) (A) (A) (A)
                 (A) (A) (A) (A) (A) (A) (A) (A) (A) (A) (A) (A)
                 (A) (A) (A) (A) (A) (A) (A) (A) (A) (A) (A) (A)
                 (A) (A) (A) (A) (A) (A) (A) (A) (A) (A) (A) (A)
                 (A) (A) (A) (A) (A) (A) (A) (A) (A) (A) (A) (A)
                 (A) (A) (A) (A) (A) (A) (A) (A) (A) (A) (A) (A)
                 (A) (A) (A) (A) (A) (A) (A) (A) (A) (A) (A) (A)
                 (A) (A) (A) (A) (A) (A) (A) (A) (A) (A) (A) (A)
                 (A) (A) (A) (A) (A) (A) (A) (A) (A) (A) (A) (A)
                 (A) (A) (A) (A) (A) (A) (A) (A) (A) (A) (A) (A)
                 (A) (A) (A) (A) (A) (A) (A) (A) (A) (A) (A) (A)
                 (A) (A) (A) (A) (A) (A) (A) (A) (A) (A) (A) (A)
                 (A) (A) (A) (A) (A) (A) (A) (A) (A) (A) (A) (A)
                 (A) (A) (A) (A) (A) (A) (A) (A) (A) (A) (A) (A)
                 (A) (A) (A) (A) (A) (A) (A) (A) (A) (A) (A) (A)
                 (A) (A) (A) (A) (A) (A) (A) (A) (A) (A) (A) (A)
                 (A) (A) (A) (A) (A) (A) (A) (A) (A) (A) (A) (A)
                 (A) (A) (A) (A) (A) (A) (A) (A) (A) (A) (A) (A)
                 (A) (A) (A) (A) (A) (A) (A) (A) (A) (A) (A) (A)
                 (A) (A) (A) (A) (A) (A) (A) (A) (A) (A) (A) (A)
                 (A) (A) (A) (A) (A) (A) (A) (A) (A) (A) (A) (A)
                 (A) (A) (A) (A) (A) (A) (A) (A) (A) (A) (A) (A)
                 (A) (A) (A) (A) (A) (A) (A) (A) (A) (A) (A) (A)
                 (A) (A) (A) (A) (A) (A) (A) (A) (A) (A) (A) (A)
                 (A) (A) (A) (A) (A) (A) (A) (A) (A) (A) (A) (A)
                 (A) (A) (A) (A) (A) (A) (A) (A) (A) (A) (A) (A)
                 (A) (A) (A) (A) (A) (A) (A) (A) (A) (A) (A) (A)
                 (A) (A) (A) (A) (A) (A) (A) (A) (A) (A) (A) (A)
                 (A) (A) (A) (A) (A) (A) (A) (A) (A) (A) (A) (A)
                 (A) (A) (A) (A) (A) (A) (A) (A) (A) (A) (A) (A)
                 (A) (A) (A) (A) (A) (A) (A) (A) (A) (A) (A) (A)
                 (A) (A) (A) (A) (A) (A) (A) (A) (A) (A) (A) (A)
                 (A) (A) (A) (A) (A) (A) (A) (A) (A) (A) (A) (A)
                 (A) (A) (A) (A) (A) (A) (A) (A) (A) (A) (A) (A)
                 (A) (A) (A) (A) (A) (A) (A) (A) (A) (A) (A) (A)
                 (A) (A) (A) (A) (A) (A) (A) (A) (A) (A) (A) (A)
                 (A) (A) (A) (A) (A) (A) (A) (A) (A) (A) (A) (A)
                 (A) (A) (A) (A) (A) (A)
 The electronic state is 1-A.
 Alpha  occ. eigenvalues --  -19.23981 -14.49441 -14.49244 -14.46419 -14.46063
 Alpha  occ. eigenvalues --  -14.46028 -14.45858 -14.44368 -10.42052 -10.40818
 Alpha  occ. eigenvalues --  -10.38170 -10.36634 -10.36337 -10.35908 -10.35818
 Alpha  occ. eigenvalues --  -10.35744 -10.35351 -10.35153 -10.34928 -10.34795
 Alpha  occ. eigenvalues --  -10.34100 -10.34077 -10.33925 -10.32623 -10.32107
 Alpha  occ. eigenvalues --  -10.31987 -10.31804 -10.31477 -10.31459 -10.31378
 Alpha  occ. eigenvalues --  -10.31213 -10.31171 -10.30704 -10.30424 -10.30227
 Alpha  occ. eigenvalues --  -10.29984 -10.29192  -1.13971  -1.11545  -1.05223
 Alpha  occ. eigenvalues --   -1.03851  -1.03235  -1.03216  -1.00050  -0.99266
 Alpha  occ. eigenvalues --   -0.96273  -0.94640  -0.92271  -0.89286  -0.88176
 Alpha  occ. eigenvalues --   -0.86950  -0.86477  -0.85175  -0.83904  -0.83378
 Alpha  occ. eigenvalues --   -0.81835  -0.79535  -0.77780  -0.77738  -0.75964
 Alpha  occ. eigenvalues --   -0.73205  -0.72814  -0.72257  -0.71663  -0.70786
 Alpha  occ. eigenvalues --   -0.70393  -0.69626  -0.68195  -0.66511  -0.64651
 Alpha  occ. eigenvalues --   -0.63170  -0.62540  -0.61529  -0.60565  -0.59959
 Alpha  occ. eigenvalues --   -0.58510  -0.58224  -0.56859  -0.56730  -0.56139
 Alpha  occ. eigenvalues --   -0.55774  -0.55613  -0.54714  -0.54411  -0.54014
 Alpha  occ. eigenvalues --   -0.53521  -0.52541  -0.52333  -0.52116  -0.51723
 Alpha  occ. eigenvalues --   -0.51432  -0.51211  -0.51174  -0.50700  -0.50511
 Alpha  occ. eigenvalues --   -0.49958  -0.49887  -0.49452  -0.49393  -0.48344
 Alpha  occ. eigenvalues --   -0.47564  -0.46571  -0.46380  -0.46028  -0.45871
 Alpha  occ. eigenvalues --   -0.45583  -0.44797  -0.44164  -0.43942  -0.43566
 Alpha  occ. eigenvalues --   -0.43417  -0.43182  -0.42307  -0.41392  -0.40298
 Alpha  occ. eigenvalues --   -0.40177  -0.38097  -0.37772  -0.37139  -0.35363
 Alpha  occ. eigenvalues --   -0.35213  -0.35137  -0.34326  -0.33488  -0.33186
 Alpha  occ. eigenvalues --   -0.33149  -0.31710  -0.30981  -0.29606  -0.27528
 Alpha  occ. eigenvalues --   -0.25833
 Alpha virt. eigenvalues --   -0.00499   0.03132   0.04565   0.05018   0.05638
 Alpha virt. eigenvalues --    0.06276   0.07510   0.08195   0.09749   0.10457
 Alpha virt. eigenvalues --    0.12395   0.13069   0.13830   0.14710   0.15767
 Alpha virt. eigenvalues --    0.16029   0.17191   0.18555   0.18862   0.19277
 Alpha virt. eigenvalues --    0.19423   0.20045   0.20346   0.21086   0.21754
 Alpha virt. eigenvalues --    0.22770   0.22856   0.23225   0.23394   0.23998
 Alpha virt. eigenvalues --    0.24121   0.24308   0.24416   0.25178   0.25304
 Alpha virt. eigenvalues --    0.25409   0.25785   0.26255   0.26426   0.26748
 Alpha virt. eigenvalues --    0.27374   0.27816   0.28074   0.28415   0.28596
 Alpha virt. eigenvalues --    0.28909   0.29496   0.29602   0.29980   0.30885
 Alpha virt. eigenvalues --    0.31977   0.32047   0.32470   0.33258   0.33663
 Alpha virt. eigenvalues --    0.33874   0.34579   0.35630   0.36513   0.37109
 Alpha virt. eigenvalues --    0.37951   0.38320   0.38685   0.38855   0.39961
 Alpha virt. eigenvalues --    0.40166   0.40480   0.40950   0.41303   0.42489
 Alpha virt. eigenvalues --    0.43456   0.44912   0.45277   0.46231   0.46962
 Alpha virt. eigenvalues --    0.47916   0.49529   0.50962   0.52419   0.53784
 Alpha virt. eigenvalues --    0.55233   0.55404   0.56564   0.57066   0.57577
 Alpha virt. eigenvalues --    0.58539   0.58667   0.59295   0.59674   0.59841
 Alpha virt. eigenvalues --    0.59994   0.60699   0.61142   0.61484   0.61981
 Alpha virt. eigenvalues --    0.62265   0.62851   0.63117   0.63522   0.63828
 Alpha virt. eigenvalues --    0.64400   0.64662   0.64854   0.65167   0.65350
 Alpha virt. eigenvalues --    0.65510   0.65856   0.66383   0.66415   0.66486
 Alpha virt. eigenvalues --    0.66837   0.67007   0.67192   0.68147   0.68287
 Alpha virt. eigenvalues --    0.68712   0.68721   0.69549   0.69908   0.70081
 Alpha virt. eigenvalues --    0.70502   0.70966   0.71204   0.71458   0.71660
 Alpha virt. eigenvalues --    0.72080   0.72240   0.72731   0.73000   0.73117
 Alpha virt. eigenvalues --    0.73998   0.74478   0.74672   0.75435   0.75944
 Alpha virt. eigenvalues --    0.76808   0.77563   0.77742   0.79467   0.80435
 Alpha virt. eigenvalues --    0.81136   0.81341   0.81821   0.81885   0.82547
 Alpha virt. eigenvalues --    0.83243   0.83639   0.83769   0.85543   0.85731
 Alpha virt. eigenvalues --    0.86441   0.87244   0.87795   0.87887   0.88159
 Alpha virt. eigenvalues --    0.88983   0.89368   0.89784   0.90035   0.90760
 Alpha virt. eigenvalues --    0.90974   0.91520   0.91567   0.91969   0.92697
 Alpha virt. eigenvalues --    0.92807   0.93221   0.93759   0.93915   0.94115
 Alpha virt. eigenvalues --    0.94207   0.94571   0.94819   0.94970   0.95234
 Alpha virt. eigenvalues --    0.95894   0.96381   0.97001   0.97554   0.97839
 Alpha virt. eigenvalues --    0.98119   0.98294   0.98567   0.99450   0.99885
 Alpha virt. eigenvalues --    1.00065   1.00973   1.01065   1.01287   1.01869
 Alpha virt. eigenvalues --    1.02215   1.02945   1.03185   1.03971   1.04634
[...]
                 (A) (A) (A) (A) (A) (A) (A) (A) (A) (A) (A) (A)
                 (A) (A) (A) (A) (A) (A) (A) (A) (A) (A) (A) (A)
                 (A) (A) (A) (A) (A) (A) (A) (A) (A) (A) (A) (A)
                 (A) (A) (A) (A) (A) (A) (A) (A) (A) (A) (A) (A)
                 (A) (A) (A) (A) (A) (A) (A) (A) (A) (A) (A) (A)
                 (A) (A) (A) (A) (A) (A) (A) (A) (A) (A) (A) (A)
                 (A) (A) (A) (A) (A) (A) (A) (A) (A) (A) (A) (A)
                 (A) (A) (A) (A) (A) (A) (A) (A) (A) (A) (A) (A)
                 (A) (A) (A) (A) (A) (A) (A) (A) (A) (A) (A) (A)
                 (A) (A) (A) (A) (A) (A) (A) (A) (A) (A) (A) (A)
                 (A) (A) (A) (A) (A) (A) (A) (A) (A) (A) (A) (A)
                 (A) (A) (A) (A) (A) (A) (A) (A) (A) (A) (A) (A)
                 (A) (A) (A) (A) (A) (A) (A) (A) (A) (A) (A) (A)
                 (A) (A) (A) (A) (A) (A) (A) (A) (A) (A) (A) (A)
                 (A) (A) (A) (A) (A) (A) (A) (A) (A) (A) (A) (A)
                 (A) (A) (A) (A) (A) (A) (A) (A) (A) (A) (A) (A)
                 (A) (A) (A) (A) (A) (A) (A) (A) (A) (A) (A) (A)
                 (A) (A) (A) (A) (A) (A) (A) (A) (A) (A) (A) (A)
                 (A) (A) (A) (A) (A) (A) (A) (A) (A) (A) (A) (A)
                 (A) (A) (A) (A) (A) (A) (A) (A) (A) (A) (A) (A)
                 (A) (A) (A) (A) (A) (A) (A) (A) (A) (A) (A) (A)
                 (A) (A) (A) (A) (A) (A) (A) (A) (A) (A) (A) (A)
                 (A) (A) (A) (A) (A) (A) (A) (A) (A) (A) (A) (A)
                 (A) (A) (A) (A) (A) (A) (A) (A) (A) (A) (A) (A)
                 (A) (A) (A) (A) (A) (A) (A) (A) (A) (A) (A) (A)
                 (A) (A) (A) (A) (A) (A) (A) (A) (A) (A) (A) (A)
                 (A) (A) (A) (A) (A) (A) (A) (A) (A) (A) (A) (A)
                 (A) (A) (A) (A) (A) (A) (A) (A) (A) (A) (A) (A)
                 (A) (A) (A) (A) (A) (A) (A) (A) (A) (A) (A) (A)
                 (A) (A) (A) (A) (A) (A) (A) (A) (A) (A) (A) (A)
                 (A) (A) (A) (A) (A) (A) (A) (A) (A) (A) (A) (A)
                 (A) (A) (A) (A) (A) (A) (A) (A) (A) (A) (A) (A)
                 (A) (A) (A) (A) (A) (A)
 The electronic state is 1-A.
 Alpha  occ. eigenvalues --  -19.23284 -14.49310 -14.48400 -14.46770 -14.46126
 Alpha  occ. eigenvalues --  -14.45870 -14.43444 -14.42832 -10.41818 -10.40153
 Alpha  occ. eigenvalues --  -10.37643 -10.36361 -10.35299 -10.35231 -10.34643
 Alpha  occ. eigenvalues --  -10.34149 -10.33997 -10.33664 -10.32863 -10.32297
 Alpha  occ. eigenvalues --  -10.31875 -10.31133 -10.31059 -10.31052 -10.30945
 Alpha  occ. eigenvalues --  -10.30744 -10.30399 -10.30386 -10.30362 -10.30324
 Alpha  occ. eigenvalues --  -10.30173 -10.30162 -10.30106 -10.30036 -10.29516
 Alpha  occ. eigenvalues --  -10.28709 -10.28310  -1.13481  -1.12316  -1.06375
 Alpha  occ. eigenvalues --   -1.04592  -1.03635  -1.03601  -1.00740  -0.99342
 Alpha  occ. eigenvalues --   -0.96055  -0.94693  -0.93142  -0.89805  -0.88078
 Alpha  occ. eigenvalues --   -0.87399  -0.86252  -0.85199  -0.84534  -0.83772
 Alpha  occ. eigenvalues --   -0.81725  -0.79531  -0.78273  -0.77718  -0.76340
 Alpha  occ. eigenvalues --   -0.73952  -0.73055  -0.72983  -0.72644  -0.70875
 Alpha  occ. eigenvalues --   -0.70324  -0.69544  -0.67989  -0.66453  -0.65242
 Alpha  occ. eigenvalues --   -0.63729  -0.63329  -0.62284  -0.61851  -0.60211
 Alpha  occ. eigenvalues --   -0.58870  -0.58004  -0.57564  -0.56466  -0.56202
 Alpha  occ. eigenvalues --   -0.55781  -0.55079  -0.54903  -0.54736  -0.54337
 Alpha  occ. eigenvalues --   -0.53658  -0.53209  -0.52986  -0.52414  -0.52088
 Alpha  occ. eigenvalues --   -0.51889  -0.51562  -0.51331  -0.50924  -0.50711
 Alpha  occ. eigenvalues --   -0.50518  -0.50388  -0.49942  -0.49437  -0.48335
 Alpha  occ. eigenvalues --   -0.47286  -0.46715  -0.46540  -0.46443  -0.46060
 Alpha  occ. eigenvalues --   -0.45583  -0.44956  -0.44607  -0.43943  -0.43745
 Alpha  occ. eigenvalues --   -0.43354  -0.43151  -0.42134  -0.41689  -0.41267
 Alpha  occ. eigenvalues --   -0.40729  -0.40633  -0.39892  -0.38213  -0.37563
 Alpha  occ. eigenvalues --   -0.35836  -0.35358  -0.33919  -0.33575  -0.33262
 Alpha  occ. eigenvalues --   -0.32901  -0.32020  -0.30634  -0.29158  -0.27013
 Alpha  occ. eigenvalues --   -0.24766
 Alpha virt. eigenvalues --   -0.00256   0.02894   0.03199   0.04358   0.06536
 Alpha virt. eigenvalues --    0.07197   0.08457   0.10623   0.13527   0.14911
 Alpha virt. eigenvalues --    0.15917   0.16358   0.17277   0.17674   0.18732
 Alpha virt. eigenvalues --    0.19257   0.19789   0.20369   0.20476   0.21455
 Alpha virt. eigenvalues --    0.21955   0.22329   0.22717   0.22948   0.23130
 Alpha virt. eigenvalues --    0.23851   0.23956   0.24097   0.24529   0.24641
 Alpha virt. eigenvalues --    0.24853   0.25627   0.26160   0.26332   0.26909
 Alpha virt. eigenvalues --    0.26940   0.27601   0.27994   0.28364   0.28602
 Alpha virt. eigenvalues --    0.28737   0.28984   0.29155   0.29612   0.30199
 Alpha virt. eigenvalues --    0.30877   0.31214   0.32033   0.32148   0.32605
 Alpha virt. eigenvalues --    0.33014   0.33503   0.33806   0.34066   0.34749
 Alpha virt. eigenvalues --    0.34866   0.35515   0.36729   0.37908   0.38333
 Alpha virt. eigenvalues --    0.38544   0.38752   0.39227   0.39872   0.41267
 Alpha virt. eigenvalues --    0.41362   0.41667   0.42229   0.42553   0.43193
 Alpha virt. eigenvalues --    0.44336   0.45010   0.45962   0.47317   0.47828
 Alpha virt. eigenvalues --    0.48180   0.49903   0.51397   0.52744   0.54100
 Alpha virt. eigenvalues --    0.55805   0.56614   0.57985   0.58386   0.58613
 Alpha virt. eigenvalues --    0.59187   0.59616   0.60261   0.60577   0.60985
 Alpha virt. eigenvalues --    0.61276   0.61632   0.62107   0.62354   0.62599
 Alpha virt. eigenvalues --    0.63327   0.63601   0.63984   0.64286   0.64549
 Alpha virt. eigenvalues --    0.64894   0.65213   0.65427   0.65468   0.65922
 Alpha virt. eigenvalues --    0.66058   0.66516   0.66710   0.66894   0.67286
 Alpha virt. eigenvalues --    0.67381   0.67877   0.68712   0.68781   0.69345
 Alpha virt. eigenvalues --    0.69851   0.70422   0.70697   0.70992   0.71058
 Alpha virt. eigenvalues --    0.71125   0.71480   0.72380   0.72481   0.72944
 Alpha virt. eigenvalues --    0.73136   0.73657   0.73930   0.74553   0.74997
 Alpha virt. eigenvalues --    0.75256   0.75755   0.75975   0.76899   0.77330
 Alpha virt. eigenvalues --    0.77803   0.79153   0.80166   0.80499   0.81673
 Alpha virt. eigenvalues --    0.81860   0.82696   0.82859   0.83649   0.84422
 Alpha virt. eigenvalues --    0.84508   0.85833   0.87035   0.87401   0.87841
 Alpha virt. eigenvalues --    0.88317   0.89131   0.89478   0.90433   0.90763
 Alpha virt. eigenvalues --    0.91023   0.91642   0.91787   0.91994   0.92176
 Alpha virt. eigenvalues --    0.92422   0.92673   0.93209   0.93251   0.93852
 Alpha virt. eigenvalues --    0.94093   0.94224   0.94597   0.95043   0.95448
 Alpha virt. eigenvalues --    0.95716   0.96218   0.96885   0.97564   0.97998
 Alpha virt. eigenvalues --    0.98112   0.98518   0.98643   0.98876   0.99601
 Alpha virt. eigenvalues --    0.99993   1.00159   1.00598   1.01174   1.01691
 Alpha virt. eigenvalues --    1.01790   1.02793   1.03524   1.04053   1.04694
 Alpha virt. eigenvalues --    1.05627   1.06209   1.06555   1.06934   1.07355
 Alpha virt. eigenvalues --    1.07747   1.08210   1.08780   1.08815   1.09013
 Alpha virt. eigenvalues --    1.09514   1.10301   1.11178   1.11722   1.11871
 Alpha virt. eigenvalues --    1.12424   1.12869   1.13936   1.15785   1.16263
 Alpha virt. eigenvalues --    1.16633   1.17196   1.17303   1.17945   1.19549
 Alpha virt. eigenvalues --    1.20449   1.20606   1.22497   1.23724   1.24658
 Alpha virt. eigenvalues --    1.24973   1.25289   1.26245   1.26992   1.27436
 Alpha virt. eigenvalues --    1.28655   1.29632   1.30415   1.31039   1.31979
 Alpha virt. eigenvalues --    1.32420   1.33241   1.34103   1.34729   1.34789
 Alpha virt. eigenvalues --    1.36027   1.37011   1.37680   1.37893   1.38315
 Alpha virt. eigenvalues --    1.39512   1.42477   1.42948   1.44089   1.44774
 Alpha virt. eigenvalues --    1.45587   1.47008   1.47673   1.48406   1.48852
 Alpha virt. eigenvalues --    1.48892   1.49059   1.49581   1.50206   1.51100
 Alpha virt. eigenvalues --    1.52037   1.52883   1.53140   1.53597   1.54501
 Alpha virt. eigenvalues --    1.55222   1.55722   1.56025   1.56696   1.57033
 Alpha virt. eigenvalues --    1.57518   1.57748   1.58075   1.58936   1.59019
 Alpha virt. eigenvalues --    1.59744   1.60003   1.60623   1.61437   1.62838
 Alpha virt. eigenvalues --    1.63595   1.64785   1.65250   1.66129   1.66899
 Alpha virt. eigenvalues --    1.68746   1.69749   1.71700   1.74896   1.76225
 Alpha virt. eigenvalues --    1.78850   1.80568   1.81679   1.82547   1.84315
 Alpha virt. eigenvalues --    1.84834   1.85623   1.86385   1.86596   1.87425
 Alpha virt. eigenvalues --    1.87781   1.88910   1.89750   1.90369   1.90928
 Alpha virt. eigenvalues --    1.91451   1.92416   1.92671   1.93288   1.94520
 Alpha virt. eigenvalues --    1.94753   1.94974   1.95730   1.97213   1.97822
 Alpha virt. eigenvalues --    1.99498   1.99754   2.00275   2.00558   2.00722
 Alpha virt. eigenvalues --    2.01218   2.01817   2.02195   2.03035   2.03497
 Alpha virt. eigenvalues --    2.05094   2.06648   2.06931   2.07285   2.08020
 Alpha virt. eigenvalues --    2.08647   2.08991   2.09866   2.10647   2.11771
 Alpha virt. eigenvalues --    2.12160   2.12680   2.13537   2.14065   2.15094
 Alpha virt. eigenvalues --    2.15919   2.16766   2.17799   2.19191   2.20289
 Alpha virt. eigenvalues --    2.20980   2.21566   2.21946   2.22173   2.22676
 Alpha virt. eigenvalues --    2.23089   2.23615   2.23964   2.24630   2.25149
 Alpha virt. eigenvalues --    2.25885   2.26003   2.26580   2.27459   2.27936
 Alpha virt. eigenvalues --    2.28263   2.29282   2.29844   2.31029   2.32153
 Alpha virt. eigenvalues --    2.33886   2.35007   2.35466   2.37087   2.37606
 Alpha virt. eigenvalues --    2.37866   2.38031   2.38454   2.39871   2.39939
 Alpha virt. eigenvalues --    2.40383   2.41246   2.41932   2.42260   2.42924
 Alpha virt. eigenvalues --    2.44171   2.44357   2.44557   2.44819   2.45456
 Alpha virt. eigenvalues --    2.46150   2.47940   2.48836   2.48995   2.49924
 Alpha virt. eigenvalues --    2.50287   2.50377   2.53098   2.54503   2.56952
 Alpha virt. eigenvalues --    2.57577   2.60072   2.61105   2.61420   2.62699
 Alpha virt. eigenvalues --    2.64066   2.64797   2.66361   2.66400   2.67303
 Alpha virt. eigenvalues --    2.69469   2.69947   2.71200   2.72269   2.72411
 Alpha virt. eigenvalues --    2.74073   2.74386   2.75260   2.75713   2.76242
 Alpha virt. eigenvalues --    2.76872   2.77453   2.79271   2.81351   2.81984
 Alpha virt. eigenvalues --    2.82750   2.83111   2.84047   2.84236   2.85594
 Alpha virt. eigenvalues --    2.86048   2.86418   2.87475   2.88518   2.89533
 Alpha virt. eigenvalues --    2.89743   2.91721   2.93120   2.93403   2.94125
 Alpha virt. eigenvalues --    2.95122   2.96369   2.98008   3.01898   3.03421
 Alpha virt. eigenvalues --    3.04541   3.06758   3.09052   3.10423   3.11897
 Alpha virt. eigenvalues --    3.19234   3.27934   3.29380   3.39217   3.41476
 Alpha virt. eigenvalues --    3.45228   3.53986   3.56428   3.58011   4.12834
 Alpha virt. eigenvalues --    4.13804   4.15234   4.17154   4.18160   4.18777
 Alpha virt. eigenvalues --    4.19213   4.21077   4.22085   4.23486   4.25842
 Alpha virt. eigenvalues --    4.26539   4.27283   4.30102   4.30804   4.32285
 Alpha virt. eigenvalues --    4.33576   4.34213   4.36615   4.40420   4.40707
 Alpha virt. eigenvalues --    4.41810   4.44662   4.45964   4.48590   4.49931
 Alpha virt. eigenvalues --    4.50100   4.53970   4.57140   4.60648   4.62191
 Alpha virt. eigenvalues --    4.64047   4.67964   4.70332   4.78908   4.84924
 Alpha virt. eigenvalues --    4.90415
          Condensed to atoms (all electrons):
 Mulliken atomic charges:
              1
     1  C   -0.195424
     2  C   -0.154970
     3  C    0.039078
     4  C    0.014670
     5  N   -0.432856
     6  C    0.028062
     7  C    0.290692
     8  C   -0.257042
     9  C    0.050148
    10  N   -0.494760
    11  C    0.719233
    12  N   -0.566387
    13  N   -0.810881
    14  C    0.288636
    15  C    0.120418
    16  C   -0.241424
    17  C   -0.187665
    18  C    0.364125
    19  C   -0.270664
    20  N   -0.780602
    21  C    0.612465
    22  C    0.017060
    23  C   -0.210718
    24  C   -0.226433
    25  C    0.160073
    26  C   -0.223214
    27  C   -0.178174
    28  C   -0.263886
    29  N   -0.381377
    30  C   -0.184396
    31  C   -0.182450
    32  N   -0.383740
    33  C   -0.349380
    34  C   -0.183812
    35  C   -0.185962
    36  O   -0.521015
    37  C   -0.609407
    38  H    0.186819
    39  H    0.187372
    40  H    0.189848
    41  H    0.182088
    42  H    0.181433
    43  H    0.189693
    44  H    0.370013
    45  H    0.160492
    46  H    0.213620
    47  H    0.204484
    48  H    0.362134
    49  H    0.178583
    50  H    0.170171
    51  H    0.164349
    52  H    0.201595
    53  H    0.169243
    54  H    0.169595
    55  H    0.149572
    56  H    0.158716
    57  H    0.150197
    58  H    0.173057
    59  H    0.134264
    60  H    0.165892
    61  H    0.167540
    62  H    0.153478
    63  H    0.173248
    64  H    0.159253
    65  H    0.152613
    66  H    0.183048
    67  H    0.178582
    68  H    0.190989
 Sum of Mulliken atomic charges =   0.00000
 Mulliken charges with hydrogens summed into heavy atoms:
              1
     1  C   -0.008605
     2  C    0.032402
     3  C    0.039078
     4  C    0.204518
     5  N   -0.432856
     6  C    0.210150
     7  C    0.290692
     8  C   -0.075610
     9  C    0.239841
    10  N   -0.494760
    11  C    0.719233
    12  N   -0.566387
    13  N   -0.440869
    14  C    0.288636
    15  C    0.120418
    16  C   -0.080931
    17  C    0.025955
    18  C    0.364125
    19  C   -0.066180
    20  N   -0.418467
    21  C    0.612465
    22  C    0.017060
    23  C   -0.032135
    24  C   -0.056262
    25  C    0.160073
    26  C   -0.058865
    27  C    0.023421
    28  C    0.074953
    29  N   -0.381377
    30  C    0.123893
    31  C    0.140804
    32  N   -0.383740
    33  C    0.118315
    34  C    0.142913
    35  C    0.125904
    36  O   -0.521015
    37  C   -0.056788
 Sum of Mulliken charges with hydrogens summed into heavy atoms =   0.00000
 Electronic spatial extent (au):  <R**2>=          25030.5333
 Charge=              0.0000 electrons
 Dipole moment (field-independent basis, Debye):
    X=              2.2686    Y=              6.0714    Z=             -0.1722  Tot=              6.4837
 Quadrupole moment (field-independent basis, Debye-Ang):
   XX=           -188.5008   YY=           -195.1481   ZZ=           -221.6127
   XY=              6.1945   XZ=              4.3071   YZ=              5.5058
 Traceless Quadrupole moment (field-independent basis, Debye-Ang):
   XX=             13.2531   YY=              6.6058   ZZ=            -19.8588
   XY=              6.1945   XZ=              4.3071   YZ=              5.5058
 Octapole moment (field-independent basis, Debye-Ang**2):
  XXX=             47.0161  YYY=            150.9680  ZZZ=              3.5046  XYY=             85.8142
  XXY=            -17.2416  XXZ=             31.3194  XZZ=            -10.2431  YZZ=             -1.5392
  YYZ=             27.6299  XYZ=            -23.7928
 Hexadecapole moment (field-independent basis, Debye-Ang**3):
 XXXX=         -23591.0188 YYYY=          -7316.4399 ZZZZ=          -1510.6740 XXXY=            351.5698
 XXXZ=           -113.7089 YYYX=            119.3579 YYYZ=             74.6025 ZZZX=            -11.6148
 ZZZY=             15.2819 XXYY=          -4747.9945 XXZZ=          -4386.0088 YYZZ=          -1621.9410
 XXYZ=             60.7212 YYXZ=            101.0097 ZZXY=            -19.4224
 N-N= 3.769258005222D+03 E-N=-1.121019214679D+04  KE= 1.567149174163D+03
 No NMR shielding tensors so no spin-rotation constants.
 Leave Link  601 at Tue Mar 10 13:35:15 2020, MaxMem= 2684354560 cpu:       2.6
 (Enter /opt/g09gh/gaussian/g09/l9999.exe)
 1\1\GINC-NODE45\FOpt\RwB97XD\6-31G(d)\C29H31N7O1\BDW2292\10-Mar-2020\0
 \\#P opt=(,maxcycle=400) wB97XD/6-31G* MaxDisk=100GB\\MOLECULE0 Rotata
 ble Bond Optimization on g2-node38.bme.utexas.edu\\0,1\C,-2.568242331,
 -3.6311183705,-6.7875821408\C,-1.404633326,-4.3643933615,-6.9852549943
 \C,-0.8907969942,-5.1166533848,-5.9301374237\C,-1.5988160197,-5.095710
 7605,-4.7222049762\N,-2.7080957191,-4.390353101,-4.5128589834\C,-3.173
 8246006,-3.6676024468,-5.536228917\C,0.3785430326,-5.8791960808,-6.030
 5617323\C,0.8794547483,-6.3830702505,-7.2273031629\C,2.1020069289,-7.0
 48495456,-7.1479296583\N,2.7772537408,-7.2145610266,-6.019638433\C,2.1
 958907259,-6.7024374941,-4.9149428894\N,1.0329029067,-6.0507001709,-4.
 8782456758\N,2.9125244992,-6.8869254625,-3.7649298294\C,2.6603782029,-
 6.475779507,-2.4435799502\C,3.6836500779,-6.6506515512,-1.4890325969\C
 ,3.4298592757,-6.234703041,-0.1854602583\C,2.2238924455,-5.6642866111,
 0.2160423432\C,1.2253363008,-5.5115623277,-0.7415444465\C,1.4487848425
 ,-5.914743132,-2.0577795671\N,-0.0505065667,-4.9745911752,-0.493136438
 7\C,-0.514070593,-4.3015448509,0.6041945002\C,-1.9199533201,-3.7792758
 233,0.4671430408\C,-2.5911218466,-3.6339601757,-0.7512504892\C,-3.8965
 461102,-3.1602113906,-0.7811385465\C,-4.5597689043,-2.7996212059,0.392
 115479\C,-3.8836734683,-2.9487217991,1.6055537462\C,-2.5801971008,-3.4
 24092808,1.6449440347\C,-5.9703505223,-2.2309945401,0.3432952768\N,-6.
 1261897891,-0.7913303714,0.2195628169\C,-5.7117778622,-0.1795330007,-1
 .0378557862\C,-4.2698273133,0.3550885047,-1.023822714\N,-3.9992519638,
 1.2379078651,0.1074872662\C,-4.5894700843,2.5580051572,-0.0219359072\C
 ,-4.3366510593,0.5583103498,1.3552631217\C,-5.7789462856,0.0246092104,
 1.3780049059\O,0.133252554,-4.1436209542,1.6271835942\C,5.0114174681,-
 7.258077773,-1.8648284975\H,-2.9898277727,-3.0262931711,-7.5832316796\
 H,-0.8879795928,-4.3249343522,-7.9399435023\H,-1.2430337401,-5.6952283
 082,-3.8889906745\H,-4.0748567736,-3.0904514582,-5.3422593644\H,0.3504
 849665,-6.2912595682,-8.1678579015\H,2.5594434902,-7.4693376265,-8.041
 0602105\H,3.7838101831,-7.3667118502,-3.9346669059\H,4.2130947301,-6.3
 608688473,0.5577999022\H,2.0604385437,-5.3449533849,1.2354355824\H,0.6
 850257267,-5.7624858266,-2.8043054631\H,-0.7010900989,-5.0917444872,-1
 .2535852272\H,-2.1214923054,-3.8594553572,-1.7055695138\H,-4.399182814
 1,-3.0680375856,-1.74097583\H,-4.3873256383,-2.685158825,2.5330941459\
 H,-2.0495559154,-3.5322636169,2.5851051511\H,-6.5016250262,-2.68737315
 09,-0.5015566791\H,-6.5049773823,-2.5354674646,1.2515979737\H,-5.83899
 7414,-0.9103158474,-1.8447832435\H,-6.40061519,0.6512719182,-1.2533103
 18\H,-4.0611854433,0.8988165279,-1.953370131\H,-3.5652490236,-0.482704
 9804,-0.9662406523\H,-5.6927288072,2.5855563515,-0.0596283802\H,-4.215
 4618174,3.0286846091,-0.9379301008\H,-4.2713281975,3.1753092654,0.8253
 941218\H,-4.1800630232,1.2527080746,2.1895417781\H,-3.6322780851,-0.27
 2325529,1.4801357394\H,-6.4764722201,0.874921633,1.4122625185\H,-5.954
 0838452,-0.5615709114,2.2873854593\H,5.5287372543,-6.6712379358,-2.635
 1625798\H,4.9066196061,-8.2843111944,-2.2425347406\H,5.6724196567,-7.3
 048787833,-0.9957953853\\Version=EM64L-G09RevA.02\State=1-A\HF=-1581.7
 601006\RMSD=6.383e-09\RMSF=2.686e-06\Dipole=-0.5118154,-0.2091375,-2.4
 902362\Quadrupole=-1.9717961,-8.6683538,10.6401498,-9.880605,-4.460647
 4,2.0435479\PG=C01 [X(C29H31N7O1)]\\@


0EVERYBODY IS IGNORANT, ONLY ON DIFFERENT SUBJECTS.
0          WILL ROGERS
 Job cpu time:  0 days 12 hours 17 minutes 52.9 seconds.
 File lengths (MBytes):  RWF=    244 Int=      0 D2E=      0 Chk=     25 Scr=      1
 Normal termination of Gaussian 09 at Tue Mar 10 13:35:19 2020.
