 Entering Gaussian System, Link 0=g09
 Input=MOLECULE0-opt-23-22-21-36-335.com
 Output=MOLECULE0-opt-23-22-21-36-335.log
 Initial command:
 /opt/g09gh/gaussian/g09/l1.exe /scratch/bdw2292/Gau-MOLECULE0/Gau-73577.inp -scrdir=/scratch/bdw2292/Gau-MOLECULE0/
 Entering Link 1 = /opt/g09gh/gaussian/g09/l1.exe PID=     73578.
  
 Copyright (c) 1988,1990,1992,1993,1995,1998,2003,2009, Gaussian, Inc.
                  All Rights Reserved.
  
 This is part of the Gaussian(R) 09 program.  It is based on
 the Gaussian(R) 03 system (copyright 2003, Gaussian, Inc.),
 the Gaussian(R) 98 system (copyright 1998, Gaussian, Inc.),
 the Gaussian(R) 94 system (copyright 1995, Gaussian, Inc.),
 the Gaussian 92(TM) system (copyright 1992, Gaussian, Inc.),
 the Gaussian 90(TM) system (copyright 1990, Gaussian, Inc.),
 the Gaussian 88(TM) system (copyright 1988, Gaussian, Inc.),
 the Gaussian 86(TM) system (copyright 1986, Carnegie Mellon
 University), and the Gaussian 82(TM) system (copyright 1983,
 Carnegie Mellon University). Gaussian is a federally registered
 trademark of Gaussian, Inc.
  
 This software contains proprietary and confidential information,
 including trade secrets, belonging to Gaussian, Inc.
  
 This software is provided under written license and may be
 used, copied, transmitted, or stored only in accord with that
 written license.
  
 The following legend is applicable only to US Government
 contracts under FAR:
  
                    RESTRICTED RIGHTS LEGEND
  
 Use, reproduction and disclosure by the US Government is
 subject to restrictions as set forth in subparagraphs (a)
 and (c) of the Commercial Computer Software - Restricted
 Rights clause in FAR 52.227-19.
  
 Gaussian, Inc.
 340 Quinnipiac St., Bldg. 40, Wallingford CT 06492
  
  
 ---------------------------------------------------------------
 Warning -- This program may not be used in any manner that
 competes with the business of Gaussian, Inc. or will provide
 assistance to any competitor of Gaussian, Inc.  The licensee
 of this program is prohibited from giving any competitor of
 Gaussian, Inc. access to this program.  By using this program,
 the user acknowledges that Gaussian, Inc. is engaged in the
 business of creating and licensing software in the field of
 computational chemistry and represents and warrants to the
 licensee that it is not a competitor of Gaussian, Inc. and that
 it will not use this program in any manner prohibited above.
 ---------------------------------------------------------------
  

 Cite this work as:
 Gaussian 09, Revision A.02,
 M. J. Frisch, G. W. Trucks, H. B. Schlegel, G. E. Scuseria, 
 M. A. Robb, J. R. Cheeseman, G. Scalmani, V. Barone, B. Mennucci, 
 G. A. Petersson, H. Nakatsuji, M. Caricato, X. Li, H. P. Hratchian, 
 A. F. Izmaylov, J. Bloino, G. Zheng, J. L. Sonnenberg, M. Hada, 
 M. Ehara, K. Toyota, R. Fukuda, J. Hasegawa, M. Ishida, T. Nakajima, 
 Y. Honda, O. Kitao, H. Nakai, T. Vreven, J. A. Montgomery, Jr., 
 J. E. Peralta, F. Ogliaro, M. Bearpark, J. J. Heyd, E. Brothers, 
 K. N. Kudin, V. N. Staroverov, R. Kobayashi, J. Normand, 
 K. Raghavachari, A. Rendell, J. C. Burant, S. S. Iyengar, J. Tomasi, 
 M. Cossi, N. Rega, J. M. Millam, M. Klene, J. E. Knox, J. B. Cross, 
 V. Bakken, C. Adamo, J. Jaramillo, R. Gomperts, R. E. Stratmann, 
 O. Yazyev, A. J. Austin, R. Cammi, C. Pomelli, J. W. Ochterski, 
 R. L. Martin, K. Morokuma, V. G. Zakrzewski, G. A. Voth, 
 P. Salvador, J. J. Dannenberg, S. Dapprich, A. D. Daniels, 
 O. Farkas, J. B. Foresman, J. V. Ortiz, J. Cioslowski, 
 and D. J. Fox, Gaussian, Inc., Wallingford CT, 2009.
 
 ******************************************
 Gaussian 09:  EM64L-G09RevA.02 11-Jun-2009
                 8-Apr-2020 
 ******************************************
 %RWF=/scratch/bdw2292/Gau-MOLECULE0/,100GB
 %Nosave
 %Chk=MOLECULE0-opt-23-22-21-36-335.chk
 %Mem=20GB
 %Nproc=6
 Will use up to    6 processors via shared memory.
 --------------------------------------------------
 #P opt=(,maxcycle=400) wB97XD/6-31G* MaxDisk=100GB
 --------------------------------------------------
 1/6=400,14=-1,18=20,19=15,26=3,38=1/1,3;
 2/9=110,12=2,17=6,18=5,40=1/2;
 3/5=1,6=6,7=1,11=2,16=1,25=1,30=1,71=1,74=-58/1,2,3;
 4//1;
 5/5=2,38=5/2;
 6/7=2,8=2,9=2,10=2,28=1/1;
 7//1,2,3,16;
 1/6=400,14=-1,18=20,19=15/3(2);
 2/9=110/2;
 99//99;
 2/9=110/2;
 3/5=1,6=6,7=1,11=2,16=1,25=1,30=1,71=1,74=-58/1,2,3;
 4/5=5,16=3/1;
 5/5=2,38=5/2;
 7//1,2,3,16;
 1/6=400,14=-1,18=20,19=15/3(-5);
 2/9=110/2;
 6/7=2,8=2,9=2,10=2,19=2,28=1/1;
 99/9=1/99;
 Leave Link    1 at Wed Apr  8 22:20:29 2020, MaxMem= 2684354560 cpu:       0.2
 (Enter /opt/g09gh/gaussian/g09/l101.exe)
 --------------------------------------------------------------
 MOLECULE0 Rotatable Bond Optimization on node37.bme.utexas.edu
 --------------------------------------------------------------
 Symbolic Z-matrix:
 Charge =  0 Multiplicity = 1
 C                    -5.44794  -5.07864   5.66193 
 C                    -4.33778  -5.79411   6.1296 
 C                    -3.0956   -5.67535   5.47485 
 C                    -3.06352  -4.78869   4.37065 
 N                    -4.1144   -4.09955   3.90777 
 C                    -5.28423  -4.25004   4.54668 
 C                    -1.85529  -6.42626   5.89164 
 C                    -1.75588  -7.24268   7.0312 
 C                    -0.51206  -7.84696   7.24482 
 N                     0.53887  -7.70084   6.44203 
 C                     0.35086  -6.91335   5.3636 
 N                    -0.79093  -6.28438   5.07799 
 N                     1.45507  -6.78313   4.54152 
 C                     1.733    -6.01454   3.35597 
 C                     3.09017  -5.8174    2.95639 
 C                     3.31714  -5.05716   1.7976 
 C                     2.29814  -4.49028   1.02425 
 C                     0.97096  -4.70243   1.41373 
 C                     0.71461  -5.46106   2.56829 
 N                    -0.18524  -4.1839    0.74098 
 C                    -0.3088   -3.27663  -0.2875 
 C                    -1.68751  -2.72531  -0.6091 
 C                    -1.74137  -1.47745  -1.2549 
 C                    -2.96892  -0.8797   -1.54973 
 C                    -4.18773  -1.50972  -1.23549 
 C                    -4.12138  -2.7735   -0.61935 
 C                    -2.898    -3.38096  -0.32568 
 C                    -5.53108  -0.83029  -1.5069 
 N                    -6.08022   0.13095  -0.53733 
 C                    -5.49538   1.48763  -0.44785 
 C                    -4.40987   1.65155   0.64726 
 N                    -4.8456    1.21233   1.99481 
 C                    -5.65033   2.16645   2.76738 
 C                    -5.37376  -0.17118   1.89818 
 C                    -6.46224  -0.35486   0.80841 
 O                     0.65246  -2.91939  -0.95148 
 C                     4.27687  -6.37691   3.72392 
 H                    -6.41573  -5.16028   6.14793 
 H                    -4.46808  -6.44561   6.99013 
 H                    -2.13516  -4.61042   3.83751 
 H                    -6.11534  -3.67367   4.1432 
 H                    -2.55956  -7.41439   7.73662 
 H                    -0.32536  -8.49043   8.10415 
 H                     2.22844  -7.28825   4.94694 
 H                     4.34153  -4.88422   1.46975 
 H                     2.51909  -3.89866   0.14491 
 H                    -0.30544  -5.63912   2.868 
 H                    -1.05854  -4.49239   1.14199 
 H                    -0.80946  -0.97657  -1.50642 
 H                    -2.97438   0.09998  -2.02631 
 H                    -5.04018  -3.2931   -0.34757 
 H                    -2.88638  -4.36455   0.13558 
 H                    -5.45813  -0.31498  -2.47479 
 H                    -6.29319  -1.61231  -1.63483 
 H                    -5.08195   1.83484  -1.51259 
 H                    -6.60873   2.41513  -0.11016 
 H                    -4.03258   2.90297   0.71146 
 H                    -3.35574   0.95042   0.33807 
 H                    -6.62062   2.33954   2.28822 
 H                    -5.12311   3.12362   2.85324 
 H                    -5.81964   1.78475   3.78082 
 H                    -5.77627  -0.51339   2.96407 
 H                    -4.22611  -1.04088   1.57336 
 H                    -7.64672   0.41949   1.22684 
 H                    -6.81189  -1.51151   0.75144 
 H                     4.2729   -7.47553   3.76903 
 H                     4.28629  -6.01186   4.75487 
 H                     5.23616  -6.09191   3.2842 
 
 NAtoms=     68 NQM=     68 NQMF=      0 NMic=      0 NMicF=      0 NTot=     68.
                    Isotopes and Nuclear Properties:
 (Nuclear quadrupole moments (NQMom) in fm**2, nuclear magnetic moments (NMagM)
  in nuclear magnetons)

  Atom         1           2           3           4           5           6           7           8           9          10
 IAtWgt=          12          12          12          12          14          12          12          12          12          14
 AtmWgt=  12.0000000  12.0000000  12.0000000  12.0000000  14.0030740  12.0000000  12.0000000  12.0000000  12.0000000  14.0030740
 NucSpn=           0           0           0           0           2           0           0           0           0           2
 AtZEff=   0.0000000   0.0000000   0.0000000   0.0000000   0.0000000   0.0000000   0.0000000   0.0000000   0.0000000   0.0000000
 NQMom=    0.0000000   0.0000000   0.0000000   0.0000000   2.0440000   0.0000000   0.0000000   0.0000000   0.0000000   2.0440000
 NMagM=    0.0000000   0.0000000   0.0000000   0.0000000   0.4037610   0.0000000   0.0000000   0.0000000   0.0000000   0.4037610

  Atom        11          12          13          14          15          16          17          18          19          20
 IAtWgt=          12          14          14          12          12          12          12          12          12          14
 AtmWgt=  12.0000000  14.0030740  14.0030740  12.0000000  12.0000000  12.0000000  12.0000000  12.0000000  12.0000000  14.0030740
 NucSpn=           0           2           2           0           0           0           0           0           0           2
 AtZEff=   0.0000000   0.0000000   0.0000000   0.0000000   0.0000000   0.0000000   0.0000000   0.0000000   0.0000000   0.0000000
 NQMom=    0.0000000   2.0440000   2.0440000   0.0000000   0.0000000   0.0000000   0.0000000   0.0000000   0.0000000   2.0440000
 NMagM=    0.0000000   0.4037610   0.4037610   0.0000000   0.0000000   0.0000000   0.0000000   0.0000000   0.0000000   0.4037610

  Atom        21          22          23          24          25          26          27          28          29          30
 IAtWgt=          12          12          12          12          12          12          12          12          14          12
 AtmWgt=  12.0000000  12.0000000  12.0000000  12.0000000  12.0000000  12.0000000  12.0000000  12.0000000  14.0030740  12.0000000
 NucSpn=           0           0           0           0           0           0           0           0           2           0
 AtZEff=   0.0000000   0.0000000   0.0000000   0.0000000   0.0000000   0.0000000   0.0000000   0.0000000   0.0000000   0.0000000
 NQMom=    0.0000000   0.0000000   0.0000000   0.0000000   0.0000000   0.0000000   0.0000000   0.0000000   2.0440000   0.0000000
 NMagM=    0.0000000   0.0000000   0.0000000   0.0000000   0.0000000   0.0000000   0.0000000   0.0000000   0.4037610   0.0000000

  Atom        31          32          33          34          35          36          37          38          39          40
 IAtWgt=          12          14          12          12          12          16          12           1           1           1
 AtmWgt=  12.0000000  14.0030740  12.0000000  12.0000000  12.0000000  15.9949146  12.0000000   1.0078250   1.0078250   1.0078250
 NucSpn=           0           2           0           0           0           0           0           1           1           1
 AtZEff=   0.0000000   0.0000000   0.0000000   0.0000000   0.0000000   0.0000000   0.0000000   0.0000000   0.0000000   0.0000000
 NQMom=    0.0000000   2.0440000   0.0000000   0.0000000   0.0000000   0.0000000   0.0000000   0.0000000   0.0000000   0.0000000
 NMagM=    0.0000000   0.4037610   0.0000000   0.0000000   0.0000000   0.0000000   0.0000000   2.7928460   2.7928460   2.7928460

  Atom        41          42          43          44          45          46          47          48          49          50
 IAtWgt=           1           1           1           1           1           1           1           1           1           1
 AtmWgt=   1.0078250   1.0078250   1.0078250   1.0078250   1.0078250   1.0078250   1.0078250   1.0078250   1.0078250   1.0078250
 NucSpn=           1           1           1           1           1           1           1           1           1           1
 AtZEff=   0.0000000   0.0000000   0.0000000   0.0000000   0.0000000   0.0000000   0.0000000   0.0000000   0.0000000   0.0000000
 NQMom=    0.0000000   0.0000000   0.0000000   0.0000000   0.0000000   0.0000000   0.0000000   0.0000000   0.0000000   0.0000000
 NMagM=    2.7928460   2.7928460   2.7928460   2.7928460   2.7928460   2.7928460   2.7928460   2.7928460   2.7928460   2.7928460

  Atom        51          52          53          54          55          56          57          58          59          60
 IAtWgt=           1           1           1           1           1           1           1           1           1           1
 AtmWgt=   1.0078250   1.0078250   1.0078250   1.0078250   1.0078250   1.0078250   1.0078250   1.0078250   1.0078250   1.0078250
 NucSpn=           1           1           1           1           1           1           1           1           1           1
 AtZEff=   0.0000000   0.0000000   0.0000000   0.0000000   0.0000000   0.0000000   0.0000000   0.0000000   0.0000000   0.0000000
 NQMom=    0.0000000   0.0000000   0.0000000   0.0000000   0.0000000   0.0000000   0.0000000   0.0000000   0.0000000   0.0000000
 NMagM=    2.7928460   2.7928460   2.7928460   2.7928460   2.7928460   2.7928460   2.7928460   2.7928460   2.7928460   2.7928460

  Atom        61          62          63          64          65          66          67          68
 IAtWgt=           1           1           1           1           1           1           1           1
 AtmWgt=   1.0078250   1.0078250   1.0078250   1.0078250   1.0078250   1.0078250   1.0078250   1.0078250
 NucSpn=           1           1           1           1           1           1           1           1
 AtZEff=   0.0000000   0.0000000   0.0000000   0.0000000   0.0000000   0.0000000   0.0000000   0.0000000
 NQMom=    0.0000000   0.0000000   0.0000000   0.0000000   0.0000000   0.0000000   0.0000000   0.0000000
 NMagM=    2.7928460   2.7928460   2.7928460   2.7928460   2.7928460   2.7928460   2.7928460   2.7928460
 Leave Link  101 at Wed Apr  8 22:20:30 2020, MaxMem= 2684354560 cpu:       0.4
 (Enter /opt/g09gh/gaussian/g09/l103.exe)

 GradGradGradGradGradGradGradGradGradGradGradGradGradGradGradGradGradGrad
 Berny optimization.
 Initialization pass.
                           ----------------------------
                           !    Initial Parameters    !
                           ! (Angstroms and Degrees)  !
 --------------------------                            --------------------------
 ! Name  Definition              Value          Derivative Info.                !
 --------------------------------------------------------------------------------
 ! R1    R(1,2)                  1.4011         estimate D2E/DX2                !
 ! R2    R(1,6)                  1.399          estimate D2E/DX2                !
 ! R3    R(1,38)                 1.086          estimate D2E/DX2                !
 ! R4    R(2,3)                  1.4092         estimate D2E/DX2                !
 ! R5    R(2,39)                 1.0872         estimate D2E/DX2                !
 ! R6    R(3,4)                  1.4165         estimate D2E/DX2                !
 ! R7    R(3,7)                  1.5086         estimate D2E/DX2                !
 ! R8    R(4,5)                  1.3392         estimate D2E/DX2                !
 ! R9    R(4,40)                 1.0853         estimate D2E/DX2                !
 ! R10   R(5,6)                  1.3414         estimate D2E/DX2                !
 ! R11   R(6,41)                 1.0889         estimate D2E/DX2                !
 ! R12   R(7,8)                  1.4054         estimate D2E/DX2                !
 ! R13   R(7,12)                 1.3472         estimate D2E/DX2                !
 ! R14   R(8,9)                  1.3992         estimate D2E/DX2                !
 ! R15   R(8,42)                 1.083          estimate D2E/DX2                !
 ! R16   R(9,10)                 1.3305         estimate D2E/DX2                !
 ! R17   R(9,43)                 1.0897         estimate D2E/DX2                !
 ! R18   R(10,11)                1.3485         estimate D2E/DX2                !
 ! R19   R(11,12)                1.3345         estimate D2E/DX2                !
 ! R20   R(11,13)                1.3828         estimate D2E/DX2                !
 ! R21   R(13,14)                1.44           estimate D2E/DX2                !
 ! R22   R(13,44)                1.0088         estimate D2E/DX2                !
 ! R23   R(14,15)                1.4284         estimate D2E/DX2                !
 ! R24   R(14,19)                1.4014         estimate D2E/DX2                !
 ! R25   R(15,16)                1.4044         estimate D2E/DX2                !
 ! R26   R(15,37)                1.52           estimate D2E/DX2                !
 ! R27   R(16,17)                1.3992         estimate D2E/DX2                !
 ! R28   R(16,45)                1.0894         estimate D2E/DX2                !
 ! R29   R(17,18)                1.3993         estimate D2E/DX2                !
 ! R30   R(17,46)                1.0826         estimate D2E/DX2                !
 ! R31   R(18,19)                1.4051         estimate D2E/DX2                !
 ! R32   R(18,20)                1.4347         estimate D2E/DX2                !
 ! R33   R(19,47)                1.078          estimate D2E/DX2                !
 ! R34   R(20,21)                1.377          estimate D2E/DX2                !
 ! R35   R(20,48)                1.0093         estimate D2E/DX2                !
 ! R36   R(21,22)                1.5193         estimate D2E/DX2                !
 ! R37   R(21,36)                1.2217         estimate D2E/DX2                !
 ! R38   R(22,23)                1.4061         estimate D2E/DX2                !
 ! R39   R(22,27)                1.4055         estimate D2E/DX2                !
 ! R40   R(23,24)                1.3968         estimate D2E/DX2                !
 ! R41   R(23,49)                1.0875         estimate D2E/DX2                !
 ! R42   R(24,25)                1.4075         estimate D2E/DX2                !
 ! R43   R(24,50)                1.0895         estimate D2E/DX2                !
 ! R44   R(25,26)                1.4075         estimate D2E/DX2                !
 ! R45   R(25,28)                1.5297         estimate D2E/DX2                !
 ! R46   R(26,27)                1.3971         estimate D2E/DX2                !
 ! R47   R(26,51)                1.09           estimate D2E/DX2                !
 ! R48   R(27,52)                1.0864         estimate D2E/DX2                !
 ! R49   R(28,29)                1.4716         estimate D2E/DX2                !
 ! R50   R(28,53)                1.0989         estimate D2E/DX2                !
 ! R51   R(28,54)                1.0994         estimate D2E/DX2                !
 ! R52   R(29,30)                1.4801         estimate D2E/DX2                !
 ! R53   R(29,35)                1.4809         estimate D2E/DX2                !
 ! R54   R(30,31)                1.5506         estimate D2E/DX2                !
 ! R55   R(30,55)                1.1938         estimate D2E/DX2                !
 ! R56   R(30,56)                1.4879         estimate D2E/DX2                !
 ! R57   R(31,32)                1.4828         estimate D2E/DX2                !
 ! R58   R(31,57)                1.3086         estimate D2E/DX2                !
 ! R59   R(31,58)                1.3032         estimate D2E/DX2                !
 ! R60   R(32,33)                1.4679         estimate D2E/DX2                !
 ! R61   R(32,34)                1.484          estimate D2E/DX2                !
 ! R62   R(33,59)                1.0959         estimate D2E/DX2                !
 ! R63   R(33,60)                1.0961         estimate D2E/DX2                !
 ! R64   R(33,61)                1.0961         estimate D2E/DX2                !
 ! R65   R(34,35)                1.5512         estimate D2E/DX2                !
 ! R66   R(34,62)                1.1896         estimate D2E/DX2                !
 ! R67   R(34,63)                1.4761         estimate D2E/DX2                !
 ! R68   R(35,64)                1.4757         estimate D2E/DX2                !
 ! R69   R(35,65)                1.2097         estimate D2E/DX2                !
 ! R70   R(37,66)                1.0995         estimate D2E/DX2                !
 ! R71   R(37,67)                1.0937         estimate D2E/DX2                !
 ! R72   R(37,68)                1.0931         estimate D2E/DX2                !
 ! A1    A(2,1,6)              118.4126         estimate D2E/DX2                !
 ! A2    A(2,1,38)             121.2203         estimate D2E/DX2                !
 ! A3    A(6,1,38)             120.3672         estimate D2E/DX2                !
 ! A4    A(1,2,3)              120.0213         estimate D2E/DX2                !
 ! A5    A(1,2,39)             118.3755         estimate D2E/DX2                !
 ! A6    A(3,2,39)             121.5959         estimate D2E/DX2                !
 ! A7    A(2,3,4)              115.7796         estimate D2E/DX2                !
 ! A8    A(2,3,7)              123.6693         estimate D2E/DX2                !
 ! A9    A(4,3,7)              120.5511         estimate D2E/DX2                !
 ! A10   A(3,4,5)              125.013          estimate D2E/DX2                !
 ! A11   A(3,4,40)             120.3397         estimate D2E/DX2                !
 ! A12   A(5,4,40)             114.64           estimate D2E/DX2                !
 ! A13   A(4,5,6)              117.5147         estimate D2E/DX2                !
 ! A14   A(1,6,5)              123.2438         estimate D2E/DX2                !
 ! A15   A(1,6,41)             121.3028         estimate D2E/DX2                !
 ! A16   A(5,6,41)             115.4524         estimate D2E/DX2                !
 ! A17   A(3,7,8)              124.8429         estimate D2E/DX2                !
 ! A18   A(3,7,12)             115.4838         estimate D2E/DX2                !
 ! A19   A(8,7,12)             119.6711         estimate D2E/DX2                !
 ! A20   A(7,8,9)              115.9479         estimate D2E/DX2                !
 ! A21   A(7,8,42)             124.5943         estimate D2E/DX2                !
 ! A22   A(9,8,42)             119.4536         estimate D2E/DX2                !
 ! A23   A(8,9,10)             124.2347         estimate D2E/DX2                !
 ! A24   A(8,9,43)             121.8521         estimate D2E/DX2                !
 ! A25   A(10,9,43)            113.9131         estimate D2E/DX2                !
 ! A26   A(9,10,11)            115.8833         estimate D2E/DX2                !
 ! A27   A(10,11,12)           124.4493         estimate D2E/DX2                !
 ! A28   A(10,11,13)           114.7786         estimate D2E/DX2                !
 ! A29   A(12,11,13)           120.7711         estimate D2E/DX2                !
 ! A30   A(7,12,11)            119.8059         estimate D2E/DX2                !
 ! A31   A(11,13,14)           133.9375         estimate D2E/DX2                !
 ! A32   A(11,13,44)           109.0328         estimate D2E/DX2                !
 ! A33   A(14,13,44)           116.7556         estimate D2E/DX2                !
 ! A34   A(13,14,15)           119.1667         estimate D2E/DX2                !
 ! A35   A(13,14,19)           122.2292         estimate D2E/DX2                !
 ! A36   A(15,14,19)           118.601          estimate D2E/DX2                !
 ! A37   A(14,15,16)           117.3274         estimate D2E/DX2                !
 ! A38   A(14,15,37)           123.3473         estimate D2E/DX2                !
 ! A39   A(16,15,37)           119.3237         estimate D2E/DX2                !
 ! A40   A(15,16,17)           123.8952         estimate D2E/DX2                !
 ! A41   A(15,16,45)           119.093          estimate D2E/DX2                !
 ! A42   A(17,16,45)           117.011          estimate D2E/DX2                !
 ! A43   A(16,17,18)           118.3894         estimate D2E/DX2                !
 ! A44   A(16,17,46)           121.446          estimate D2E/DX2                !
 ! A45   A(18,17,46)           120.1645         estimate D2E/DX2                !
 ! A46   A(17,18,19)           118.9208         estimate D2E/DX2                !
 ! A47   A(17,18,20)           125.3832         estimate D2E/DX2                !
 ! A48   A(19,18,20)           115.6854         estimate D2E/DX2                !
 ! A49   A(14,19,18)           122.8551         estimate D2E/DX2                !
 ! A50   A(14,19,47)           117.784          estimate D2E/DX2                !
 ! A51   A(18,19,47)           119.3591         estimate D2E/DX2                !
 ! A52   A(18,20,21)           131.3516         estimate D2E/DX2                !
 ! A53   A(18,20,48)           113.6121         estimate D2E/DX2                !
 ! A54   A(21,20,48)           114.8665         estimate D2E/DX2                !
 ! A55   A(20,21,22)           118.5949         estimate D2E/DX2                !
 ! A56   A(20,21,36)           121.87           estimate D2E/DX2                !
 ! A57   A(22,21,36)           119.5296         estimate D2E/DX2                !
 ! A58   A(21,22,23)           117.0021         estimate D2E/DX2                !
 ! A59   A(21,22,27)           124.7219         estimate D2E/DX2                !
 ! A60   A(23,22,27)           118.2687         estimate D2E/DX2                !
 ! A61   A(22,23,24)           120.6893         estimate D2E/DX2                !
 ! A62   A(22,23,49)           118.8263         estimate D2E/DX2                !
 ! A63   A(24,23,49)           120.4763         estimate D2E/DX2                !
 ! A64   A(23,24,25)           121.4877         estimate D2E/DX2                !
 ! A65   A(23,24,50)           118.7867         estimate D2E/DX2                !
 ! A66   A(25,24,50)           119.7237         estimate D2E/DX2                !
 ! A67   A(24,25,26)           117.3092         estimate D2E/DX2                !
 ! A68   A(24,25,28)           121.4679         estimate D2E/DX2                !
 ! A69   A(26,25,28)           121.1897         estimate D2E/DX2                !
 ! A70   A(25,26,27)           121.5798         estimate D2E/DX2                !
 ! A71   A(25,26,51)           119.8297         estimate D2E/DX2                !
 ! A72   A(27,26,51)           118.5846         estimate D2E/DX2                !
 ! A73   A(22,27,26)           120.5927         estimate D2E/DX2                !
 ! A74   A(22,27,52)           119.9155         estimate D2E/DX2                !
 ! A75   A(26,27,52)           119.4886         estimate D2E/DX2                !
 ! A76   A(25,28,29)           120.062          estimate D2E/DX2                !
 ! A77   A(25,28,53)           107.8335         estimate D2E/DX2                !
 ! A78   A(25,28,54)           108.2686         estimate D2E/DX2                !
 ! A79   A(29,28,53)           107.3831         estimate D2E/DX2                !
 ! A80   A(29,28,54)           106.4162         estimate D2E/DX2                !
 ! A81   A(53,28,54)           106.085          estimate D2E/DX2                !
 ! A82   A(28,29,30)           119.4143         estimate D2E/DX2                !
 ! A83   A(28,29,35)           118.7319         estimate D2E/DX2                !
 ! A84   A(30,29,35)           110.3466         estimate D2E/DX2                !
 ! A85   A(29,30,31)           114.5954         estimate D2E/DX2                !
 ! A86   A(29,30,55)           110.4578         estimate D2E/DX2                !
 ! A87   A(29,30,56)           106.8242         estimate D2E/DX2                !
 ! A88   A(31,30,55)           110.8979         estimate D2E/DX2                !
 ! A89   A(31,30,56)           107.3163         estimate D2E/DX2                !
 ! A90   A(55,30,56)           106.2758         estimate D2E/DX2                !
 ! A91   A(30,31,32)           113.8779         estimate D2E/DX2                !
 ! A92   A(30,31,57)           109.7279         estimate D2E/DX2                !
 ! A93   A(30,31,58)           109.9873         estimate D2E/DX2                !
 ! A94   A(32,31,57)           108.869          estimate D2E/DX2                !
 ! A95   A(32,31,58)           107.0947         estimate D2E/DX2                !
 ! A96   A(57,31,58)           107.0328         estimate D2E/DX2                !
 ! A97   A(31,32,33)           116.5428         estimate D2E/DX2                !
 ! A98   A(31,32,34)           108.7573         estimate D2E/DX2                !
 ! A99   A(33,32,34)           116.4305         estimate D2E/DX2                !
 ! A100  A(32,33,59)           110.9725         estimate D2E/DX2                !
 ! A101  A(32,33,60)           110.1894         estimate D2E/DX2                !
 ! A102  A(32,33,61)           110.1787         estimate D2E/DX2                !
 ! A103  A(59,33,60)           108.7949         estimate D2E/DX2                !
 ! A104  A(59,33,61)           108.8137         estimate D2E/DX2                !
 ! A105  A(60,33,61)           107.8158         estimate D2E/DX2                !
 ! A106  A(32,34,35)           113.9454         estimate D2E/DX2                !
 ! A107  A(32,34,62)           109.2841         estimate D2E/DX2                !
 ! A108  A(32,34,63)           106.672          estimate D2E/DX2                !
 ! A109  A(35,34,62)           110.9767         estimate D2E/DX2                !
 ! A110  A(35,34,63)           108.7351         estimate D2E/DX2                !
 ! A111  A(62,34,63)           106.9016         estimate D2E/DX2                !
 ! A112  A(29,35,34)           114.7449         estimate D2E/DX2                !
 ! A113  A(29,35,64)           107.0133         estimate D2E/DX2                !
 ! A114  A(29,35,65)           110.2088         estimate D2E/DX2                !
 ! A115  A(34,35,64)           107.5712         estimate D2E/DX2                !
 ! A116  A(34,35,65)           110.4343         estimate D2E/DX2                !
 ! A117  A(64,35,65)           106.4439         estimate D2E/DX2                !
 ! A118  A(15,37,66)           112.6868         estimate D2E/DX2                !
 ! A119  A(15,37,67)           111.0907         estimate D2E/DX2                !
 ! A120  A(15,37,68)           112.7096         estimate D2E/DX2                !
 ! A121  A(66,37,67)           107.1484         estimate D2E/DX2                !
 ! A122  A(66,37,68)           106.2705         estimate D2E/DX2                !
 ! A123  A(67,37,68)           106.5351         estimate D2E/DX2                !
 ! D1    D(6,1,2,3)             -0.3551         estimate D2E/DX2                !
 ! D2    D(6,1,2,39)          -179.3882         estimate D2E/DX2                !
 ! D3    D(38,1,2,3)           179.6254         estimate D2E/DX2                !
 ! D4    D(38,1,2,39)            0.5924         estimate D2E/DX2                !
 ! D5    D(2,1,6,5)             -0.4569         estimate D2E/DX2                !
 ! D6    D(2,1,6,41)           179.9368         estimate D2E/DX2                !
 ! D7    D(38,1,6,5)           179.5623         estimate D2E/DX2                !
 ! D8    D(38,1,6,41)           -0.0439         estimate D2E/DX2                !
 ! D9    D(1,2,3,4)              1.2065         estimate D2E/DX2                !
 ! D10   D(1,2,3,7)           -178.8113         estimate D2E/DX2                !
 ! D11   D(39,2,3,4)          -179.7923         estimate D2E/DX2                !
 ! D12   D(39,2,3,7)             0.1898         estimate D2E/DX2                !
 ! D13   D(2,3,4,5)             -1.4411         estimate D2E/DX2                !
 ! D14   D(2,3,4,40)           177.521          estimate D2E/DX2                !
 ! D15   D(7,3,4,5)            178.5762         estimate D2E/DX2                !
 ! D16   D(7,3,4,40)            -2.4617         estimate D2E/DX2                !
 ! D17   D(2,3,7,8)             -5.3154         estimate D2E/DX2                !
 ! D18   D(2,3,7,12)           174.145          estimate D2E/DX2                !
 ! D19   D(4,3,7,8)            174.6659         estimate D2E/DX2                !
 ! D20   D(4,3,7,12)            -5.8737         estimate D2E/DX2                !
 ! D21   D(3,4,5,6)              0.6983         estimate D2E/DX2                !
 ! D22   D(40,4,5,6)          -178.3162         estimate D2E/DX2                !
 ! D23   D(4,5,6,1)              0.3006         estimate D2E/DX2                !
 ! D24   D(4,5,6,41)           179.928          estimate D2E/DX2                !
 ! D25   D(3,7,8,9)           -179.6755         estimate D2E/DX2                !
 ! D26   D(3,7,8,42)            -0.4375         estimate D2E/DX2                !
 ! D27   D(12,7,8,9)             0.8851         estimate D2E/DX2                !
 ! D28   D(12,7,8,42)         -179.8769         estimate D2E/DX2                !
 ! D29   D(3,7,12,11)         -179.8614         estimate D2E/DX2                !
 ! D30   D(8,7,12,11)           -0.3711         estimate D2E/DX2                !
 ! D31   D(7,8,9,10)            -0.665          estimate D2E/DX2                !
 ! D32   D(7,8,9,43)           179.3476         estimate D2E/DX2                !
 ! D33   D(42,8,9,10)         -179.9446         estimate D2E/DX2                !
 ! D34   D(42,8,9,43)            0.068          estimate D2E/DX2                !
 ! D35   D(8,9,10,11)           -0.0947         estimate D2E/DX2                !
 ! D36   D(43,9,10,11)         179.8936         estimate D2E/DX2                !
 ! D37   D(9,10,11,12)           0.6982         estimate D2E/DX2                !
 ! D38   D(9,10,11,13)        -179.671          estimate D2E/DX2                !
 ! D39   D(10,11,12,7)          -0.4707         estimate D2E/DX2                !
 ! D40   D(13,11,12,7)         179.9194         estimate D2E/DX2                !
 ! D41   D(10,11,13,14)       -176.2438         estimate D2E/DX2                !
 ! D42   D(10,11,13,44)         -2.6613         estimate D2E/DX2                !
 ! D43   D(12,11,13,14)          3.4019         estimate D2E/DX2                !
 ! D44   D(12,11,13,44)        176.9844         estimate D2E/DX2                !
 ! D45   D(11,13,14,15)        162.5471         estimate D2E/DX2                !
 ! D46   D(11,13,14,19)        -18.1017         estimate D2E/DX2                !
 ! D47   D(44,13,14,15)        -10.6571         estimate D2E/DX2                !
 ! D48   D(44,13,14,19)        168.6941         estimate D2E/DX2                !
 ! D49   D(13,14,15,16)       -179.7393         estimate D2E/DX2                !
 ! D50   D(13,14,15,37)         -0.189          estimate D2E/DX2                !
 ! D51   D(19,14,15,16)          0.8858         estimate D2E/DX2                !
 ! D52   D(19,14,15,37)       -179.5639         estimate D2E/DX2                !
 ! D53   D(13,14,19,18)        179.61           estimate D2E/DX2                !
 ! D54   D(13,14,19,47)         -0.8827         estimate D2E/DX2                !
 ! D55   D(15,14,19,18)         -1.0352         estimate D2E/DX2                !
 ! D56   D(15,14,19,47)        178.472          estimate D2E/DX2                !
 ! D57   D(14,15,16,17)          0.001          estimate D2E/DX2                !
 ! D58   D(14,15,16,45)        179.6672         estimate D2E/DX2                !
 ! D59   D(37,15,16,17)       -179.5681         estimate D2E/DX2                !
 ! D60   D(37,15,16,45)          0.0981         estimate D2E/DX2                !
 ! D61   D(14,15,37,66)         61.7483         estimate D2E/DX2                !
 ! D62   D(14,15,37,67)        -58.5            estimate D2E/DX2                !
 ! D63   D(14,15,37,68)       -177.9775         estimate D2E/DX2                !
 ! D64   D(16,15,37,66)       -118.71           estimate D2E/DX2                !
 ! D65   D(16,15,37,67)        121.0417         estimate D2E/DX2                !
 ! D66   D(16,15,37,68)          1.5642         estimate D2E/DX2                !
 ! D67   D(15,16,17,18)         -0.7829         estimate D2E/DX2                !
 ! D68   D(15,16,17,46)        179.1129         estimate D2E/DX2                !
 ! D69   D(45,16,17,18)        179.5445         estimate D2E/DX2                !
 ! D70   D(45,16,17,46)         -0.5597         estimate D2E/DX2                !
 ! D71   D(16,17,18,19)          0.6483         estimate D2E/DX2                !
 ! D72   D(16,17,18,20)        179.4074         estimate D2E/DX2                !
 ! D73   D(46,17,18,19)       -179.2489         estimate D2E/DX2                !
 ! D74   D(46,17,18,20)         -0.4898         estimate D2E/DX2                !
 ! D75   D(17,18,19,14)          0.2495         estimate D2E/DX2                !
 ! D76   D(17,18,19,47)       -179.2503         estimate D2E/DX2                !
 ! D77   D(20,18,19,14)       -178.6278         estimate D2E/DX2                !
 ! D78   D(20,18,19,47)          1.8723         estimate D2E/DX2                !
 ! D79   D(17,18,20,21)         -8.5405         estimate D2E/DX2                !
 ! D80   D(17,18,20,48)        176.5248         estimate D2E/DX2                !
 ! D81   D(19,18,20,21)        170.2542         estimate D2E/DX2                !
 ! D82   D(19,18,20,48)         -4.6804         estimate D2E/DX2                !
 ! D83   D(18,20,21,22)       -168.3563         estimate D2E/DX2                !
 ! D84   D(18,20,21,36)         12.4973         estimate D2E/DX2                !
 ! D85   D(48,20,21,22)          6.528          estimate D2E/DX2                !
 ! D86   D(48,20,21,36)       -172.6184         estimate D2E/DX2                !
 ! D87   D(20,21,22,23)        155.8586         estimate D2E/DX2                !
 ! D88   D(20,21,22,27)        -25.1421         estimate D2E/DX2                !
 ! D89   D(36,21,22,23)        -24.9746         estimate D2E/DX2                !
 ! D90   D(36,21,22,27)        154.0247         estimate D2E/DX2                !
 ! D91   D(21,22,23,24)       -178.0206         estimate D2E/DX2                !
 ! D92   D(21,22,23,49)          0.953          estimate D2E/DX2                !
 ! D93   D(27,22,23,24)          2.9132         estimate D2E/DX2                !
 ! D94   D(27,22,23,49)       -178.1132         estimate D2E/DX2                !
 ! D95   D(21,22,27,26)        177.8492         estimate D2E/DX2                !
 ! D96   D(21,22,27,52)         -1.4945         estimate D2E/DX2                !
 ! D97   D(23,22,27,26)         -3.1632         estimate D2E/DX2                !
 ! D98   D(23,22,27,52)        177.4932         estimate D2E/DX2                !
 ! D99   D(22,23,24,25)         -1.1388         estimate D2E/DX2                !
 ! D100  D(22,23,24,50)        178.3552         estimate D2E/DX2                !
 ! D101  D(49,23,24,25)        179.9046         estimate D2E/DX2                !
 ! D102  D(49,23,24,50)         -0.6014         estimate D2E/DX2                !
 ! D103  D(23,24,25,26)         -0.4394         estimate D2E/DX2                !
 ! D104  D(23,24,25,28)        177.4902         estimate D2E/DX2                !
 ! D105  D(50,24,25,26)       -179.9287         estimate D2E/DX2                !
 ! D106  D(50,24,25,28)         -1.9991         estimate D2E/DX2                !
 ! D107  D(24,25,26,27)          0.1834         estimate D2E/DX2                !
 ! D108  D(24,25,26,51)        179.2867         estimate D2E/DX2                !
 ! D109  D(28,25,26,27)       -177.7523         estimate D2E/DX2                !
 ! D110  D(28,25,26,51)          1.351          estimate D2E/DX2                !
 ! D111  D(24,25,28,29)        -83.493          estimate D2E/DX2                !
 ! D112  D(24,25,28,53)         39.7932         estimate D2E/DX2                !
 ! D113  D(24,25,28,54)        154.1675         estimate D2E/DX2                !
 ! D114  D(26,25,28,29)         94.3565         estimate D2E/DX2                !
 ! D115  D(26,25,28,53)       -142.3574         estimate D2E/DX2                !
 ! D116  D(26,25,28,54)        -27.9831         estimate D2E/DX2                !
 ! D117  D(25,26,27,22)          1.6536         estimate D2E/DX2                !
 ! D118  D(25,26,27,52)       -179.0            estimate D2E/DX2                !
 ! D119  D(51,26,27,22)       -177.4606         estimate D2E/DX2                !
 ! D120  D(51,26,27,52)          1.8859         estimate D2E/DX2                !
 ! D121  D(25,28,29,30)         74.8826         estimate D2E/DX2                !
 ! D122  D(25,28,29,35)        -64.9603         estimate D2E/DX2                !
 ! D123  D(53,28,29,30)        -48.6204         estimate D2E/DX2                !
 ! D124  D(53,28,29,35)        171.5368         estimate D2E/DX2                !
 ! D125  D(54,28,29,30)       -161.8798         estimate D2E/DX2                !
 ! D126  D(54,28,29,35)         58.2774         estimate D2E/DX2                !
 ! D127  D(28,29,30,31)        -94.9771         estimate D2E/DX2                !
 ! D128  D(28,29,30,55)         31.1418         estimate D2E/DX2                !
 ! D129  D(28,29,30,56)        146.3118         estimate D2E/DX2                !
 ! D130  D(35,29,30,31)         47.9294         estimate D2E/DX2                !
 ! D131  D(35,29,30,55)        174.0482         estimate D2E/DX2                !
 ! D132  D(35,29,30,56)        -70.7818         estimate D2E/DX2                !
 ! D133  D(28,29,35,34)         95.5601         estimate D2E/DX2                !
 ! D134  D(28,29,35,64)       -145.1878         estimate D2E/DX2                !
 ! D135  D(28,29,35,65)        -29.8418         estimate D2E/DX2                !
 ! D136  D(30,29,35,34)        -47.6318         estimate D2E/DX2                !
 ! D137  D(30,29,35,64)         71.6203         estimate D2E/DX2                !
 ! D138  D(30,29,35,65)       -173.0336         estimate D2E/DX2                !
 ! D139  D(29,30,31,32)        -52.9318         estimate D2E/DX2                !
 ! D140  D(29,30,31,57)       -175.2401         estimate D2E/DX2                !
 ! D141  D(29,30,31,58)         67.2722         estimate D2E/DX2                !
 ! D142  D(55,30,31,32)       -178.822          estimate D2E/DX2                !
 ! D143  D(55,30,31,57)         58.8697         estimate D2E/DX2                !
 ! D144  D(55,30,31,58)        -58.618          estimate D2E/DX2                !
 ! D145  D(56,30,31,32)         65.502          estimate D2E/DX2                !
 ! D146  D(56,30,31,57)        -56.8063         estimate D2E/DX2                !
 ! D147  D(56,30,31,58)       -174.294          estimate D2E/DX2                !
 ! D148  D(30,31,32,33)        -81.2632         estimate D2E/DX2                !
 ! D149  D(30,31,32,34)         52.7715         estimate D2E/DX2                !
 ! D150  D(57,31,32,33)         41.5164         estimate D2E/DX2                !
 ! D151  D(57,31,32,34)        175.5511         estimate D2E/DX2                !
 ! D152  D(58,31,32,33)        156.9186         estimate D2E/DX2                !
 ! D153  D(58,31,32,34)        -69.0466         estimate D2E/DX2                !
 ! D154  D(31,32,33,59)         65.6896         estimate D2E/DX2                !
 ! D155  D(31,32,33,60)        -54.8796         estimate D2E/DX2                !
 ! D156  D(31,32,33,61)       -173.7247         estimate D2E/DX2                !
 ! D157  D(34,32,33,59)        -64.8289         estimate D2E/DX2                !
 ! D158  D(34,32,33,60)        174.6019         estimate D2E/DX2                !
 ! D159  D(34,32,33,61)         55.7568         estimate D2E/DX2                !
 ! D160  D(31,32,34,35)        -52.4263         estimate D2E/DX2                !
 ! D161  D(31,32,34,62)       -177.2019         estimate D2E/DX2                !
 ! D162  D(31,32,34,63)         67.5644         estimate D2E/DX2                !
 ! D163  D(33,32,34,35)         81.6662         estimate D2E/DX2                !
 ! D164  D(33,32,34,62)        -43.1094         estimate D2E/DX2                !
 ! D165  D(33,32,34,63)       -158.343          estimate D2E/DX2                !
 ! D166  D(32,34,35,29)         52.2314         estimate D2E/DX2                !
 ! D167  D(32,34,35,64)        -66.7086         estimate D2E/DX2                !
 ! D168  D(32,34,35,65)        177.5155         estimate D2E/DX2                !
 ! D169  D(62,34,35,29)        176.0981         estimate D2E/DX2                !
 ! D170  D(62,34,35,64)         57.1581         estimate D2E/DX2                !
 ! D171  D(62,34,35,65)        -58.6178         estimate D2E/DX2                !
 ! D172  D(63,34,35,29)        -66.5908         estimate D2E/DX2                !
 ! D173  D(63,34,35,64)        174.4691         estimate D2E/DX2                !
 ! D174  D(63,34,35,65)         58.6932         estimate D2E/DX2                !
 --------------------------------------------------------------------------------
 Trust Radius=3.00D-01 FncErr=1.00D-07 GrdErr=1.00D-06
 Number of steps in this run= 400 maximum allowed number of steps= 408.
 GradGradGradGradGradGradGradGradGradGradGradGradGradGradGradGradGradGrad

 Leave Link  103 at Wed Apr  8 22:20:30 2020, MaxMem= 2684354560 cpu:       0.1
 (Enter /opt/g09gh/gaussian/g09/l202.exe)
 Stoichiometry    C29H31N7O
 Framework group  C1[X(C29H31N7O)]
 Deg. of freedom   198
 Full point group                 C1      NOp   1
 Largest Abelian subgroup         C1      NOp   1
 Largest concise Abelian subgroup C1      NOp   1
                         Standard orientation:                         
 ---------------------------------------------------------------------
 Center     Atomic      Atomic             Coordinates (Angstroms)
 Number     Number       Type             X           Y           Z
 ---------------------------------------------------------------------
      1          6           0       -0.571538    4.913168   -0.761543
      2          6           0       -1.913981    4.559888   -0.571506
      3          6           0       -2.261386    3.216737   -0.324371
      4          6           0       -1.181113    2.302745   -0.260467
      5          7           0        0.106829    2.621416   -0.442603
      6          6           0        0.397912    3.906966   -0.691545
      7          6           0       -3.680411    2.741316   -0.133862
      8          6           0       -4.806689    3.579639   -0.072737
      9          6           0       -6.036616    2.939811    0.116451
     10          7           0       -6.186137    1.622120    0.224173
     11          6           0       -5.055393    0.892385    0.138274
     12          7           0       -3.835665    1.407143   -0.029562
     13          7           0       -5.237903   -0.474050    0.245996
     14          6           0       -4.343298   -1.601851    0.281372
     15          6           0       -4.822139   -2.855147    0.771682
     16          6           0       -3.915567   -3.927473    0.794317
     17          6           0       -2.586184   -3.834505    0.367848
     18          6           0       -2.130312   -2.607335   -0.126474
     19          6           0       -3.016694   -1.517706   -0.162396
     20          7           0       -0.799095   -2.341580   -0.590696
     21          6           0        0.351372   -3.096253   -0.535222
     22          6           0        1.674076   -2.431806   -0.877536
     23          6           0        2.836949   -3.008425   -0.336834
     24          6           0        4.090115   -2.436401   -0.568033
     25          6           0        4.237067   -1.284757   -1.363827
     26          6           0        3.069793   -0.735744   -1.927050
     27          6           0        1.813086   -1.304441   -1.705317
     28          6           0        5.601972   -0.625849   -1.570592
     29          7           0        6.123664    0.318814   -0.570074
     30          6           0        6.649649   -0.198342    0.713097
     31          6           0        5.623811   -0.203621    1.875898
     32          7           0        4.968070    1.106622    2.103752
     33          6           0        5.724556    2.091454    2.886461
     34          6           0        4.394232    1.582630    0.820585
     35          6           0        5.406119    1.596249   -0.355008
     36          8           0        0.332239   -4.280338   -0.235078
     37          6           0       -6.241995   -3.070096    1.269887
     38          1           0       -0.282540    5.941222   -0.959186
     39          1           0       -2.667816    5.340587   -0.636053
     40          1           0       -1.360751    1.256646   -0.034014
     41          1           0        1.454620    4.128629   -0.832908
     42          1           0       -4.774369    4.659486   -0.149424
     43          1           0       -6.969907    3.497597    0.188517
     44          1           0       -6.213993   -0.663129    0.416605
     45          1           0       -4.248820   -4.895041    1.167838
     46          1           0       -1.916870   -4.684069    0.415982
     47          1           0       -2.676539   -0.572360   -0.553106
     48          1           0       -0.678470   -1.410530   -0.961124
     49          1           0        2.742572   -3.899356    0.279564
     50          1           0        4.967628   -2.893318   -0.111796
     51          1           0        3.134703    0.162712   -2.540737
     52          1           0        0.936372   -0.862135   -2.170153
     53          1           0        6.347216   -1.424984   -1.687561
     54          1           0        5.582248   -0.085256   -2.527725
     55          1           0        7.127450   -1.281842    0.561840
     56          1           0        7.767672    0.698314    1.112924
     57          1           0        6.212220   -0.580506    2.982357
     58          1           0        4.679048   -1.067653    1.632522
     59          1           0        6.627080    2.408043    2.351462
     60          1           0        6.018230    1.662708    3.851572
     61          1           0        5.104346    2.972930    3.085890
     62          1           0        3.912863    2.658686    0.980648
     63          1           0        3.288986    0.663785    0.484205
     64          1           0        6.426209    2.618929   -0.052950
     65          1           0        4.861743    1.946915   -1.376785
     66          1           0       -6.996337   -2.895856    0.489106
     67          1           0       -6.474449   -2.395838    2.099073
     68          1           0       -6.410944   -4.085431    1.637813
 ---------------------------------------------------------------------
 Rotational constants (GHZ):      0.1314208      0.0563232      0.0429044
 Leave Link  202 at Wed Apr  8 22:20:30 2020, MaxMem= 2684354560 cpu:       0.0
 (Enter /opt/g09gh/gaussian/g09/l301.exe)
 Standard basis: 6-31G(d) (6D, 7F)
 Ernie: Thresh=  0.10000D-02 Tol=  0.10000D-05 Strict=F.
 There are   617 symmetry adapted basis functions of A   symmetry.
 Integral buffers will be    131072 words long.
 Raffenetti 2 integral format.
 Two-electron integral symmetry is turned on.
   617 basis functions,  1160 primitive gaussians,   617 cartesian basis functions
   131 alpha electrons      131 beta electrons
       nuclear repulsion energy      3731.6644578941 Hartrees.
 IExCor= 4639 DFT=T Ex+Corr=wB97XD ExCW=0 ScaHFX=  1.000000
 ScaDFX=  1.000000  1.000000  1.000000  1.000000 ScalE2=  1.000000  1.000000
 IRadAn=      0 IRanWt=     -1 IRanGd=            0 ICorTp=0
  HFx wShort=  0.000000 wLong=  0.200000 cFull=  0.222036 cShort=  0.000000 cLong=  0.777964
  DFx wShort=  0.000000 wLong=  0.200000 cFull=  0.000000 cShort=  0.000000 cLong=  1.000000
 NAtoms=   68 NActive=   68 NUniq=   68 SFac= 7.50D-01 NAtFMM=   80 NAOKFM=F Big=T
 R6Disp: Dispersion energy =        -0.0565386303 Hartrees.
 Nuclear repulsion after empirical dispersion term =     3731.6079192637 Hartrees.
 Leave Link  301 at Wed Apr  8 22:20:30 2020, MaxMem= 2684354560 cpu:       0.3
 (Enter /opt/g09gh/gaussian/g09/l302.exe)
 NPDir=0 NMtPBC=     1 NCelOv=     1 NCel=       1 NClECP=     1 NCelD=      1
         NCelK=      1 NCelE2=     1 NClLst=     1 CellRange=     0.0.
 One-electron integrals computed using PRISM.
 NBasis=   617 RedAO= T  NBF=   617
 NBsUse=   617 1.00D-06 NBFU=   617
 Precomputing XC quadrature grid using
 IXCGrd= 2 IRadAn=           0 IRanWt=          -1 IRanGd=           0 AccXCQ= 1.00D-10.
 NRdTot=    4378 NPtTot=      559670 NUsed=      591213 NTot=      591245
 NSgBfM=   601   601   601   601   601 NAtAll=    68    68.
 Leave Link  302 at Wed Apr  8 22:20:31 2020, MaxMem= 2684354560 cpu:       7.6
 (Enter /opt/g09gh/gaussian/g09/l303.exe)
 DipDrv:  MaxL=1.
 Leave Link  303 at Wed Apr  8 22:20:31 2020, MaxMem= 2684354560 cpu:       0.5
 (Enter /opt/g09gh/gaussian/g09/l401.exe)
 Harris functional with IExCor= 4639 diagonalized for initial guess.
 ExpMin= 1.61D-01 ExpMax= 5.48D+03 ExpMxC= 8.25D+02 IAcc=1 IRadAn=         1 AccDes= 0.00D+00
 HarFok:  IExCor= 4639 AccDes= 0.00D+00 IRadAn=         1 IDoV= 1
 ScaDFX=  1.000000  1.000000  1.000000  1.000000
 FoFCou: FMM=F IPFlag=           0 FMFlag=      100000 FMFlg1=           1
         NFxFlg=           0 DoJE=T BraDBF=F KetDBF=T FulRan=T
         Omega=  0.000000  0.000000  1.000000  0.000000  0.000000 ICntrl=     500 IOpCl=  0
         NMat0=    1 NMatS0=    1 NMatT0=    0 NMatD0=    1 NMtDS0=    0 NMtDT0=    0
         I1Cent=           4 NGrid=           0.
 Petite list used in FoFCou.
 Harris En= -1512.43721792388    
 Initial guess orbital symmetries:
       Occupied  (A) (A) (A) (A) (A) (A) (A) (A) (A) (A) (A) (A)
                 (A) (A) (A) (A) (A) (A) (A) (A) (A) (A) (A) (A)
                 (A) (A) (A) (A) (A) (A) (A) (A) (A) (A) (A) (A)
                 (A) (A) (A) (A) (A) (A) (A) (A) (A) (A) (A) (A)
                 (A) (A) (A) (A) (A) (A) (A) (A) (A) (A) (A) (A)
                 (A) (A) (A) (A) (A) (A) (A) (A) (A) (A) (A) (A)
                 (A) (A) (A) (A) (A) (A) (A) (A) (A) (A) (A) (A)
                 (A) (A) (A) (A) (A) (A) (A) (A) (A) (A) (A) (A)
                 (A) (A) (A) (A) (A) (A) (A) (A) (A) (A) (A) (A)
                 (A) (A) (A) (A) (A) (A) (A) (A) (A) (A) (A) (A)
                 (A) (A) (A) (A) (A) (A) (A) (A) (A) (A) (A)
       Virtual   (A) (A) (A) (A) (A) (A) (A) (A) (A) (A) (A) (A)
                 (A) (A) (A) (A) (A) (A) (A) (A) (A) (A) (A) (A)
                 (A) (A) (A) (A) (A) (A) (A) (A) (A) (A) (A) (A)
                 (A) (A) (A) (A) (A) (A) (A) (A) (A) (A) (A) (A)
                 (A) (A) (A) (A) (A) (A) (A) (A) (A) (A) (A) (A)
                 (A) (A) (A) (A) (A) (A) (A) (A) (A) (A) (A) (A)
                 (A) (A) (A) (A) (A) (A) (A) (A) (A) (A) (A) (A)
                 (A) (A) (A) (A) (A) (A) (A) (A) (A) (A) (A) (A)
                 (A) (A) (A) (A) (A) (A) (A) (A) (A) (A) (A) (A)
                 (A) (A) (A) (A) (A) (A) (A) (A) (A) (A) (A) (A)
                 (A) (A) (A) (A) (A) (A) (A) (A) (A) (A) (A) (A)
                 (A) (A) (A) (A) (A) (A) (A) (A) (A) (A) (A) (A)
                 (A) (A) (A) (A) (A) (A) (A) (A) (A) (A) (A) (A)
                 (A) (A) (A) (A) (A) (A) (A) (A) (A) (A) (A) (A)
                 (A) (A) (A) (A) (A) (A) (A) (A) (A) (A) (A) (A)
                 (A) (A) (A) (A) (A) (A) (A) (A) (A) (A) (A) (A)
                 (A) (A) (A) (A) (A) (A) (A) (A) (A) (A) (A) (A)
                 (A) (A) (A) (A) (A) (A) (A) (A) (A) (A) (A) (A)
                 (A) (A) (A) (A) (A) (A) (A) (A) (A) (A) (A) (A)
                 (A) (A) (A) (A) (A) (A) (A) (A) (A) (A) (A) (A)
                 (A) (A) (A) (A) (A) (A) (A) (A) (A) (A) (A) (A)
                 (A) (A) (A) (A) (A) (A) (A) (A) (A) (A) (A) (A)
                 (A) (A) (A) (A) (A) (A) (A) (A) (A) (A) (A) (A)
                 (A) (A) (A) (A) (A) (A) (A) (A) (A) (A) (A) (A)
                 (A) (A) (A) (A) (A) (A) (A) (A) (A) (A) (A) (A)
                 (A) (A) (A) (A) (A) (A) (A) (A) (A) (A) (A) (A)
                 (A) (A) (A) (A) (A) (A) (A) (A) (A) (A) (A) (A)
                 (A) (A) (A) (A) (A) (A) (A) (A) (A) (A) (A) (A)
                 (A) (A) (A) (A) (A) (A) (A) (A) (A) (A) (A) (A)
                 (A) (A) (A) (A) (A) (A) (A) (A) (A) (A) (A) (A)
                 (A) (A) (A) (A) (A) (A) (A) (A) (A) (A) (A) (A)
                 (A) (A) (A) (A) (A) (A) (A) (A) (A) (A) (A) (A)
                 (A) (A) (A) (A) (A) (A) (A) (A) (A) (A) (A) (A)
                 (A) (A) (A) (A) (A) (A) (A) (A) (A) (A) (A) (A)
                 (A) (A) (A) (A) (A) (A) (A) (A) (A) (A) (A) (A)
                 (A) (A) (A) (A) (A) (A) (A) (A) (A) (A) (A) (A)
                 (A) (A) (A) (A) (A) (A) (A) (A) (A) (A) (A) (A)
                 (A) (A) (A) (A) (A) (A) (A) (A) (A) (A) (A) (A)
                 (A) (A) (A) (A) (A) (A) (A) (A) (A) (A) (A) (A)
                 (A) (A) (A) (A) (A) (A) (A) (A) (A) (A) (A) (A)
                 (A) (A) (A) (A) (A) (A)
 The electronic state of the initial guess is 1-A.
 Leave Link  401 at Wed Apr  8 22:20:34 2020, MaxMem= 2684354560 cpu:      15.9
 (Enter /opt/g09gh/gaussian/g09/l502.exe)
 Closed shell SCF:
 Requested convergence on RMS density matrix=1.00D-08 within 128 cycles.
 Requested convergence on MAX density matrix=1.00D-06.
 Requested convergence on             energy=1.00D-06.
 No special actions if energy rises.
 Using DIIS extrapolation, IDIIS=  1040.
 Integral symmetry usage will be decided dynamically.
       590588 words used for storage of precomputed grid.
 IEnd=     1759168 IEndB=     1759168 NGot=  2684354560 MDV=  2682993339
 LenX=  2682993339 LenY=  2682612033
 Fock matrices will be formed incrementally for  20 cycles.
 Integral accuracy reduced to 1.0D-05 until final iterations.

 Cycle   1  Pass 0  IDiag  1:
 FoFJK:  IHMeth= 1 ICntrl=     0 DoSepK=T KAlg= 1 I1Cent= 0 FoldK=F
 FoFCou: FMM=T IPFlag=           0 FMFlag=      100000 FMFlg1=           1
         NFxFlg=           0 DoJE=T BraDBF=F KetDBF=F FulRan=T
         Omega=  0.000000  0.000000  1.000000  0.000000  0.000000 ICntrl=     500 IOpCl=  0
         NMat0=    1 NMatS0=    1 NMatT0=    0 NMatD0=    1 NMtDS0=    0 NMtDT0=    0
         I1Cent=           0 NGrid=           0.
 Symmetry not used in FoFCou.
 FMM levels:  10  Number of levels for PrismC:   9
 E= -1581.19375725232    
 DIIS: error= 6.58D-02 at cycle   1 NSaved=   1.
 NSaved= 1 IEnMin= 1 EnMin= -1581.19375725232     IErMin= 1 ErrMin= 6.58D-02
 ErrMax= 6.58D-02 EMaxC= 1.00D-01 BMatC= 1.46D+00 BMatP= 1.46D+00
 IDIUse=3 WtCom= 3.42D-01 WtEn= 6.58D-01
 Coeff-Com:  0.100D+01
 Coeff-En:   0.100D+01
 Coeff:      0.100D+01
 Gap=     0.268 Goal=   None    Shift=    0.000
 GapD=    0.268 DampG=1.000 DampE=0.500 DampFc=0.5000 IDamp=-1.
 Damping current iteration by 5.00D-01
 RMSDP=1.88D-03 MaxDP=8.99D-02              OVMax= 1.72D-01

 Cycle   2  Pass 0  IDiag  1:
 RMSU=  6.64D-04    CP:  1.00D+00
 FoFJK:  IHMeth= 1 ICntrl=     0 DoSepK=T KAlg= 1 I1Cent= 0 FoldK=F
 E= -1581.36950309279     Delta-E=       -0.175745840464 Rises=F Damp=T
 DIIS: error= 3.36D-02 at cycle   2 NSaved=   2.
 NSaved= 2 IEnMin= 2 EnMin= -1581.36950309279     IErMin= 2 ErrMin= 3.36D-02
 ErrMax= 3.36D-02 EMaxC= 1.00D-01 BMatC= 3.23D-01 BMatP= 1.46D+00
 IDIUse=3 WtCom= 6.64D-01 WtEn= 3.36D-01
 Coeff-Com: -0.657D+00 0.166D+01
 Coeff-En:   0.000D+00 0.100D+01
 Coeff:     -0.437D+00 0.144D+01
 Gap=     0.281 Goal=   None    Shift=    0.000
 RMSDP=8.66D-04 MaxDP=3.90D-02 DE=-1.76D-01 OVMax= 1.20D-01

 Cycle   3  Pass 0  IDiag  1:
 RMSU=  5.53D-04    CP:  1.00D+00  1.40D+00
 FoFJK:  IHMeth= 1 ICntrl=     0 DoSepK=T KAlg= 1 I1Cent= 0 FoldK=F
 E= -1581.50499790202     Delta-E=       -0.135494809232 Rises=F Damp=F
 DIIS: error= 7.70D-03 at cycle   3 NSaved=   3.
 NSaved= 3 IEnMin= 3 EnMin= -1581.50499790202     IErMin= 3 ErrMin= 7.70D-03
 ErrMax= 7.70D-03 EMaxC= 1.00D-01 BMatC= 5.52D-02 BMatP= 3.23D-01
 IDIUse=3 WtCom= 9.23D-01 WtEn= 7.70D-02
 Coeff-Com: -0.351D+00 0.727D+00 0.624D+00
 Coeff-En:   0.000D+00 0.000D+00 0.100D+01
 Coeff:     -0.324D+00 0.671D+00 0.653D+00
 Gap=     0.260 Goal=   None    Shift=    0.000
 RMSDP=4.47D-04 MaxDP=3.05D-02 DE=-1.35D-01 OVMax= 6.06D-02

 Cycle   4  Pass 0  IDiag  1:
 RMSU=  1.41D-04    CP:  1.00D+00  1.67D+00  6.09D-01
 FoFJK:  IHMeth= 1 ICntrl=     0 DoSepK=T KAlg= 1 I1Cent= 0 FoldK=F
 E= -1581.55394666932     Delta-E=       -0.048948767305 Rises=F Damp=F
 DIIS: error= 2.88D-03 at cycle   4 NSaved=   4.
 NSaved= 4 IEnMin= 4 EnMin= -1581.55394666932     IErMin= 4 ErrMin= 2.88D-03
 ErrMax= 2.88D-03 EMaxC= 1.00D-01 BMatC= 3.59D-03 BMatP= 5.52D-02
 IDIUse=3 WtCom= 9.71D-01 WtEn= 2.88D-02
 Coeff-Com: -0.157D+00 0.321D+00 0.351D+00 0.485D+00
 Coeff-En:   0.000D+00 0.000D+00 0.000D+00 0.100D+01
 Coeff:     -0.153D+00 0.312D+00 0.341D+00 0.500D+00
 Gap=     0.255 Goal=   None    Shift=    0.000
 RMSDP=1.03D-04 MaxDP=9.30D-03 DE=-4.89D-02 OVMax= 1.01D-02

 Cycle   5  Pass 0  IDiag  1:
 RMSU=  4.68D-05    CP:  1.00D+00  1.65D+00  6.75D-01  7.13D-01
 FoFJK:  IHMeth= 1 ICntrl=     0 DoSepK=T KAlg= 1 I1Cent= 0 FoldK=F
 E= -1581.55703409686     Delta-E=       -0.003087427539 Rises=F Damp=F
 DIIS: error= 4.71D-04 at cycle   5 NSaved=   5.
 NSaved= 5 IEnMin= 5 EnMin= -1581.55703409686     IErMin= 5 ErrMin= 4.71D-04
 ErrMax= 4.71D-04 EMaxC= 1.00D-01 BMatC= 9.38D-05 BMatP= 3.59D-03
 IDIUse=3 WtCom= 9.95D-01 WtEn= 4.71D-03
 Coeff-Com: -0.152D-01 0.300D-01 0.545D-01 0.165D+00 0.766D+00
 Coeff-En:   0.000D+00 0.000D+00 0.000D+00 0.000D+00 0.100D+01
 Coeff:     -0.151D-01 0.299D-01 0.542D-01 0.164D+00 0.767D+00
 Gap=     0.253 Goal=   None    Shift=    0.000
 RMSDP=2.41D-05 MaxDP=2.64D-03 DE=-3.09D-03 OVMax= 2.92D-03

 Cycle   6  Pass 0  IDiag  1:
 RMSU=  1.30D-05    CP:  1.00D+00  1.66D+00  6.82D-01  7.83D-01  9.79D-01
 FoFJK:  IHMeth= 1 ICntrl=     0 DoSepK=T KAlg= 1 I1Cent= 0 FoldK=F
 E= -1581.55712533742     Delta-E=       -0.000091240559 Rises=F Damp=F
 DIIS: error= 3.79D-04 at cycle   6 NSaved=   6.
 NSaved= 6 IEnMin= 6 EnMin= -1581.55712533742     IErMin= 6 ErrMin= 3.79D-04
 ErrMax= 3.79D-04 EMaxC= 1.00D-01 BMatC= 2.60D-05 BMatP= 9.38D-05
 IDIUse=3 WtCom= 9.96D-01 WtEn= 3.79D-03
 Coeff-Com:  0.224D-01-0.464D-01-0.374D-01-0.129D-01 0.387D+00 0.687D+00
 Coeff-En:   0.000D+00 0.000D+00 0.000D+00 0.000D+00 0.000D+00 0.100D+01
 Coeff:      0.224D-01-0.462D-01-0.373D-01-0.129D-01 0.386D+00 0.688D+00
 Gap=     0.254 Goal=   None    Shift=    0.000
 RMSDP=1.30D-05 MaxDP=7.80D-04 DE=-9.12D-05 OVMax= 1.67D-03

 Cycle   7  Pass 0  IDiag  1:
 RMSU=  5.58D-06    CP:  1.00D+00  1.66D+00  6.85D-01  8.09D-01  1.10D+00
                    CP:  8.97D-01
 FoFJK:  IHMeth= 1 ICntrl=     0 DoSepK=T KAlg= 1 I1Cent= 0 FoldK=F
 E= -1581.55715466025     Delta-E=       -0.000029322822 Rises=F Damp=F
 DIIS: error= 4.19D-05 at cycle   7 NSaved=   7.
 NSaved= 7 IEnMin= 7 EnMin= -1581.55715466025     IErMin= 7 ErrMin= 4.19D-05
 ErrMax= 4.19D-05 EMaxC= 1.00D-01 BMatC= 1.63D-06 BMatP= 2.60D-05
 IDIUse=1 WtCom= 1.00D+00 WtEn= 0.00D+00
 Coeff-Com:  0.926D-02-0.190D-01-0.173D-01-0.203D-01 0.632D-01 0.236D+00
 Coeff-Com:  0.748D+00
 Coeff:      0.926D-02-0.190D-01-0.173D-01-0.203D-01 0.632D-01 0.236D+00
 Coeff:      0.748D+00
 Gap=     0.254 Goal=   None    Shift=    0.000
 RMSDP=4.03D-06 MaxDP=2.42D-04 DE=-2.93D-05 OVMax= 6.47D-04

 Initial convergence to 1.0D-05 achieved.  Increase integral accuracy.
 Cycle   8  Pass 1  IDiag  1:
 FoFJK:  IHMeth= 1 ICntrl=     0 DoSepK=T KAlg= 1 I1Cent= 0 FoldK=F
 E= -1581.55548932921     Delta-E=        0.001665331033 Rises=F Damp=F
 DIIS: error= 9.88D-05 at cycle   1 NSaved=   1.
 NSaved= 1 IEnMin= 1 EnMin= -1581.55548932921     IErMin= 1 ErrMin= 9.88D-05
 ErrMax= 9.88D-05 EMaxC= 1.00D-01 BMatC= 1.32D-05 BMatP= 1.32D-05
 IDIUse=1 WtCom= 1.00D+00 WtEn= 0.00D+00
 Coeff-Com:  0.100D+01
 Coeff:      0.100D+01
 Gap=     0.254 Goal=   None    Shift=    0.000
 RMSDP=4.03D-06 MaxDP=2.42D-04 DE= 1.67D-03 OVMax= 4.00D-04

 Cycle   9  Pass 1  IDiag  1:
 RMSU=  1.70D-05    CP:  1.00D+00
 FoFJK:  IHMeth= 1 ICntrl=     0 DoSepK=T KAlg= 1 I1Cent= 0 FoldK=F
 E= -1581.55549978045     Delta-E=       -0.000010451238 Rises=F Damp=F
 DIIS: error= 4.41D-05 at cycle   2 NSaved=   2.
 NSaved= 2 IEnMin= 2 EnMin= -1581.55549978045     IErMin= 2 ErrMin= 4.41D-05
 ErrMax= 4.41D-05 EMaxC= 1.00D-01 BMatC= 9.68D-07 BMatP= 1.32D-05
 IDIUse=1 WtCom= 1.00D+00 WtEn= 0.00D+00
 Coeff-Com:  0.612D-01 0.939D+00
 Coeff:      0.612D-01 0.939D+00
 Gap=     0.254 Goal=   None    Shift=    0.000
 RMSDP=3.50D-06 MaxDP=2.68D-04 DE=-1.05D-05 OVMax= 3.57D-04

 Cycle  10  Pass 1  IDiag  1:
 RMSU=  2.37D-06    CP:  1.00D+00  1.04D+00
 FoFJK:  IHMeth= 1 ICntrl=     0 DoSepK=T KAlg= 1 I1Cent= 0 FoldK=F
 E= -1581.55549984515     Delta-E=       -0.000000064698 Rises=F Damp=F
 DIIS: error= 6.20D-05 at cycle   3 NSaved=   3.
 NSaved= 3 IEnMin= 3 EnMin= -1581.55549984515     IErMin= 2 ErrMin= 4.41D-05
 ErrMax= 6.20D-05 EMaxC= 1.00D-01 BMatC= 1.20D-06 BMatP= 9.68D-07
 IDIUse=1 WtCom= 1.00D+00 WtEn= 0.00D+00
 Coeff-Com: -0.386D-01 0.541D+00 0.497D+00
 Coeff:     -0.386D-01 0.541D+00 0.497D+00
 Gap=     0.254 Goal=   None    Shift=    0.000
 RMSDP=1.76D-06 MaxDP=1.74D-04 DE=-6.47D-08 OVMax= 1.70D-04

 Cycle  11  Pass 1  IDiag  1:
 RMSU=  6.63D-07    CP:  1.00D+00  1.06D+00  5.69D-01
 FoFJK:  IHMeth= 1 ICntrl=     0 DoSepK=T KAlg= 1 I1Cent= 0 FoldK=F
 E= -1581.55550086610     Delta-E=       -0.000001020948 Rises=F Damp=F
 DIIS: error= 8.37D-06 at cycle   4 NSaved=   4.
 NSaved= 4 IEnMin= 4 EnMin= -1581.55550086610     IErMin= 4 ErrMin= 8.37D-06
 ErrMax= 8.37D-06 EMaxC= 1.00D-01 BMatC= 2.41D-08 BMatP= 9.68D-07
 IDIUse=1 WtCom= 1.00D+00 WtEn= 0.00D+00
 Coeff-Com: -0.181D-01 0.132D+00 0.164D+00 0.722D+00
 Coeff:     -0.181D-01 0.132D+00 0.164D+00 0.722D+00
 Gap=     0.254 Goal=   None    Shift=    0.000
 RMSDP=3.74D-07 MaxDP=3.83D-05 DE=-1.02D-06 OVMax= 4.72D-05

 Cycle  12  Pass 1  IDiag  1:
 RMSU=  2.50D-07    CP:  1.00D+00  1.06D+00  6.01D-01  1.05D+00
 FoFJK:  IHMeth= 1 ICntrl=     0 DoSepK=T KAlg= 1 I1Cent= 0 FoldK=F
 E= -1581.55550089028     Delta-E=       -0.000000024185 Rises=F Damp=F
 DIIS: error= 4.61D-06 at cycle   5 NSaved=   5.
 NSaved= 5 IEnMin= 5 EnMin= -1581.55550089028     IErMin= 5 ErrMin= 4.61D-06
 ErrMax= 4.61D-06 EMaxC= 1.00D-01 BMatC= 6.26D-09 BMatP= 2.41D-08
 IDIUse=1 WtCom= 1.00D+00 WtEn= 0.00D+00
 Coeff-Com: -0.526D-03-0.389D-01-0.214D-01 0.325D+00 0.735D+00
 Coeff:     -0.526D-03-0.389D-01-0.214D-01 0.325D+00 0.735D+00
 Gap=     0.254 Goal=   None    Shift=    0.000
 RMSDP=2.09D-07 MaxDP=1.19D-05 DE=-2.42D-08 OVMax= 2.78D-05

 Cycle  13  Pass 1  IDiag  1:
 RMSU=  9.49D-08    CP:  1.00D+00  1.06D+00  6.14D-01  1.21D+00  9.14D-01
 FoFJK:  IHMeth= 1 ICntrl=     0 DoSepK=T KAlg= 1 I1Cent= 0 FoldK=F
 E= -1581.55550089867     Delta-E=       -0.000000008394 Rises=F Damp=F
 DIIS: error= 8.22D-07 at cycle   6 NSaved=   6.
 NSaved= 6 IEnMin= 6 EnMin= -1581.55550089867     IErMin= 6 ErrMin= 8.22D-07
 ErrMax= 8.22D-07 EMaxC= 1.00D-01 BMatC= 5.58D-10 BMatP= 6.26D-09
 IDIUse=1 WtCom= 1.00D+00 WtEn= 0.00D+00
 Coeff-Com:  0.194D-02-0.278D-01-0.274D-01 0.200D-01 0.239D+00 0.795D+00
 Coeff:      0.194D-02-0.278D-01-0.274D-01 0.200D-01 0.239D+00 0.795D+00
 Gap=     0.254 Goal=   None    Shift=    0.000
 RMSDP=8.53D-08 MaxDP=4.77D-06 DE=-8.39D-09 OVMax= 1.75D-05

 Cycle  14  Pass 1  IDiag  1:
 RMSU=  3.69D-08    CP:  1.00D+00  1.06D+00  6.16D-01  1.26D+00  1.04D+00
                    CP:  1.09D+00
 FoFJK:  IHMeth= 1 ICntrl=     0 DoSepK=T KAlg= 1 I1Cent= 0 FoldK=F
 E= -1581.55550089986     Delta-E=       -0.000000001185 Rises=F Damp=F
 DIIS: error= 4.00D-07 at cycle   7 NSaved=   7.
 NSaved= 7 IEnMin= 7 EnMin= -1581.55550089986     IErMin= 7 ErrMin= 4.00D-07
 ErrMax= 4.00D-07 EMaxC= 1.00D-01 BMatC= 1.30D-10 BMatP= 5.58D-10
 IDIUse=1 WtCom= 1.00D+00 WtEn= 0.00D+00
 Coeff-Com:  0.848D-03-0.423D-02-0.800D-02-0.558D-01-0.410D-01 0.328D+00
 Coeff-Com:  0.780D+00
 Coeff:      0.848D-03-0.423D-02-0.800D-02-0.558D-01-0.410D-01 0.328D+00
 Coeff:      0.780D+00
 Gap=     0.254 Goal=   None    Shift=    0.000
 RMSDP=4.40D-08 MaxDP=1.64D-06 DE=-1.19D-09 OVMax= 8.04D-06

 Cycle  15  Pass 1  IDiag  1:
 RMSU=  1.65D-08    CP:  1.00D+00  1.06D+00  6.18D-01  1.28D+00  1.08D+00
                    CP:  1.27D+00  1.01D+00
 FoFJK:  IHMeth= 1 ICntrl=     0 DoSepK=T KAlg= 1 I1Cent= 0 FoldK=F
 E= -1581.55550090019     Delta-E=       -0.000000000327 Rises=F Damp=F
 DIIS: error= 1.75D-07 at cycle   8 NSaved=   8.
 NSaved= 8 IEnMin= 8 EnMin= -1581.55550090019     IErMin= 8 ErrMin= 1.75D-07
 ErrMax= 1.75D-07 EMaxC= 1.00D-01 BMatC= 1.74D-11 BMatP= 1.30D-10
 IDIUse=1 WtCom= 1.00D+00 WtEn= 0.00D+00
 Coeff-Com: -0.148D-04 0.298D-02 0.167D-02-0.200D-01-0.484D-01-0.160D-01
 Coeff-Com:  0.272D+00 0.807D+00
 Coeff:     -0.148D-04 0.298D-02 0.167D-02-0.200D-01-0.484D-01-0.160D-01
 Coeff:      0.272D+00 0.807D+00
 Gap=     0.254 Goal=   None    Shift=    0.000
 RMSDP=1.65D-08 MaxDP=7.00D-07 DE=-3.27D-10 OVMax= 4.20D-06

 Cycle  16  Pass 1  IDiag  1:
 RMSU=  6.05D-09    CP:  1.00D+00  1.06D+00  6.18D-01  1.29D+00  1.10D+00
                    CP:  1.33D+00  1.18D+00  1.04D+00
 FoFJK:  IHMeth= 1 ICntrl=     0 DoSepK=T KAlg= 1 I1Cent= 0 FoldK=F
 E= -1581.55550090027     Delta-E=       -0.000000000083 Rises=F Damp=F
 DIIS: error= 6.33D-08 at cycle   9 NSaved=   9.
 NSaved= 9 IEnMin= 9 EnMin= -1581.55550090027     IErMin= 9 ErrMin= 6.33D-08
 ErrMax= 6.33D-08 EMaxC= 1.00D-01 BMatC= 3.40D-12 BMatP= 1.74D-11
 IDIUse=1 WtCom= 1.00D+00 WtEn= 0.00D+00
 Coeff-Com: -0.160D-03 0.203D-02 0.224D-02 0.167D-02-0.139D-01-0.709D-01
 Coeff-Com: -0.348D-01 0.315D+00 0.799D+00
 Coeff:     -0.160D-03 0.203D-02 0.224D-02 0.167D-02-0.139D-01-0.709D-01
 Coeff:     -0.348D-01 0.315D+00 0.799D+00
 Gap=     0.254 Goal=   None    Shift=    0.000
 RMSDP=7.48D-09 MaxDP=3.53D-07 DE=-8.28D-11 OVMax= 1.95D-06

 SCF Done:  E(RwB97XD) =  -1581.55550090     A.U. after   16 cycles
             Convg  =    0.7476D-08             -V/T =  2.0112
 KE= 1.564113565222D+03 PE=-1.113184547010D+04 EE= 4.254568484709D+03
 Leave Link  502 at Wed Apr  8 22:23:33 2020, MaxMem= 2684354560 cpu:    1061.2
 (Enter /opt/g09gh/gaussian/g09/l601.exe)
 Copying SCF densities to generalized density rwf, IOpCl= 0 IROHF=0.

 **********************************************************************

            Population analysis using the SCF density.

 **********************************************************************

 Orbital symmetries:
       Occupied  (A) (A) (A) (A) (A) (A) (A) (A) (A) (A) (A) (A)
                 (A) (A) (A) (A) (A) (A) (A) (A) (A) (A) (A) (A)
                 (A) (A) (A) (A) (A) (A) (A) (A) (A) (A) (A) (A)
                 (A) (A) (A) (A) (A) (A) (A) (A) (A) (A) (A) (A)
                 (A) (A) (A) (A) (A) (A) (A) (A) (A) (A) (A) (A)
                 (A) (A) (A) (A) (A) (A) (A) (A) (A) (A) (A) (A)
                 (A) (A) (A) (A) (A) (A) (A) (A) (A) (A) (A) (A)
                 (A) (A) (A) (A) (A) (A) (A) (A) (A) (A) (A) (A)
                 (A) (A) (A) (A) (A) (A) (A) (A) (A) (A) (A) (A)
                 (A) (A) (A) (A) (A) (A) (A) (A) (A) (A) (A) (A)
                 (A) (A) (A) (A) (A) (A) (A) (A) (A) (A) (A)
       Virtual   (A) (A) (A) (A) (A) (A) (A) (A) (A) (A) (A) (A)
                 (A) (A) (A) (A) (A) (A) (A) (A) (A) (A) (A) (A)
                 (A) (A) (A) (A) (A) (A) (A) (A) (A) (A) (A) (A)
                 (A) (A) (A) (A) (A) (A) (A) (A) (A) (A) (A) (A)
                 (A) (A) (A) (A) (A) (A) (A) (A) (A) (A) (A) (A)
                 (A) (A) (A) (A) (A) (A) (A) (A) (A) (A) (A) (A)
                 (A) (A) (A) (A) (A) (A) (A) (A) (A) (A) (A) (A)
                 (A) (A) (A) (A) (A) (A) (A) (A) (A) (A) (A) (A)
                 (A) (A) (A) (A) (A) (A) (A) (A) (A) (A) (A) (A)
                 (A) (A) (A) (A) (A) (A) (A) (A) (A) (A) (A) (A)
                 (A) (A) (A) (A) (A) (A) (A) (A) (A) (A) (A) (A)
                 (A) (A) (A) (A) (A) (A) (A) (A) (A) (A) (A) (A)
                 (A) (A) (A) (A) (A) (A) (A) (A) (A) (A) (A) (A)
                 (A) (A) (A) (A) (A) (A) (A) (A) (A) (A) (A) (A)
                 (A) (A) (A) (A) (A) (A) (A) (A) (A) (A) (A) (A)
                 (A) (A) (A) (A) (A) (A) (A) (A) (A) (A) (A) (A)
                 (A) (A) (A) (A) (A) (A) (A) (A) (A) (A) (A) (A)
                 (A) (A) (A) (A) (A) (A) (A) (A) (A) (A) (A) (A)
                 (A) (A) (A) (A) (A) (A) (A) (A) (A) (A) (A) (A)
                 (A) (A) (A) (A) (A) (A) (A) (A) (A) (A) (A) (A)
                 (A) (A) (A) (A) (A) (A) (A) (A) (A) (A) (A) (A)
                 (A) (A) (A) (A) (A) (A) (A) (A) (A) (A) (A) (A)
                 (A) (A) (A) (A) (A) (A) (A) (A) (A) (A) (A) (A)
                 (A) (A) (A) (A) (A) (A) (A) (A) (A) (A) (A) (A)
                 (A) (A) (A) (A) (A) (A) (A) (A) (A) (A) (A) (A)
                 (A) (A) (A) (A) (A) (A) (A) (A) (A) (A) (A) (A)
                 (A) (A) (A) (A) (A) (A) (A) (A) (A) (A) (A) (A)
                 (A) (A) (A) (A) (A) (A) (A) (A) (A) (A) (A) (A)
                 (A) (A) (A) (A) (A) (A) (A) (A) (A) (A) (A) (A)
                 (A) (A) (A) (A) (A) (A) (A) (A) (A) (A) (A) (A)
                 (A) (A) (A) (A) (A) (A) (A) (A) (A) (A) (A) (A)
                 (A) (A) (A) (A) (A) (A) (A) (A) (A) (A) (A) (A)
                 (A) (A) (A) (A) (A) (A) (A) (A) (A) (A) (A) (A)
                 (A) (A) (A) (A) (A) (A) (A) (A) (A) (A) (A) (A)
                 (A) (A) (A) (A) (A) (A) (A) (A) (A) (A) (A) (A)
                 (A) (A) (A) (A) (A) (A) (A) (A) (A) (A) (A) (A)
                 (A) (A) (A) (A) (A) (A) (A) (A) (A) (A) (A) (A)
                 (A) (A) (A) (A) (A) (A) (A) (A) (A) (A) (A) (A)
                 (A) (A) (A) (A) (A) (A) (A) (A) (A) (A) (A) (A)
                 (A) (A) (A) (A) (A) (A) (A) (A) (A) (A) (A) (A)
                 (A) (A) (A) (A) (A) (A)
 The electronic state is 1-A.
 Alpha  occ. eigenvalues --  -19.23563 -14.49379 -14.49058 -14.46073 -14.46049
 Alpha  occ. eigenvalues --  -14.45944 -14.45717 -14.44416 -10.41907 -10.40845
 Alpha  occ. eigenvalues --  -10.38144 -10.36714 -10.36545 -10.36275 -10.35789
 Alpha  occ. eigenvalues --  -10.35674 -10.35549 -10.35118 -10.34980 -10.34799
 Alpha  occ. eigenvalues --  -10.34110 -10.33946 -10.33820 -10.32683 -10.32091
 Alpha  occ. eigenvalues --  -10.32058 -10.31768 -10.31758 -10.31359 -10.31102
 Alpha  occ. eigenvalues --  -10.31037 -10.30909 -10.30850 -10.30199 -10.30128
 Alpha  occ. eigenvalues --  -10.29833 -10.29087  -1.13700  -1.11541  -1.05241
 Alpha  occ. eigenvalues --   -1.03696  -1.03097  -1.03027  -0.99984  -0.99186
 Alpha  occ. eigenvalues --   -0.96064  -0.94527  -0.92282  -0.89227  -0.87964
 Alpha  occ. eigenvalues --   -0.86925  -0.86391  -0.84921  -0.83793  -0.82836
 Alpha  occ. eigenvalues --   -0.81673  -0.79464  -0.77775  -0.77722  -0.75904
 Alpha  occ. eigenvalues --   -0.73198  -0.72682  -0.72245  -0.71077  -0.70507
 Alpha  occ. eigenvalues --   -0.70017  -0.69445  -0.68026  -0.66348  -0.64679
 Alpha  occ. eigenvalues --   -0.63293  -0.62329  -0.61501  -0.60317  -0.59744
 Alpha  occ. eigenvalues --   -0.58445  -0.57586  -0.56772  -0.56329  -0.55973
 Alpha  occ. eigenvalues --   -0.55708  -0.55124  -0.54672  -0.54352  -0.53602
 Alpha  occ. eigenvalues --   -0.53260  -0.52470  -0.52185  -0.51798  -0.51575
 Alpha  occ. eigenvalues --   -0.51246  -0.51132  -0.50960  -0.50827  -0.50365
 Alpha  occ. eigenvalues --   -0.49954  -0.49891  -0.49591  -0.49395  -0.48295
 Alpha  occ. eigenvalues --   -0.47432  -0.46503  -0.46182  -0.45974  -0.45410
 Alpha  occ. eigenvalues --   -0.45334  -0.44689  -0.44291  -0.44054  -0.43893
 Alpha  occ. eigenvalues --   -0.43414  -0.42950  -0.42114  -0.41346  -0.40354
 Alpha  occ. eigenvalues --   -0.40043  -0.38524  -0.37904  -0.37129  -0.36363
 Alpha  occ. eigenvalues --   -0.35187  -0.35058  -0.33822  -0.33451  -0.33094
 Alpha  occ. eigenvalues --   -0.33069  -0.32098  -0.30995  -0.29411  -0.27400
 Alpha  occ. eigenvalues --   -0.25897
 Alpha virt. eigenvalues --   -0.00473   0.02570   0.03227   0.04725   0.05934
 Alpha virt. eigenvalues --    0.07449   0.07779   0.09712   0.10095   0.12625
 Alpha virt. eigenvalues --    0.13564   0.13740   0.14284   0.15793   0.16072
 Alpha virt. eigenvalues --    0.16327   0.17083   0.17569   0.18383   0.19134
 Alpha virt. eigenvalues --    0.19352   0.20035   0.20182   0.20599   0.21480
 Alpha virt. eigenvalues --    0.22110   0.22668   0.22918   0.23253   0.24060
 Alpha virt. eigenvalues --    0.24329   0.24626   0.24815   0.25022   0.25104
 Alpha virt. eigenvalues --    0.25415   0.25584   0.26132   0.26761   0.27066
 Alpha virt. eigenvalues --    0.27491   0.27932   0.28282   0.28372   0.28852
 Alpha virt. eigenvalues --    0.29053   0.29269   0.29638   0.30637   0.30985
 Alpha virt. eigenvalues --    0.31787   0.31991   0.32164   0.33313   0.33774
 Alpha virt. eigenvalues --    0.33903   0.34447   0.35328   0.36283   0.37658
 Alpha virt. eigenvalues --    0.37977   0.38379   0.38711   0.38900   0.39988
 Alpha virt. eigenvalues --    0.40317   0.40587   0.41094   0.41683   0.42177
 Alpha virt. eigenvalues --    0.43241   0.44807   0.45229   0.46700   0.47157
 Alpha virt. eigenvalues --    0.48090   0.49678   0.51245   0.52318   0.53668
 Alpha virt. eigenvalues --    0.55457   0.56228   0.57351   0.57549   0.58488
 Alpha virt. eigenvalues --    0.58761   0.59311   0.59551   0.59710   0.60200
 Alpha virt. eigenvalues --    0.60423   0.60821   0.61480   0.61925   0.62221
 Alpha virt. eigenvalues --    0.62799   0.62936   0.63167   0.63844   0.63890
 Alpha virt. eigenvalues --    0.64492   0.64773   0.65028   0.65094   0.65456
 Alpha virt. eigenvalues --    0.65786   0.65996   0.66179   0.66510   0.66801
 Alpha virt. eigenvalues --    0.66906   0.67133   0.67577   0.68411   0.68618
 Alpha virt. eigenvalues --    0.68721   0.69143   0.69473   0.70047   0.70261
 Alpha virt. eigenvalues --    0.70608   0.70662   0.71119   0.71205   0.71622
 Alpha virt. eigenvalues --    0.72163   0.72597   0.72921   0.73169   0.73208
 Alpha virt. eigenvalues --    0.74210   0.74668   0.75790   0.76014   0.76553
 Alpha virt. eigenvalues --    0.77306   0.77952   0.78383   0.79857   0.80585
 Alpha virt. eigenvalues --    0.80995   0.81368   0.81598   0.81870   0.82977
 Alpha virt. eigenvalues --    0.83553   0.83878   0.85612   0.85711   0.85885
 Alpha virt. eigenvalues --    0.86350   0.86533   0.87563   0.87839   0.87996
 Alpha virt. eigenvalues --    0.89103   0.89346   0.89697   0.90041   0.90402
 Alpha virt. eigenvalues --    0.90571   0.91386   0.91447   0.91745   0.92308
 Alpha virt. eigenvalues --    0.92679   0.93234   0.93377   0.93597   0.93755
 Alpha virt. eigenvalues --    0.94230   0.94661   0.94817   0.95083   0.95497
 Alpha virt. eigenvalues --    0.96191   0.96757   0.97270   0.97564   0.98304
 Alpha virt. eigenvalues --    0.98425   0.98760   0.99170   0.99481   0.99791
 Alpha virt. eigenvalues --    0.99961   1.00774   1.01300   1.01581   1.02454
 Alpha virt. eigenvalues --    1.02488   1.02773   1.03872   1.04832   1.05916
 Alpha virt. eigenvalues --    1.06325   1.06758   1.07669   1.08206   1.08820
[...]
                 (A) (A) (A) (A) (A) (A) (A) (A) (A) (A) (A) (A)
                 (A) (A) (A) (A) (A) (A) (A) (A) (A) (A) (A) (A)
                 (A) (A) (A) (A) (A) (A) (A) (A) (A) (A) (A) (A)
                 (A) (A) (A) (A) (A) (A) (A) (A) (A) (A) (A) (A)
                 (A) (A) (A) (A) (A) (A) (A) (A) (A) (A) (A) (A)
                 (A) (A) (A) (A) (A) (A) (A) (A) (A) (A) (A) (A)
                 (A) (A) (A) (A) (A) (A) (A) (A) (A) (A) (A) (A)
                 (A) (A) (A) (A) (A) (A) (A) (A) (A) (A) (A) (A)
                 (A) (A) (A) (A) (A) (A) (A) (A) (A) (A) (A) (A)
                 (A) (A) (A) (A) (A) (A) (A) (A) (A) (A) (A) (A)
                 (A) (A) (A) (A) (A) (A) (A) (A) (A) (A) (A) (A)
                 (A) (A) (A) (A) (A) (A) (A) (A) (A) (A) (A) (A)
                 (A) (A) (A) (A) (A) (A) (A) (A) (A) (A) (A) (A)
                 (A) (A) (A) (A) (A) (A) (A) (A) (A) (A) (A) (A)
                 (A) (A) (A) (A) (A) (A) (A) (A) (A) (A) (A) (A)
                 (A) (A) (A) (A) (A) (A) (A) (A) (A) (A) (A) (A)
                 (A) (A) (A) (A) (A) (A) (A) (A) (A) (A) (A) (A)
                 (A) (A) (A) (A) (A) (A) (A) (A) (A) (A) (A) (A)
                 (A) (A) (A) (A) (A) (A) (A) (A) (A) (A) (A) (A)
                 (A) (A) (A) (A) (A) (A) (A) (A) (A) (A) (A) (A)
                 (A) (A) (A) (A) (A) (A) (A) (A) (A) (A) (A) (A)
                 (A) (A) (A) (A) (A) (A) (A) (A) (A) (A) (A) (A)
                 (A) (A) (A) (A) (A) (A) (A) (A) (A) (A) (A) (A)
                 (A) (A) (A) (A) (A) (A) (A) (A) (A) (A) (A) (A)
                 (A) (A) (A) (A) (A) (A) (A) (A) (A) (A) (A) (A)
                 (A) (A) (A) (A) (A) (A) (A) (A) (A) (A) (A) (A)
                 (A) (A) (A) (A) (A) (A) (A) (A) (A) (A) (A) (A)
                 (A) (A) (A) (A) (A) (A) (A) (A) (A) (A) (A) (A)
                 (A) (A) (A) (A) (A) (A) (A) (A) (A) (A) (A) (A)
                 (A) (A) (A) (A) (A) (A) (A) (A) (A) (A) (A) (A)
                 (A) (A) (A) (A) (A) (A) (A) (A) (A) (A) (A) (A)
                 (A) (A) (A) (A) (A) (A) (A) (A) (A) (A) (A) (A)
                 (A) (A) (A) (A) (A) (A)
 The electronic state is 1-A.
 Alpha  occ. eigenvalues --  -19.23434 -14.49326 -14.48440 -14.46515 -14.46103
 Alpha  occ. eigenvalues --  -14.45825 -14.43396 -14.42641 -10.41800 -10.40195
 Alpha  occ. eigenvalues --  -10.37605 -10.36327 -10.35190 -10.35009 -10.34670
 Alpha  occ. eigenvalues --  -10.34056 -10.34003 -10.33565 -10.32779 -10.32328
 Alpha  occ. eigenvalues --  -10.31843 -10.31122 -10.31072 -10.31024 -10.30956
 Alpha  occ. eigenvalues --  -10.30790 -10.30405 -10.30358 -10.30329 -10.30274
 Alpha  occ. eigenvalues --  -10.30268 -10.30220 -10.30038 -10.29943 -10.29544
 Alpha  occ. eigenvalues --  -10.28641 -10.28329  -1.13539  -1.12294  -1.06207
 Alpha  occ. eigenvalues --   -1.04590  -1.03694  -1.03491  -1.00700  -0.99229
 Alpha  occ. eigenvalues --   -0.96197  -0.94684  -0.93047  -0.89747  -0.88145
 Alpha  occ. eigenvalues --   -0.87345  -0.86254  -0.85145  -0.84577  -0.83774
 Alpha  occ. eigenvalues --   -0.81691  -0.79507  -0.78208  -0.77654  -0.76306
 Alpha  occ. eigenvalues --   -0.73835  -0.72962  -0.72894  -0.72599  -0.70852
 Alpha  occ. eigenvalues --   -0.70437  -0.69535  -0.68001  -0.66454  -0.65190
 Alpha  occ. eigenvalues --   -0.63502  -0.63278  -0.62277  -0.61731  -0.60197
 Alpha  occ. eigenvalues --   -0.58836  -0.57912  -0.57464  -0.56521  -0.56122
 Alpha  occ. eigenvalues --   -0.55774  -0.55120  -0.55022  -0.54567  -0.54275
 Alpha  occ. eigenvalues --   -0.53615  -0.53137  -0.53003  -0.52292  -0.52079
 Alpha  occ. eigenvalues --   -0.51902  -0.51600  -0.51261  -0.50941  -0.50570
 Alpha  occ. eigenvalues --   -0.50463  -0.50374  -0.49940  -0.49429  -0.48337
 Alpha  occ. eigenvalues --   -0.47230  -0.46770  -0.46460  -0.46271  -0.46007
 Alpha  occ. eigenvalues --   -0.45755  -0.44879  -0.44511  -0.44004  -0.43898
 Alpha  occ. eigenvalues --   -0.43447  -0.43039  -0.42159  -0.41650  -0.41249
 Alpha  occ. eigenvalues --   -0.40582  -0.40461  -0.39845  -0.38173  -0.37562
 Alpha  occ. eigenvalues --   -0.35569  -0.35306  -0.33869  -0.33510  -0.33388
 Alpha  occ. eigenvalues --   -0.32998  -0.32023  -0.30471  -0.29141  -0.26989
 Alpha  occ. eigenvalues --   -0.24644
 Alpha virt. eigenvalues --   -0.00246   0.03015   0.03276   0.04464   0.06300
 Alpha virt. eigenvalues --    0.07287   0.08380   0.10605   0.14176   0.15009
 Alpha virt. eigenvalues --    0.15501   0.16432   0.17304   0.17631   0.18451
 Alpha virt. eigenvalues --    0.19252   0.19783   0.20165   0.20695   0.20705
 Alpha virt. eigenvalues --    0.21288   0.22458   0.22654   0.22956   0.23316
 Alpha virt. eigenvalues --    0.23491   0.23926   0.24368   0.24709   0.24891
 Alpha virt. eigenvalues --    0.25379   0.25514   0.26027   0.26445   0.26678
 Alpha virt. eigenvalues --    0.26918   0.27715   0.27878   0.28279   0.28331
 Alpha virt. eigenvalues --    0.28610   0.29027   0.29513   0.29683   0.29853
 Alpha virt. eigenvalues --    0.30951   0.31330   0.31936   0.32315   0.32501
 Alpha virt. eigenvalues --    0.32855   0.33429   0.33884   0.34265   0.34791
 Alpha virt. eigenvalues --    0.35035   0.36050   0.36500   0.37993   0.38108
 Alpha virt. eigenvalues --    0.38480   0.38969   0.39018   0.39956   0.40829
 Alpha virt. eigenvalues --    0.41522   0.41782   0.42055   0.42314   0.42629
 Alpha virt. eigenvalues --    0.43859   0.44803   0.46026   0.47233   0.47614
 Alpha virt. eigenvalues --    0.48191   0.49868   0.50925   0.52648   0.54217
 Alpha virt. eigenvalues --    0.55707   0.56589   0.57717   0.58228   0.58388
 Alpha virt. eigenvalues --    0.59322   0.59383   0.60235   0.60495   0.60895
 Alpha virt. eigenvalues --    0.61124   0.61788   0.61879   0.62293   0.62668
 Alpha virt. eigenvalues --    0.63243   0.63506   0.63864   0.64224   0.64778
 Alpha virt. eigenvalues --    0.65063   0.65294   0.65452   0.65516   0.65750
 Alpha virt. eigenvalues --    0.66061   0.66538   0.66790   0.66970   0.67126
 Alpha virt. eigenvalues --    0.67576   0.68011   0.68372   0.68925   0.69514
 Alpha virt. eigenvalues --    0.69974   0.70132   0.70428   0.70819   0.71246
 Alpha virt. eigenvalues --    0.71506   0.71833   0.71907   0.72263   0.73166
 Alpha virt. eigenvalues --    0.73528   0.73592   0.74103   0.74756   0.75229
 Alpha virt. eigenvalues --    0.75910   0.76017   0.76243   0.76782   0.77530
 Alpha virt. eigenvalues --    0.77829   0.79069   0.80399   0.80629   0.82069
 Alpha virt. eigenvalues --    0.82264   0.82691   0.82967   0.83237   0.84423
 Alpha virt. eigenvalues --    0.84498   0.85854   0.85907   0.87011   0.88081
 Alpha virt. eigenvalues --    0.88237   0.89400   0.89750   0.90334   0.90660
 Alpha virt. eigenvalues --    0.90924   0.91344   0.91663   0.92106   0.92227
 Alpha virt. eigenvalues --    0.92877   0.93148   0.93332   0.93645   0.93781
 Alpha virt. eigenvalues --    0.94113   0.94490   0.94785   0.95058   0.95376
 Alpha virt. eigenvalues --    0.95578   0.96065   0.96535   0.97581   0.98159
 Alpha virt. eigenvalues --    0.98263   0.98329   0.98711   0.99349   0.99982
 Alpha virt. eigenvalues --    1.00173   1.00521   1.01209   1.01436   1.01733
 Alpha virt. eigenvalues --    1.02314   1.02922   1.03198   1.03485   1.04149
 Alpha virt. eigenvalues --    1.05124   1.05645   1.06473   1.06901   1.07197
 Alpha virt. eigenvalues --    1.07375   1.07949   1.08449   1.08934   1.09156
 Alpha virt. eigenvalues --    1.09783   1.10716   1.10786   1.11737   1.11809
 Alpha virt. eigenvalues --    1.12381   1.12595   1.12921   1.14757   1.15298
 Alpha virt. eigenvalues --    1.16598   1.16807   1.17531   1.17911   1.18518
 Alpha virt. eigenvalues --    1.20149   1.20414   1.22321   1.23526   1.24409
 Alpha virt. eigenvalues --    1.24805   1.25679   1.26110   1.27055   1.27904
 Alpha virt. eigenvalues --    1.29064   1.30072   1.30375   1.31313   1.31570
 Alpha virt. eigenvalues --    1.32136   1.33079   1.33766   1.34843   1.35585
 Alpha virt. eigenvalues --    1.35853   1.36782   1.37236   1.38021   1.39404
 Alpha virt. eigenvalues --    1.39811   1.42433   1.42512   1.44427   1.45117
 Alpha virt. eigenvalues --    1.46243   1.47087   1.47992   1.48446   1.48560
 Alpha virt. eigenvalues --    1.48857   1.49227   1.49580   1.49970   1.51652
 Alpha virt. eigenvalues --    1.52107   1.52857   1.53319   1.53902   1.54489
 Alpha virt. eigenvalues --    1.54996   1.55868   1.56273   1.56561   1.56605
 Alpha virt. eigenvalues --    1.57545   1.57707   1.58325   1.58691   1.59187
 Alpha virt. eigenvalues --    1.59676   1.60123   1.60328   1.61889   1.62856
 Alpha virt. eigenvalues --    1.64201   1.64981   1.65500   1.67116   1.67439
 Alpha virt. eigenvalues --    1.69034   1.69829   1.71804   1.75477   1.76321
 Alpha virt. eigenvalues --    1.79070   1.80696   1.81720   1.82808   1.83732
 Alpha virt. eigenvalues --    1.84677   1.85573   1.86444   1.86941   1.87814
 Alpha virt. eigenvalues --    1.87865   1.89291   1.89874   1.90813   1.90911
 Alpha virt. eigenvalues --    1.91252   1.92268   1.92515   1.93245   1.94161
 Alpha virt. eigenvalues --    1.94879   1.95097   1.95937   1.96757   1.98660
 Alpha virt. eigenvalues --    1.99393   1.99636   1.99951   2.00625   2.00921
 Alpha virt. eigenvalues --    2.01374   2.01762   2.02400   2.02466   2.03554
 Alpha virt. eigenvalues --    2.05223   2.06787   2.07073   2.07517   2.07934
 Alpha virt. eigenvalues --    2.08568   2.08964   2.09976   2.11403   2.11607
 Alpha virt. eigenvalues --    2.12447   2.12955   2.13127   2.14099   2.15001
 Alpha virt. eigenvalues --    2.15736   2.16265   2.17836   2.19366   2.20399
 Alpha virt. eigenvalues --    2.21176   2.21658   2.22054   2.22503   2.22868
 Alpha virt. eigenvalues --    2.23240   2.23596   2.23819   2.24733   2.24759
 Alpha virt. eigenvalues --    2.26056   2.26305   2.26562   2.26693   2.28092
 Alpha virt. eigenvalues --    2.28706   2.29495   2.30047   2.30959   2.32411
 Alpha virt. eigenvalues --    2.33958   2.35003   2.35848   2.37276   2.37638
 Alpha virt. eigenvalues --    2.37901   2.38079   2.38655   2.39578   2.40005
 Alpha virt. eigenvalues --    2.40210   2.41077   2.42098   2.42357   2.43210
 Alpha virt. eigenvalues --    2.43562   2.44265   2.44767   2.45766   2.46126
 Alpha virt. eigenvalues --    2.46477   2.47921   2.48833   2.49634   2.49858
 Alpha virt. eigenvalues --    2.50513   2.50654   2.52413   2.53523   2.56366
 Alpha virt. eigenvalues --    2.57643   2.60117   2.61166   2.61987   2.63002
 Alpha virt. eigenvalues --    2.64751   2.65910   2.65975   2.66504   2.68119
 Alpha virt. eigenvalues --    2.69046   2.69956   2.70992   2.72453   2.72627
 Alpha virt. eigenvalues --    2.74192   2.74295   2.75462   2.75844   2.76846
 Alpha virt. eigenvalues --    2.76984   2.78121   2.79191   2.81074   2.82185
 Alpha virt. eigenvalues --    2.82984   2.83161   2.83673   2.84034   2.85675
 Alpha virt. eigenvalues --    2.85993   2.86665   2.86922   2.88702   2.88994
 Alpha virt. eigenvalues --    2.90330   2.91748   2.93030   2.93605   2.94421
 Alpha virt. eigenvalues --    2.95289   2.96407   2.97809   3.00922   3.03482
 Alpha virt. eigenvalues --    3.04423   3.06490   3.09151   3.10311   3.12083
 Alpha virt. eigenvalues --    3.19282   3.27429   3.29283   3.39534   3.41578
 Alpha virt. eigenvalues --    3.45552   3.53635   3.56617   3.58022   4.12879
 Alpha virt. eigenvalues --    4.13899   4.15121   4.17287   4.18505   4.18808
 Alpha virt. eigenvalues --    4.19423   4.21081   4.22084   4.23720   4.25656
 Alpha virt. eigenvalues --    4.26444   4.27593   4.28749   4.31048   4.32125
 Alpha virt. eigenvalues --    4.33457   4.34987   4.37324   4.40674   4.41013
 Alpha virt. eigenvalues --    4.41943   4.44629   4.46085   4.48840   4.49858
 Alpha virt. eigenvalues --    4.50319   4.53546   4.57437   4.60772   4.62138
 Alpha virt. eigenvalues --    4.64377   4.68733   4.69617   4.79167   4.84810
 Alpha virt. eigenvalues --    4.90064
          Condensed to atoms (all electrons):
 Mulliken atomic charges:
              1
     1  C   -0.194973
     2  C   -0.155860
     3  C    0.036873
     4  C    0.009566
     5  N   -0.425780
     6  C    0.024669
     7  C    0.296115
     8  C   -0.256493
     9  C    0.049757
    10  N   -0.495250
    11  C    0.722285
    12  N   -0.570730
    13  N   -0.811466
    14  C    0.292559
    15  C    0.118338
    16  C   -0.240671
    17  C   -0.190499
    18  C    0.366846
    19  C   -0.276372
    20  N   -0.772242
    21  C    0.599132
    22  C    0.016499
    23  C   -0.178644
    24  C   -0.222663
    25  C    0.157679
    26  C   -0.213075
    27  C   -0.205517
    28  C   -0.263160
    29  N   -0.381563
    30  C   -0.186234
    31  C   -0.181478
    32  N   -0.384825
    33  C   -0.348641
    34  C   -0.181899
    35  C   -0.185587
    36  O   -0.517256
    37  C   -0.609297
    38  H    0.185660
    39  H    0.186008
    40  H    0.196522
    41  H    0.178710
    42  H    0.181200
    43  H    0.189589
    44  H    0.370263
    45  H    0.160387
    46  H    0.213841
    47  H    0.204584
    48  H    0.364198
    49  H    0.199014
    50  H    0.164969
    51  H    0.164483
    52  H    0.176063
    53  H    0.168930
    54  H    0.168245
    55  H    0.152487
    56  H    0.159127
    57  H    0.151969
    58  H    0.171180
    59  H    0.133114
    60  H    0.165883
    61  H    0.165340
    62  H    0.147201
    63  H    0.185500
    64  H    0.157083
    65  H    0.145844
    66  H    0.180419
    67  H    0.181119
    68  H    0.190926
 Sum of Mulliken atomic charges =   0.00000
 Mulliken charges with hydrogens summed into heavy atoms:
              1
     1  C   -0.009313
     2  C    0.030148
     3  C    0.036873
     4  C    0.206088
     5  N   -0.425780
     6  C    0.203379
     7  C    0.296115
     8  C   -0.075292
     9  C    0.239346
    10  N   -0.495250
    11  C    0.722285
    12  N   -0.570730
    13  N   -0.441203
    14  C    0.292559
    15  C    0.118338
    16  C   -0.080284
    17  C    0.023342
    18  C    0.366846
    19  C   -0.071788
    20  N   -0.408044
    21  C    0.599132
    22  C    0.016499
    23  C    0.020370
    24  C   -0.057694
    25  C    0.157679
    26  C   -0.048591
    27  C   -0.029454
    28  C    0.074015
    29  N   -0.381563
    30  C    0.125380
    31  C    0.141671
    32  N   -0.384825
    33  C    0.115696
    34  C    0.150801
    35  C    0.117339
    36  O   -0.517256
    37  C   -0.056833
 Sum of Mulliken charges with hydrogens summed into heavy atoms =   0.00000
 Electronic spatial extent (au):  <R**2>=          21787.0038
 Charge=              0.0000 electrons
 Dipole moment (field-independent basis, Debye):
    X=             -1.2723    Y=              6.3576    Z=             -0.7033  Tot=              6.5217
 Quadrupole moment (field-independent basis, Debye-Ang):
   XX=           -194.9428   YY=           -202.2218   ZZ=           -216.1900
   XY=             -5.6623   XZ=             -1.6381   YZ=            -12.1175
 Traceless Quadrupole moment (field-independent basis, Debye-Ang):
   XX=              9.5087   YY=              2.2298   ZZ=            -11.7385
   XY=             -5.6623   XZ=             -1.6381   YZ=            -12.1175
 Octapole moment (field-independent basis, Debye-Ang**2):
  XXX=            -79.3796  YYY=            194.9375  ZZZ=              5.9838  XYY=            -56.8069
  XXY=            -36.5007  XXZ=             42.0502  XZZ=             23.0240  YZZ=             16.0708
  YYZ=             -5.0067  XYZ=              2.3557
 Hexadecapole moment (field-independent basis, Debye-Ang**3):
 XXXX=         -19149.8924 YYYY=          -8110.0465 ZZZZ=          -1683.2504 XXXY=            -46.5398
 XXXZ=             51.6549 YYYX=           -168.7101 YYYZ=           -278.8226 ZZZX=             44.5447
 ZZZY=            -14.3245 XXYY=          -4085.5509 XXZZ=          -3495.3503 YYZZ=          -1694.1896
 XXYZ=            -76.4055 YYXZ=             -7.4940 ZZXY=             33.2076
 N-N= 3.864327348337D+03 E-N=-1.140042590531D+04  KE= 1.567157664634D+03
 No NMR shielding tensors so no spin-rotation constants.
 Leave Link  601 at Thu Apr  9 00:15:38 2020, MaxMem= 2684354560 cpu:       2.8
 (Enter /opt/g09gh/gaussian/g09/l9999.exe)
 1\1\GINC-NODE54\FOpt\RwB97XD\6-31G(d)\C29H31N7O1\BDW2292\09-Apr-2020\0
 \\#P opt=(,maxcycle=400) wB97XD/6-31G* MaxDisk=100GB\\MOLECULE0 Rotata
 ble Bond Optimization on node37.bme.utexas.edu\\0,1\C,-5.6021851064,-5
 .2712662422,4.8414631398\C,-4.4952183672,-5.8317908498,5.4665364539\C,
 -3.221094791,-5.3872143997,5.1155432443\C,-3.136490683,-4.3828079932,4
 .1425522479\N,-4.186654648,-3.8457660311,3.5253801377\C,-5.3962631133,
 -4.291231374,3.8761760786\C,-1.9808954698,-5.9600055124,5.6970370016\C
 ,-1.9270027089,-6.5711321391,6.9462474329\C,-0.6847878224,-7.075842381
 9,7.3285262895\N,0.4057750021,-6.9934414888,6.5799451749\C,0.249158182
 1,-6.3685435725,5.3945649138\N,-0.8913198256,-5.8565680576,4.930394038
 7\N,1.3898728669,-6.2894317673,4.6437929971\C,1.6293370662,-5.71252440
 13,3.383867438\C,2.9444599061,-5.7521134217,2.8751441148\C,3.173856808
 6,-5.1764692865,1.6288280592\C,2.1782397022,-4.5600524921,0.8731784451
 \C,0.8902343181,-4.5299766317,1.3987947376\C,0.6219362143,-5.114582899
 9,2.6365394063\N,-0.2204787189,-3.931080989,0.7799319978\C,-0.31347072
 05,-3.2730073806,-0.4178430628\C,-1.6928012734,-2.738282137,-0.6877718
 403\C,-1.8088579546,-1.587969075,-1.4679318635\C,-3.0543094466,-1.0093
 028907,-1.6782607796\C,-4.2101090127,-1.5643671738,-1.1233820813\C,-4.
 0921973519,-2.7515942305,-0.4005137913\C,-2.8513941917,-3.3313381324,-
 0.1768339409\C,-5.5567621301,-0.8707113992,-1.257210719\N,-5.958877172
 6,0.028595799,-0.1883935265\C,-5.1696394267,1.243524532,-0.018285266\C
 ,-4.0484065558,1.1113360334,1.0257553024\N,-4.5242245848,0.6147786386,
 2.3138276831\C,-5.2710820163,1.595577062,3.0802744753\C,-5.2278018568,
 -0.6517733865,2.1256063029\C,-6.359085546,-0.5599964204,1.0862465266\O
 ,0.6214538588,-3.0967074217,-1.1816029527\C,4.0680952128,-6.3914554549
 ,3.6511562565\H,-6.6071981468,-5.597866841,5.0863609284\H,-4.623597660
 9,-6.6238869647,6.1985996396\H,-2.1611149896,-3.9926267829,3.865114492
 6\H,-6.2394252197,-3.8395009157,3.3579273793\H,-2.7856243097,-6.640216
 8392,7.6024537815\H,-0.5647350477,-7.5691641337,8.2910400243\H,2.17809
 21483,-6.7150520859,5.1082273889\H,4.1836711325,-5.2045795845,1.227312
 7076\H,2.3914034573,-4.110987554,-0.0868329226\H,-0.384127647,-5.11078
 23747,3.0263633461\H,-1.0417914189,-3.8898842602,1.3640191514\H,-0.908
 8157059,-1.1535149356,-1.8908865656\H,-3.1304013487,-0.0996328744,-2.2
 697257143\H,-4.9814710283,-3.2215690961,0.012140053\H,-2.8042093487,-4
 .2626470375,0.3809828026\H,-5.5630242506,-0.2909543604,-2.188981225\H,
 -6.3416597503,-1.6308290555,-1.3554447859\H,-4.7529296825,1.5330420606
 ,-0.9897228514\H,-5.8510206536,2.0524871352,0.2849419464\H,-3.56197458
 78,2.0825514536,1.1788884119\H,-3.2844939085,0.4141513003,0.662079646\
 H,-6.2174910334,1.9375903641,2.6248411585\H,-4.6426627405,2.4791636854
 ,3.2378087715\H,-5.5104849365,1.1746045336,4.0630002931\H,-5.632195030
 5,-0.9767220425,3.0920632513\H,-4.4913654194,-1.4030995248,1.822397134
 8\H,-7.1732620642,0.0561978576,1.4969729964\H,-6.7830169804,-1.5534338
 239,0.8969678003\H,3.8882805129,-7.4584624924,3.8391484014\H,4.2281121
 718,-5.9038259509,4.6220764226\H,5.0067258441,-6.3170108903,3.09638606
 31\\Version=EM64L-G09RevA.02\State=1-A\HF=-1581.7613232\RMSD=4.994e-09
 \RMSF=5.284e-06\Dipole=-1.4779679,-0.8752963,1.9060239\Quadrupole=4.03
 72818,-0.6146123,-3.4226694,1.4507594,1.0692295,-12.1396158\PG=C01 [X(
 C29H31N7O1)]\\@


 MODELS ARE TO BE USED, NOT BELIEVED.

    -- PARAPHRASED BY H. THIEL IN "PRINCIPLES OF ECONOMETRICS"
 Job cpu time:  0 days 11 hours 24 minutes 35.2 seconds.
 File lengths (MBytes):  RWF=    244 Int=      0 D2E=      0 Chk=     25 Scr=      1
 Normal termination of Gaussian 09 at Thu Apr  9 00:15:39 2020.
