
    -----------------------------------------------------------------------
          Psi4: An Open-Source Ab Initio Electronic Structure Package
                               Psi4 1.3.2 release

                         Git: Rev {HEAD} ecbda83 


    R. M. Parrish, L. A. Burns, D. G. A. Smith, A. C. Simmonett,
    A. E. DePrince III, E. G. Hohenstein, U. Bozkaya, A. Yu. Sokolov,
    R. Di Remigio, R. M. Richard, J. F. Gonthier, A. M. James,
    H. R. McAlexander, A. Kumar, M. Saitow, X. Wang, B. P. Pritchard,
    P. Verma, H. F. Schaefer III, K. Patkowski, R. A. King, E. F. Valeev,
    F. A. Evangelista, J. M. Turney, T. D. Crawford, and C. D. Sherrill,
    J. Chem. Theory Comput. 13(7) pp 3185--3197 (2017).
    (doi: 10.1021/acs.jctc.7b00174)


                         Additional Contributions by
    P. Kraus, H. Kruse, M. H. Lechner, M. C. Schieber, R. A. Shaw,
    A. Alenaizan, R. Galvelis, Z. L. Glick, S. Lehtola, and J. P. Misiewicz

    -----------------------------------------------------------------------


    Psi4 started on: Saturday, 07 March 2020 10:34AM

    Process ID: 44150
    Host:       node37.bme.utexas.edu
    PSIDATADIR: /home/bdw2292/miniconda3/envs/p4env/share/psi4
    Memory:     500.0 MiB
    Threads:    1
    
  ==> Input File <==

--------------------------------------------------------------------------
molecule { 
0 1
 C    0.406195    5.310475    0.900790
 C    1.543770    4.857902    0.219070
 C    2.125565    3.620923    0.562554
 C    1.496023    2.912262    1.616295
 N    0.410767    3.332457    2.278531
 C   -0.120573    4.510029    1.920174
 C    3.338296    3.050723   -0.128387
 C    4.045818    3.664338   -1.176345
 C    5.132173    2.943004   -1.686260
 N    5.508518    1.744075   -1.250349
 C    4.761805    1.234880   -0.251680
 N    3.712799    1.834341    0.312410
 N    5.135148   -0.003743    0.198127
 C    4.422017   -1.246316    0.236369
 C    5.142358   -2.464429    0.418927
 C    4.392872   -3.651626    0.445628
 C    3.000817   -3.696953    0.310121
 C    2.307806   -2.492288    0.146203
 C    3.027663   -1.285826    0.098712
 N    0.890002   -2.364013   -0.012698
 C   -0.088924   -3.313652   -0.192925
 C   -1.468213   -2.833301   -0.599291
 C   -1.674289   -1.739152   -1.455444
 C   -2.968713   -1.331029   -1.783148
 C   -4.099295   -1.996504   -1.273546
 C   -3.878007   -3.094206   -0.419545
 C   -2.586590   -3.520682   -0.100095
 C   -5.512733   -1.503458   -1.588027
 N   -6.082011   -0.406815   -0.783560
 C   -5.597993    0.973813   -1.011365
 C   -4.446736    1.417525   -0.072209
 N   -4.744024    1.242683    1.368650
 C   -5.536254    2.295693    2.013532
 C   -5.185557   -0.153664    1.599232
 C   -6.322871   -0.634874    0.660206
 O    0.112253   -4.504894   -0.019619
 C    6.652679   -2.528500    0.568783
 H   -0.062487    6.257129    0.649080
 H    1.947519    5.481144   -0.575213
 H    1.897480    1.955940    1.940616
 H   -1.003189    4.820745    2.476705
 H    3.796047    4.633908   -1.589306
 H    5.732870    3.354357   -2.497086
 H    6.110846    0.002190    0.456821
 H    4.907593   -4.602643    0.577006
 H    2.463268   -4.637001    0.333308
 H    2.504089   -0.346792   -0.023637
 H    0.566507   -1.408543   -0.071269
 H   -0.816759   -1.214886   -1.869832
 H   -3.095131   -0.474183   -2.444794
 H   -4.724616   -3.630983    0.007945
 H   -2.424545   -4.373034    0.555100
 H   -5.543994   -1.178919   -2.638259
 H   -6.204764   -2.353265   -1.495699
 H   -5.369834    1.132382   -2.046287
 H   -6.804163    1.936227   -0.670256
 H   -4.205790    2.869609   -0.331445
 H   -3.489731    0.865095   -0.299745
 H   -6.554294    2.326316    1.609551
 H   -5.064258    3.272453    1.858320
 H   -5.590650    2.118814    3.093854
 H   -5.546013   -0.289348    2.834071
 H   -4.017855   -1.015923    1.371224
 H   -7.580080    0.238224    1.054975
 H   -6.593427   -1.666899    0.843670
 H    6.983410   -2.037266    1.494793
 H    7.161980   -2.032000   -0.269548
 H    7.036740   -3.557501    0.602235
}
memory 20GB
set_num_threads(6)
psi4_io.set_default_path("/scratch/bdw2292")
set freeze_core True
E, wfn = energy('mp2/6-311++G**',return_wfn=True)
oeprop(wfn,"WIBERG_LOWDIN_INDICES")
clean()
--------------------------------------------------------------------------

  Memory set to  18.626 GiB by Python driver.
  Threads set to 6 by Python driver.
    SCF Algorithm Type (re)set to DF.

*** tstart() called on node37.bme.utexas.edu
*** at Sat Mar  7 10:34:18 2020

   => Loading Basis Set <=

    Name: 6-311++G**
    Role: ORBITAL
    Keyword: BASIS
    atoms 1-4, 6-9, 11, 14-19, 21-28, 30-31, 33-35, 37 entry C          line   119 file /home/bdw2292/miniconda3/envs/p4env/share/psi4/basis/6-311ppgss.gbs 
    atoms 5, 10, 12-13, 20, 29, 32                     entry N          line   140 file /home/bdw2292/miniconda3/envs/p4env/share/psi4/basis/6-311ppgss.gbs 
    atoms 36                                           entry O          line   161 file /home/bdw2292/miniconda3/envs/p4env/share/psi4/basis/6-311ppgss.gbs 
    atoms 38-68                                        entry H          line    42 file /home/bdw2292/miniconda3/envs/p4env/share/psi4/basis/6-311ppgss.gbs 


         ---------------------------------------------------------
                                   SCF
               by Justin Turney, Rob Parrish, Andy Simmonett
                          and Daniel G. A. Smith
                              RHF Reference
                        6 Threads,  19073 MiB Core
         ---------------------------------------------------------

  ==> Geometry <==

    Molecular point group: c1
    Full point group: C1

    Geometry (in Angstrom), charge = 0, multiplicity = 1:

       Center              X                  Y                   Z               Mass       
    ------------   -----------------  -----------------  -----------------  -----------------
         C            0.277843768086     5.307588086337     0.831934254590    12.000000000000
         C            1.415418768086     4.855015086337     0.150214254590    12.000000000000
         C            1.997213768086     3.618036086337     0.493698254590    12.000000000000
         C            1.367671768086     2.909375086337     1.547439254590    12.000000000000
         N            0.282415768086     3.329570086337     2.209675254590    14.003074004430
         C           -0.248924231914     4.507142086337     1.851318254590    12.000000000000
         C            3.209944768086     3.047836086337    -0.197242745410    12.000000000000
         C            3.917466768086     3.661451086337    -1.245200745410    12.000000000000
         C            5.003821768086     2.940117086337    -1.755115745410    12.000000000000
         N            5.380166768086     1.741188086337    -1.319204745410    14.003074004430
         C            4.633453768086     1.231993086337    -0.320535745410    12.000000000000
         N            3.584447768086     1.831454086337     0.243554254590    14.003074004430
         N            5.006796768086    -0.006629913663     0.129271254590    14.003074004430
         C            4.293665768086    -1.249202913663     0.167513254590    12.000000000000
         C            5.014006768086    -2.467315913663     0.350071254590    12.000000000000
         C            4.264520768086    -3.654512913663     0.376772254590    12.000000000000
         C            2.872465768086    -3.699839913663     0.241265254590    12.000000000000
         C            2.179454768086    -2.495174913663     0.077347254590    12.000000000000
         C            2.899311768086    -1.288712913663     0.029856254590    12.000000000000
         N            0.761650768086    -2.366899913663    -0.081553745410    14.003074004430
         C           -0.217275231914    -3.316538913663    -0.261780745410    12.000000000000
         C           -1.596564231914    -2.836187913663    -0.668146745410    12.000000000000
         C           -1.802640231914    -1.742038913663    -1.524299745410    12.000000000000
         C           -3.097064231914    -1.333915913663    -1.852003745410    12.000000000000
         C           -4.227646231914    -1.999390913663    -1.342401745410    12.000000000000
         C           -4.006358231914    -3.097092913663    -0.488400745410    12.000000000000
         C           -2.714941231914    -3.523568913663    -0.168950745410    12.000000000000
         C           -5.641084231914    -1.506344913663    -1.656882745410    12.000000000000
         N           -6.210362231914    -0.409701913663    -0.852415745410    14.003074004430
         C           -5.726344231914     0.970926086337    -1.080220745410    12.000000000000
         C           -4.575087231914     1.414638086337    -0.141064745410    12.000000000000
         N           -4.872375231914     1.239796086337     1.299794254590    14.003074004430
         C           -5.664605231914     2.292806086337     1.944676254590    12.000000000000
         C           -5.313908231914    -0.156550913663     1.530376254590    12.000000000000
         C           -6.451222231914    -0.637760913663     0.591350254590    12.000000000000
         O           -0.016098231914    -4.507780913663    -0.088474745410    15.994914619570
         C            6.524327768086    -2.531386913663     0.499927254590    12.000000000000
         H           -0.190838231914     6.254242086337     0.580224254590     1.007825032230
         H            1.819167768086     5.478257086337    -0.644068745410     1.007825032230
         H            1.769128768086     1.953053086337     1.871760254590     1.007825032230
         H           -1.131540231914     4.817858086337     2.407849254590     1.007825032230
         H            3.667695768086     4.631021086337    -1.658161745410     1.007825032230
         H            5.604518768086     3.351470086337    -2.565941745410     1.007825032230
         H            5.982494768086    -0.000696913663     0.387965254590     1.007825032230
         H            4.779241768086    -4.605529913663     0.508150254590     1.007825032230
         H            2.334916768086    -4.639887913663     0.264452254590     1.007825032230
         H            2.375737768086    -0.349678913663    -0.092492745410     1.007825032230
         H            0.438155768086    -1.411429913663    -0.140124745410     1.007825032230
         H           -0.945110231914    -1.217772913663    -1.938687745410     1.007825032230
         H           -3.223482231914    -0.477069913663    -2.513649745410     1.007825032230
         H           -4.852967231914    -3.633869913663    -0.060910745410     1.007825032230
         H           -2.552896231914    -4.375920913663     0.486244254590     1.007825032230
         H           -5.672345231914    -1.181805913663    -2.707114745410     1.007825032230
         H           -6.333115231914    -2.356151913663    -1.564554745410     1.007825032230
         H           -5.498185231914     1.129495086337    -2.115142745410     1.007825032230
         H           -6.932514231914     1.933340086337    -0.739111745410     1.007825032230
         H           -4.334141231914     2.866722086337    -0.400300745410     1.007825032230
         H           -3.618082231914     0.862208086337    -0.368600745410     1.007825032230
         H           -6.682645231914     2.323429086337     1.540695254590     1.007825032230
         H           -5.192609231914     3.269566086337     1.789464254590     1.007825032230
         H           -5.719001231914     2.115927086337     3.024998254590     1.007825032230
         H           -5.674364231914    -0.292234913663     2.765215254590     1.007825032230
         H           -4.146206231914    -1.018809913663     1.302368254590     1.007825032230
         H           -7.708431231914     0.235337086337     0.986119254590     1.007825032230
         H           -6.721778231914    -1.669785913663     0.774814254590     1.007825032230
         H            6.855058768086    -2.040152913663     1.425937254590     1.007825032230
         H            7.033628768086    -2.034886913663    -0.338403745410     1.007825032230
         H            6.908388768086    -3.560387913663     0.533379254590     1.007825032230

  Running in c1 symmetry.

  Rotational constants: A =      0.00390  B =      0.00197  C =      0.00143 [cm^-1]
  Rotational constants: A =    117.06088  B =     59.18592  C =     42.81632 [MHz]
  Nuclear repulsion = 3706.088162436364655

  Charge       = 0
  Multiplicity = 1
  Electrons    = 262
  Nalpha       = 131
  Nbeta        = 131

  ==> Algorithm <==

  SCF Algorithm Type is DF.
  DIIS enabled.
  MOM disabled.
  Fractional occupation disabled.
  Guess Type is SAD.
  Energy threshold   = 1.00e-08
  Density threshold  = 1.00e-08
  Integral threshold = 0.00e+00

  ==> Primary Basis <==

  Basis Set: 6-311++G**
    Blend: 6-311++G**
    Number of shells: 525
    Number of basis function: 1031
    Number of Cartesian functions: 1068
    Spherical Harmonics?: true
    Max angular momentum: 2

   => Loading Basis Set <=

    Name: (6-311++G** AUX)
    Role: JKFIT
    Keyword: DF_BASIS_SCF
    atoms 1-4, 6-9, 11, 14-19, 21-28, 30-31, 33-35, 37 entry C          line   162 file /home/bdw2292/miniconda3/envs/p4env/share/psi4/basis/aug-cc-pvtz-jkfit.gbs 
    atoms 5, 10, 12-13, 20, 29, 32                     entry N          line   224 file /home/bdw2292/miniconda3/envs/p4env/share/psi4/basis/aug-cc-pvtz-jkfit.gbs 
    atoms 36                                           entry O          line   286 file /home/bdw2292/miniconda3/envs/p4env/share/psi4/basis/aug-cc-pvtz-jkfit.gbs 
    atoms 38-68                                        entry H          line    70 file /home/bdw2292/miniconda3/envs/p4env/share/psi4/basis/aug-cc-pvtz-jkfit.gbs 

  ==> Pre-Iterations <==

   -------------------------------------------------------
    Irrep   Nso     Nmo     Nalpha   Nbeta   Ndocc  Nsocc
   -------------------------------------------------------
     A       1031    1031       0       0       0       0
   -------------------------------------------------------
    Total    1031    1031     131     131     131       0
   -------------------------------------------------------

  ==> Integral Setup <==

  ==> DiskDFJK: Density-Fitted J/K Matrices <==

    J tasked:                  Yes
    K tasked:                  Yes
    wK tasked:                  No
    OpenMP threads:              6
    Integrals threads:           6
    Memory [MiB]:            14305
    Algorithm:                Core
    Integral Cache:           NONE
    Schwarz Cutoff:          1E-12
    Fitting Condition:       1E-10

   => Auxiliary Basis Set <=

  Basis Set: (6-311++G** AUX)
    Blend: AUG-CC-PVTZ-JKFIT
    Number of shells: 1544
    Number of basis function: 5274
    Number of Cartesian functions: 6552
    Spherical Harmonics?: true
    Max angular momentum: 4

  Minimum eigenvalue in the overlap matrix is 1.2699979531E-07.
  Using Symmetric Orthogonalization.

  SCF Guess: Superposition of Atomic Densities via on-the-fly atomic UHF.

  ==> Iterations <==

                           Total Energy        Delta E     RMS |[F,P]|

   @DF-RHF iter SAD: -1571.20488864276354   -1.57120e+03   0.00000e+00 
   @DF-RHF iter   1: -1571.30847778958150   -1.03589e-01   1.22118e-03 DIIS
   @DF-RHF iter   2: -1572.08152963936686   -7.73052e-01   6.55368e-04 DIIS
   @DF-RHF iter   3: -1572.28466573912920   -2.03136e-01   1.67848e-04 DIIS
   @DF-RHF iter   4: -1572.30253724125851   -1.78715e-02   6.66118e-05 DIIS
   @DF-RHF iter   5: -1572.30527625226523   -2.73901e-03   1.36417e-05 DIIS
   @DF-RHF iter   6: -1572.30543633754405   -1.60085e-04   5.94068e-06 DIIS
   @DF-RHF iter   7: -1572.30547272600711   -3.63885e-05   1.97557e-06 DIIS
   @DF-RHF iter   8: -1572.30547839911037   -5.67310e-06   7.85691e-07 DIIS
   @DF-RHF iter   9: -1572.30547930709963   -9.07989e-07   3.08756e-07 DIIS
   @DF-RHF iter  10: -1572.30547948746698   -1.80367e-07   1.47398e-07 DIIS
   @DF-RHF iter  11: -1572.30547952663846   -3.91715e-08   6.97596e-08 DIIS
   @DF-RHF iter  12: -1572.30547953764926   -1.10108e-08   2.91523e-08 DIIS
   @DF-RHF iter  13: -1572.30547953984023   -2.19097e-09   1.30012e-08 DIIS
   @DF-RHF iter  14: -1572.30547954034228   -5.02041e-10   6.05505e-09 DIIS
  Energy and wave function converged.


  ==> Post-Iterations <==

    Orbital Energies [Eh]
    ---------------------

    Doubly Occupied:                                                      

       1A    -20.524659     2A    -15.604273     3A    -15.582519  
       4A    -15.577898     5A    -15.577351     6A    -15.576717  
       7A    -15.575924     8A    -15.557350     9A    -11.367655  
      10A    -11.366965    11A    -11.332420    12A    -11.317488  
      13A    -11.312921    14A    -11.311043    15A    -11.308444  
      16A    -11.304350    17A    -11.300566    18A    -11.293813  
      19A    -11.293689    20A    -11.291941    21A    -11.285614  
      22A    -11.284257    23A    -11.274609    24A    -11.264872  
      25A    -11.264793    26A    -11.263526    27A    -11.260005  
      28A    -11.259438    29A    -11.256890    30A    -11.255594  
      31A    -11.253206    32A    -11.244857    33A    -11.241733  
      34A    -11.238097    35A    -11.231950    36A    -11.230907  
      37A    -11.220545    38A     -1.390325    39A     -1.346707  
      40A     -1.270243    41A     -1.252028    42A     -1.250606  
      43A     -1.240304    44A     -1.212266    45A     -1.203669  
      46A     -1.169506    47A     -1.138290    48A     -1.110846  
      49A     -1.073399    50A     -1.064431    51A     -1.044461  
      52A     -1.037536    53A     -1.032245    54A     -1.005332  
      55A     -1.003167    56A     -0.982138    57A     -0.946092  
      58A     -0.930320    59A     -0.923865    60A     -0.899878  
      61A     -0.869889    62A     -0.866475    63A     -0.854208  
      64A     -0.850055    65A     -0.840245    66A     -0.837814  
      67A     -0.823891    68A     -0.810179    69A     -0.779709  
      70A     -0.752833    71A     -0.738746    72A     -0.731557  
      73A     -0.716701    74A     -0.715512    75A     -0.710779  
      76A     -0.685208    77A     -0.681271    78A     -0.666720  
      79A     -0.665802    80A     -0.655326    81A     -0.654885  
      82A     -0.649883    83A     -0.638574    84A     -0.637406  
      85A     -0.626204    86A     -0.618418    87A     -0.614421  
      88A     -0.608431    89A     -0.606093    90A     -0.603022  
      91A     -0.600161    92A     -0.591643    93A     -0.589065  
      94A     -0.586837    95A     -0.585860    96A     -0.582506  
      97A     -0.579484    98A     -0.576107    99A     -0.566418  
     100A     -0.550540   101A     -0.547967   102A     -0.545212  
     103A     -0.539237   104A     -0.536181   105A     -0.529012  
     106A     -0.522877   107A     -0.511633   108A     -0.508734  
     109A     -0.508607   110A     -0.507386   111A     -0.503447  
     112A     -0.497857   113A     -0.487433   114A     -0.472002  
     115A     -0.450047   116A     -0.449561   117A     -0.435455  
     118A     -0.432108   119A     -0.425151   120A     -0.420862  
     121A     -0.414949   122A     -0.398033   123A     -0.397288  
     124A     -0.383747   125A     -0.377394   126A     -0.353597  
     127A     -0.349556   128A     -0.340836   129A     -0.316518  
     130A     -0.314522   131A     -0.288488  

    Virtual:                                                              

     132A      0.025860   133A      0.036307   134A      0.038623  
     135A      0.042684   136A      0.043780   137A      0.044947  
     138A      0.049108   139A      0.050337   140A      0.056590  
     141A      0.058536   142A      0.061321   143A      0.063727  
     144A      0.066134   145A      0.069759   146A      0.070692  
     147A      0.072735   148A      0.075037   149A      0.078244  
     150A      0.079971   151A      0.081222   152A      0.084293  
     153A      0.087411   154A      0.089190   155A      0.092172  
     156A      0.093456   157A      0.096992   158A      0.099151  
     159A      0.103497   160A      0.104271   161A      0.104936  
     162A      0.108643   163A      0.110614   164A      0.115194  
     165A      0.116363   166A      0.119739   167A      0.122301  
     168A      0.124210   169A      0.125345   170A      0.128082  
     171A      0.130180   172A      0.133367   173A      0.135427  
     174A      0.141173   175A      0.145356   176A      0.146664  
     177A      0.149102   178A      0.150033   179A      0.151966  
     180A      0.153035   181A      0.153992   182A      0.156099  
     183A      0.159089   184A      0.159729   185A      0.162311  
     186A      0.165013   187A      0.167626   188A      0.167776  
     189A      0.169231   190A      0.171835   191A      0.173597  
     192A      0.177463   193A      0.179452   194A      0.180528  
     195A      0.182008   196A      0.182963   197A      0.185144  
     198A      0.185248   199A      0.188460   200A      0.189772  
     201A      0.190380   202A      0.192347   203A      0.193876  
     204A      0.195960   205A      0.197553   206A      0.198860  
     207A      0.202733   208A      0.203611   209A      0.204530  
     210A      0.205659   211A      0.208519   212A      0.210652  
     213A      0.213005   214A      0.214792   215A      0.215690  
     216A      0.217286   217A      0.218488   218A      0.221277  
     219A      0.221962   220A      0.223064   221A      0.225998  
     222A      0.227890   223A      0.229483   224A      0.231000  
     225A      0.232134   226A      0.233915   227A      0.235986  
     228A      0.238187   229A      0.238519   230A      0.241403  
     231A      0.243202   232A      0.247053   233A      0.249290  
     234A      0.249575   235A      0.250134   236A      0.255692  
     237A      0.257791   238A      0.258518   239A      0.262525  
     240A      0.263583   241A      0.265123   242A      0.269183  
     243A      0.269356   244A      0.272655   245A      0.275682  
     246A      0.277657   247A      0.280165   248A      0.282574  
     249A      0.284122   250A      0.287666   251A      0.289598  
     252A      0.292370   253A      0.294137   254A      0.295800  
     255A      0.298115   256A      0.303481   257A      0.304725  
     258A      0.307767   259A      0.310507   260A      0.311567  
     261A      0.315708   262A      0.318975   263A      0.321235  
     264A      0.322413   265A      0.324159   266A      0.327528  
     267A      0.328332   268A      0.328977   269A      0.332540  
     270A      0.334585   271A      0.336279   272A      0.338512  
     273A      0.339544   274A      0.340649   275A      0.344242  
     276A      0.346763   277A      0.351350   278A      0.352598  
     279A      0.354772   280A      0.355050   281A      0.357740  
     282A      0.358367   283A      0.361138   284A      0.363538  
     285A      0.364892   286A      0.367965   287A      0.371759  
     288A      0.372384   289A      0.374006   290A      0.378121  
     291A      0.379477   292A      0.380083   293A      0.381059  
     294A      0.382978   295A      0.384069   296A      0.385752  
     297A      0.388828   298A      0.391353   299A      0.392983  
     300A      0.395201   301A      0.396842   302A      0.397441  
     303A      0.399434   304A      0.401010   305A      0.401668  
     306A      0.403508   307A      0.404518   308A      0.406249  
     309A      0.410146   310A      0.411436   311A      0.413836  
     312A      0.415178   313A      0.416134   314A      0.417857  
     315A      0.419375   316A      0.420191   317A      0.421744  
     318A      0.424416   319A      0.425004   320A      0.428290  
     321A      0.429971   322A      0.434639   323A      0.436541  
     324A      0.437225   325A      0.437921   326A      0.440487  
     327A      0.443166   328A      0.445107   329A      0.446762  
     330A      0.450021   331A      0.451859   332A      0.453327  
     333A      0.456527   334A      0.459034   335A      0.460698  
     336A      0.462442   337A      0.463898   338A      0.468356  
     339A      0.473721   340A      0.474971   341A      0.476890  
     342A      0.477915   343A      0.480566   344A      0.483296  
     345A      0.486517   346A      0.488805   347A      0.492060  
     348A      0.493267   349A      0.494596   350A      0.500653  
     351A      0.500808   352A      0.504053   353A      0.507068  
     354A      0.510802   355A      0.511970   356A      0.514452  
     357A      0.518238   358A      0.522086   359A      0.522271  
     360A      0.525321   361A      0.527875   362A      0.529252  
     363A      0.531890   364A      0.538976   365A      0.541304  
     366A      0.544668   367A      0.546770   368A      0.550048  
     369A      0.557420   370A      0.562053   371A      0.563357  
     372A      0.567490   373A      0.574513   374A      0.577670  
     375A      0.581241   376A      0.587056   377A      0.598044  
     378A      0.602884   379A      0.606921   380A      0.612421  
     381A      0.617695   382A      0.624056   383A      0.627557  
     384A      0.632860   385A      0.634654   386A      0.641214  
     387A      0.648209   388A      0.662237   389A      0.670667  
     390A      0.684001   391A      0.687618   392A      0.690938  
     393A      0.697795   394A      0.702692   395A      0.705080  
     396A      0.707362   397A      0.712348   398A      0.722707  
     399A      0.730938   400A      0.738380   401A      0.742583  
     402A      0.744756   403A      0.749676   404A      0.752426  
     405A      0.754352   406A      0.758955   407A      0.762352  
     408A      0.764607   409A      0.766869   410A      0.770345  
     411A      0.773021   412A      0.775014   413A      0.779470  
     414A      0.782450   415A      0.788118   416A      0.793423  
     417A      0.796012   418A      0.802476   419A      0.804706  
     420A      0.810973   421A      0.813079   422A      0.816128  
     423A      0.818884   424A      0.820561   425A      0.825366  
     426A      0.830469   427A      0.834055   428A      0.836375  
     429A      0.842432   430A      0.844876   431A      0.848995  
     432A      0.855016   433A      0.858200   434A      0.860879  
     435A      0.861803   436A      0.867903   437A      0.870518  
     438A      0.872588   439A      0.876199   440A      0.878582  
     441A      0.881055   442A      0.887157   443A      0.887925  
     444A      0.892583   445A      0.896758   446A      0.899151  
     447A      0.902017   448A      0.904395   449A      0.905478  
     450A      0.909188   451A      0.912244   452A      0.916139  
     453A      0.919911   454A      0.923828   455A      0.930864  
     456A      0.932167   457A      0.935945   458A      0.938900  
     459A      0.940627   460A      0.944430   461A      0.945295  
     462A      0.948590   463A      0.952102   464A      0.957012  
     465A      0.960135   466A      0.961497   467A      0.966455  
     468A      0.968176   469A      0.971036   470A      0.974023  
     471A      0.976001   472A      0.979997   473A      0.982479  
     474A      0.984276   475A      0.986347   476A      0.991608  
     477A      0.995359   478A      0.996677   479A      0.999795  
     480A      1.005315   481A      1.009859   482A      1.012052  
     483A      1.020436   484A      1.023939   485A      1.026508  
     486A      1.033232   487A      1.036027   488A      1.040213  
     489A      1.041660   490A      1.048373   491A      1.050524  
     492A      1.056765   493A      1.060840   494A      1.063569  
     495A      1.064155   496A      1.069378   497A      1.073312  
     498A      1.078564   499A      1.086313   500A      1.089080  
     501A      1.092180   502A      1.096697   503A      1.099978  
     504A      1.102443   505A      1.106625   506A      1.119544  
     507A      1.124076   508A      1.128026   509A      1.134404  
     510A      1.136024   511A      1.146575   512A      1.148063  
     513A      1.155358   514A      1.157391   515A      1.159022  
     516A      1.162414   517A      1.168823   518A      1.171399  
     519A      1.174160   520A      1.176683   521A      1.178674  
     522A      1.185366   523A      1.187666   524A      1.189048  
     525A      1.190103   526A      1.196521   527A      1.200906  
     528A      1.205698   529A      1.212012   530A      1.213846  
     531A      1.218192   532A      1.221797   533A      1.228640  
     534A      1.230317   535A      1.232132   536A      1.232683  
     537A      1.245096   538A      1.248023   539A      1.248408  
     540A      1.251758   541A      1.254896   542A      1.260052  
     543A      1.261963   544A      1.264981   545A      1.266672  
     546A      1.273446   547A      1.277908   548A      1.282115  
     549A      1.286402   550A      1.290991   551A      1.296464  
     552A      1.296704   553A      1.302735   554A      1.308872  
     555A      1.314067   556A      1.317109   557A      1.325081  
     558A      1.332411   559A      1.337588   560A      1.344809  
     561A      1.347573   562A      1.353390   563A      1.359477  
     564A      1.366589   565A      1.376853   566A      1.382801  
     567A      1.386718   568A      1.396623   569A      1.405039  
     570A      1.411604   571A      1.421637   572A      1.430533  
     573A      1.431633   574A      1.436345   575A      1.440096  
     576A      1.446502   577A      1.450574   578A      1.454377  
     579A      1.466808   580A      1.468329   581A      1.486081  
     582A      1.493226   583A      1.502325   584A      1.521067  
     585A      1.524880   586A      1.537417   587A      1.539692  
     588A      1.545415   589A      1.552154   590A      1.560711  
     591A      1.566050   592A      1.586964   593A      1.589862  
     594A      1.598961   595A      1.606328   596A      1.612807  
     597A      1.618686   598A      1.627336   599A      1.630564  
     600A      1.643051   601A      1.657939   602A      1.671481  
     603A      1.672771   604A      1.679138   605A      1.695100  
     606A      1.695847   607A      1.698778   608A      1.710597  
     609A      1.718080   610A      1.721737   611A      1.738895  
     612A      1.740769   613A      1.745963   614A      1.753911  
     615A      1.755567   616A      1.759671   617A      1.767259  
     618A      1.771029   619A      1.771435   620A      1.783860  
     621A      1.789655   622A      1.791055   623A      1.796408  
     624A      1.804532   625A      1.808180   626A      1.811685  
     627A      1.813703   628A      1.816044   629A      1.822137  
     630A      1.823853   631A      1.824793   632A      1.835510  
     633A      1.836804   634A      1.839069   635A      1.841812  
     636A      1.847065   637A      1.853278   638A      1.858427  
     639A      1.860123   640A      1.861973   641A      1.866663  
     642A      1.869397   643A      1.873355   644A      1.874202  
     645A      1.885542   646A      1.888994   647A      1.898813  
     648A      1.902148   649A      1.910036   650A      1.919715  
     651A      1.926226   652A      1.929574   653A      1.934107  
     654A      1.941381   655A      1.944879   656A      1.948936  
     657A      1.951634   658A      1.958642   659A      1.961070  
     660A      1.963932   661A      1.967178   662A      1.971715  
     663A      1.976445   664A      1.981788   665A      1.985128  
     666A      1.990757   667A      1.993683   668A      1.997017  
     669A      2.001047   670A      2.007875   671A      2.010621  
     672A      2.016976   673A      2.019961   674A      2.025504  
     675A      2.029363   676A      2.031498   677A      2.040828  
     678A      2.043310   679A      2.052800   680A      2.053583  
     681A      2.056802   682A      2.063647   683A      2.066356  
     684A      2.074638   685A      2.076036   686A      2.082041  
     687A      2.086180   688A      2.090396   689A      2.094391  
     690A      2.102601   691A      2.108501   692A      2.115862  
     693A      2.130937   694A      2.140523   695A      2.148488  
     696A      2.151176   697A      2.159074   698A      2.160961  
     699A      2.173629   700A      2.176278   701A      2.181567  
     702A      2.182394   703A      2.190901   704A      2.196391  
     705A      2.199272   706A      2.203680   707A      2.207722  
     708A      2.218168   709A      2.221888   710A      2.234643  
     711A      2.239926   712A      2.243507   713A      2.251238  
     714A      2.253787   715A      2.257360   716A      2.260914  
     717A      2.266045   718A      2.267846   719A      2.269844  
     720A      2.274592   721A      2.274781   722A      2.286334  
     723A      2.292561   724A      2.296249   725A      2.303360  
     726A      2.309172   727A      2.310956   728A      2.316977  
     729A      2.319100   730A      2.328354   731A      2.332474  
     732A      2.343414   733A      2.352627   734A      2.355264  
     735A      2.360797   736A      2.368842   737A      2.373984  
     738A      2.375911   739A      2.394851   740A      2.397784  
     741A      2.400152   742A      2.406303   743A      2.408415  
     744A      2.420211   745A      2.422622   746A      2.430485  
     747A      2.436818   748A      2.443640   749A      2.449413  
     750A      2.467622   751A      2.475007   752A      2.482970  
     753A      2.490090   754A      2.500819   755A      2.507602  
     756A      2.514259   757A      2.519280   758A      2.529963  
     759A      2.538439   760A      2.540324   761A      2.555050  
     762A      2.562344   763A      2.568525   764A      2.571905  
     765A      2.590424   766A      2.595360   767A      2.629357  
     768A      2.633039   769A      2.639890   770A      2.643853  
     771A      2.649565   772A      2.660477   773A      2.662647  
     774A      2.675803   775A      2.685715   776A      2.698421  
     777A      2.712205   778A      2.720019   779A      2.726730  
     780A      2.747200   781A      2.752429   782A      2.760596  
     783A      2.769854   784A      2.776161   785A      2.782413  
     786A      2.804189   787A      2.807631   788A      2.810034  
     789A      2.821483   790A      2.822292   791A      2.829030  
     792A      2.834638   793A      2.838191   794A      2.841520  
     795A      2.856115   796A      2.861745   797A      2.865467  
     798A      2.867310   799A      2.881755   800A      2.888987  
     801A      2.901224   802A      2.903789   803A      2.904619  
     804A      2.914976   805A      2.929237   806A      2.938585  
     807A      2.953222   808A      2.958635   809A      2.963236  
     810A      2.967494   811A      2.972120   812A      2.980094  
     813A      2.982788   814A      2.985437   815A      2.992576  
     816A      2.993692   817A      2.998565   818A      3.004464  
     819A      3.008985   820A      3.012247   821A      3.025532  
     822A      3.029807   823A      3.040937   824A      3.044023  
     825A      3.050338   826A      3.054509   827A      3.055672  
     828A      3.063780   829A      3.066863   830A      3.074592  
     831A      3.079448   832A      3.084811   833A      3.089135  
     834A      3.094266   835A      3.098751   836A      3.105187  
     837A      3.107934   838A      3.109837   839A      3.116552  
     840A      3.121569   841A      3.123681   842A      3.125136  
     843A      3.135427   844A      3.137228   845A      3.146135  
     846A      3.158486   847A      3.158790   848A      3.162719  
     849A      3.174687   850A      3.193434   851A      3.203038  
     852A      3.208108   853A      3.212091   854A      3.215638  
     855A      3.220442   856A      3.223503   857A      3.227863  
     858A      3.238214   859A      3.244888   860A      3.251692  
     861A      3.257310   862A      3.262676   863A      3.272974  
     864A      3.276256   865A      3.280690   866A      3.287173  
     867A      3.291171   868A      3.294519   869A      3.300469  
     870A      3.307703   871A      3.308674   872A      3.318223  
     873A      3.323416   874A      3.327786   875A      3.331889  
     876A      3.340130   877A      3.343494   878A      3.348637  
     879A      3.359914   880A      3.362003   881A      3.365342  
     882A      3.376434   883A      3.380028   884A      3.393104  
     885A      3.397867   886A      3.402103   887A      3.408985  
     888A      3.418977   889A      3.424113   890A      3.427445  
     891A      3.457784   892A      3.459146   893A      3.485338  
     894A      3.512989   895A      3.527409   896A      3.530305  
     897A      3.573685   898A      3.581118   899A      3.591632  
     900A      3.604260   901A      3.610843   902A      3.625984  
     903A      3.640354   904A      3.654438   905A      3.665097  
     906A      3.670562   907A      3.678194   908A      3.700444  
     909A      3.731393   910A      3.753640   911A      3.765113  
     912A      3.767469   913A      3.776989   914A      3.792792  
     915A      3.796791   916A      3.815815   917A      3.827490  
     918A      3.833511   919A      3.867068   920A      3.876091  
     921A      3.882668   922A      3.896449   923A      3.909446  
     924A      3.911919   925A      3.921893   926A      3.949112  
     927A      3.952242   928A      3.958143   929A      3.980526  
     930A      3.993793   931A      4.006980   932A      4.010434  
     933A      4.044830   934A      4.048958   935A      4.061299  
     936A      4.078416   937A      4.097000   938A      4.099116  
     939A      4.101829   940A      4.117541   941A      4.138642  
     942A      4.174666   943A      4.185641   944A      4.190944  
     945A      4.192671   946A      4.202603   947A      4.207943  
     948A      4.210288   949A      4.251224   950A      4.345898  
     951A      4.346968   952A      4.350263   953A      4.359324  
     954A      4.394074   955A      4.418894   956A      4.429593  
     957A      4.431575   958A      4.436848   959A      4.445641  
     960A      4.465567   961A      4.481836   962A      4.512511  
     963A      4.515620   964A      4.544317   965A      4.560359  
     966A      4.573665   967A      4.574397   968A      4.600600  
     969A      4.632061   970A      4.667195   971A      4.707402  
     972A      4.765911   973A      4.769075   974A      4.785317  
     975A      4.907526   976A      4.920698   977A      4.985243  
     978A      5.043477   979A      5.231361   980A      5.258133  
     981A      5.264480   982A      5.272720   983A      5.291609  
     984A      5.335794   985A      5.348362   986A      5.382481  
     987A      5.446547   988A      5.600124   989A      5.690849  
     990A      5.695408   991A      5.738894   992A      5.822147  
     993A      5.865008   994A      6.391259   995A     24.768160  
     996A     24.789568   997A     24.816716   998A     24.850457  
     999A     24.894609  1000A     24.936062  1001A     24.945558  
    1002A     25.006497  1003A     25.013414  1004A     25.035176  
    1005A     25.040045  1006A     25.073068  1007A     25.076660  
    1008A     25.090459  1009A     25.098858  1010A     25.110694  
    1011A     25.124064  1012A     25.130636  1013A     25.133955  
    1014A     25.141060  1015A     25.172721  1016A     25.199105  
    1017A     25.207010  1018A     25.229233  1019A     25.237787  
    1020A     25.248373  1021A     25.250433  1022A     25.313632  
    1023A     25.328254  1024A     36.944244  1025A     36.985941  
    1026A     37.008879  1027A     37.066849  1028A     37.082278  
    1029A     37.127022  1030A     37.160654  1031A     51.757520  

    Final Occupation by Irrep:
              A 
    DOCC [   131 ]

  @DF-RHF Final Energy: -1572.30547954034228

   => Energetics <=

    Nuclear Repulsion Energy =           3706.0881624363646552
    One-Electron Energy =               -9510.1450773091801238
    Two-Electron Energy =                4231.7514353324731928
    Total Energy =                      -1572.3054795403422759

Computation Completed


Properties will be evaluated at   0.000000,   0.000000,   0.000000 [a0]

Properties computed using the SCF density matrix

  Nuclear Dipole Moment: [e a0]
     X:   -35.2248      Y:     5.9212      Z:     2.6220

  Electronic Dipole Moment: [e a0]
     X:    35.4096      Y:    -3.6074      Z:    -3.6183

  Dipole Moment: [e a0]
     X:     0.1848      Y:     2.3138      Z:    -0.9963     Total:     2.5259

  Dipole Moment: [D]
     X:     0.4697      Y:     5.8811      Z:    -2.5323     Total:     6.4203


*** tstop() called on node37.bme.utexas.edu at Sat Mar  7 10:53:05 2020
Module time:
	user time   =    6266.90 seconds =     104.45 minutes
	system time =     170.50 seconds =       2.84 minutes
	total time  =       1127 seconds =      18.78 minutes
Total time:
	user time   =    6266.90 seconds =     104.45 minutes
	system time =     170.50 seconds =       2.84 minutes
	total time  =       1127 seconds =      18.78 minutes

*** tstart() called on node37.bme.utexas.edu
*** at Sat Mar  7 10:53:05 2020


  //>>>>>>>>>>>>>>>>>>>>>>>>>>>>>>>>>>>//
  //               DFMP2               //
  //<<<<<<<<<<<<<<<<<<<<<<<<<<<<<<<<<<<//

   => Loading Basis Set <=

    Name: (6-311++G** AUX)
    Role: RIFIT
    Keyword: DF_BASIS_MP2
    atoms 1-4, 6-9, 11, 14-19, 21-28, 30-31, 33-35, 37 entry C          line   148 file /home/bdw2292/miniconda3/envs/p4env/share/psi4/basis/aug-cc-pvtz-ri.gbs 
    atoms 5, 10, 12-13, 20, 29, 32                     entry N          line   206 file /home/bdw2292/miniconda3/envs/p4env/share/psi4/basis/aug-cc-pvtz-ri.gbs 
    atoms 36                                           entry O          line   264 file /home/bdw2292/miniconda3/envs/p4env/share/psi4/basis/aug-cc-pvtz-ri.gbs 
    atoms 38-68                                        entry H          line    30 file /home/bdw2292/miniconda3/envs/p4env/share/psi4/basis/aug-cc-pvtz-ri.gbs 

	 --------------------------------------------------------
	                          DF-MP2                         
	      2nd-Order Density-Fitted Moller-Plesset Theory     
	              RMP2 Wavefunction,   6 Threads             
	                                                         
	        Rob Parrish, Justin Turney, Andy Simmonett,      
	           Ed Hohenstein, and C. David Sherrill          
	 --------------------------------------------------------

   => Auxiliary Basis Set <=

  Basis Set: (6-311++G** AUX)
    Blend: AUG-CC-PVTZ-RI
    Number of shells: 1470
    Number of basis function: 5348
    Number of Cartesian functions: 6737
    Spherical Harmonics?: true
    Max angular momentum: 4

	 --------------------------------------------------------
	                 NBF =  1031, NAUX =  5348
	 --------------------------------------------------------
	   CLASS    FOCC     OCC    AOCC    AVIR     VIR    FVIR
	   PAIRS      37     131      94     900     900       0
	 --------------------------------------------------------

	-----------------------------------------------------------
	 ==================> DF-MP2 Energies <==================== 
	-----------------------------------------------------------
	 Reference Energy          =   -1572.3054795403422759 [Eh]
	 Singles Energy            =      -0.0000000000000000 [Eh]
	 Same-Spin Energy          =      -1.4700756846316443 [Eh]
	 Opposite-Spin Energy      =      -4.0473570789304132 [Eh]
	 Correlation Energy        =      -5.5174327635620575 [Eh]
	 Total Energy              =   -1577.8229123039043316 [Eh]
	-----------------------------------------------------------
	 ================> DF-SCS-MP2 Energies <================== 
	-----------------------------------------------------------
	 SCS Same-Spin Scale       =       0.3333333333333333 [-]
	 SCS Opposite-Spin Scale   =       1.2000000000000000 [-]
	 SCS Same-Spin Energy      =      -0.4900252282105481 [Eh]
	 SCS Opposite-Spin Energy  =      -4.8568284947164955 [Eh]
	 SCS Correlation Energy    =      -5.3468537229270439 [Eh]
	 SCS Total Energy          =   -1577.6523332632693837 [Eh]
	-----------------------------------------------------------


*** tstop() called on node37.bme.utexas.edu at Sat Mar  7 11:01:57 2020
Module time:
	user time   =    2857.22 seconds =      47.62 minutes
	system time =      84.05 seconds =       1.40 minutes
	total time  =        532 seconds =       8.87 minutes
Total time:
	user time   =    9124.12 seconds =     152.07 minutes
	system time =     254.55 seconds =       4.24 minutes
	total time  =       1659 seconds =      27.65 minutes


Properties will be evaluated at   0.000000,   0.000000,   0.000000 [a0]
OEProp: No title given, name of density matrix used for the following properties is 'SCF density'


  Wiberg Bond Indices using Orthogonal Lowdin Orbitals:

  Irrep: 1 Size: 68 x 68

                 1                   2                   3                   4                   5

    1     0.00000000000000     1.46856427122221     0.12550450439022     0.14031471230829     0.12511254570760
    2     1.46856427122221     0.00000000000000     1.39950475733744     0.12711447281546     0.12252093076665
    3     0.12550450439022     1.39950475733744     0.00000000000000     1.36161099417574     0.12047050908745
    4     0.14031471230829     0.12711447281546     1.36161099417574     0.00000000000000     1.66973415485946
    5     0.12511254570760     0.12252093076665     0.12047050908745     1.66973415485946     0.00000000000000
    6     1.46222605188930     0.13806815790668     0.13555502547172     0.15378872111571     1.63786022144173
    7     0.01482974479459     0.10381270313140     1.02485063233537     0.10420305179698     0.01410374577626
    8     0.00362404722028     0.04198790087206     0.09841730819444     0.02378714864053     0.00219233710432
    9     0.00037140019687     0.00474240249336     0.01486288613316     0.00405797741355     0.00070077438017
   10     0.00048545192967     0.00583267255988     0.00612238427288     0.00630434695530     0.00031129474074
   11     0.00096825695395     0.00343895132584     0.01858747794353     0.00736987432573     0.00047193023458
   12     0.00285904527343     0.02203994072302     0.12164774544668     0.06622424399172     0.00429061810144
   13     0.00011059981978     0.00040093756284     0.00179036116855     0.00076291131973     0.00005902544174
   14     0.00003669407691     0.00009485597604     0.00055961826934     0.00068300069734     0.00005836138385
   15     0.00000952966934     0.00002814201541     0.00008357692318     0.00008249002858     0.00000637031230
   16     0.00000237127271     0.00000479519889     0.00003305695902     0.00017443321681     0.00000409761696
   17     0.00000649062123     0.00001379950490     0.00004958722585     0.00010447764450     0.00000617009738
   18     0.00002068499895     0.00002464571154     0.00014661147196     0.00032712146959     0.00005397438862
   19     0.00015773721179     0.00015333955402     0.00132588530583     0.00303889707401     0.00024292132591
   20     0.00001543107009     0.00000855888037     0.00003620503274     0.00014383913701     0.00002921781318
   21     0.00000260270653     0.00000191003422     0.00000745492298     0.00003112453230     0.00000555808272
   22     0.00000443414847     0.00000365445885     0.00000587952389     0.00001286177785     0.00000634988677
   23     0.00003274666135     0.00001589442210     0.00001661850317     0.00004481615403     0.00002292464190
   24     0.00000996135772     0.00001008211433     0.00001124028919     0.00001702887397     0.00000954587193
   25     0.00000165457851     0.00000129409000     0.00000303392565     0.00001101340676     0.00000363254587
   26     0.00000054343522     0.00000057728662     0.00000403268418     0.00001521705886     0.00000149259451
   27     0.00000056143736     0.00000075624813     0.00000333395021     0.00001103098452     0.00000194531267
   28     0.00000158086109     0.00000052783897     0.00000070394396     0.00000244960611     0.00000338478061
   29     0.00002014250674     0.00000245756745     0.00000134956474     0.00000417020747     0.00000606647302
   30     0.00003621185917     0.00000662240118     0.00000460012250     0.00002466054514     0.00002365984635
   31     0.00014163208145     0.00009901195188     0.00014412837745     0.00006756424882     0.00023341382261
   32     0.00004499080537     0.00002212476671     0.00001979910295     0.00002730850048     0.00007397481935
   33     0.00004469291559     0.00002721275483     0.00004816013784     0.00002304803523     0.00008614980230
   34     0.00001104700565     0.00000529072892     0.00000493051141     0.00002255741383     0.00004291362680
   35     0.00000556799811     0.00000089497230     0.00000103585661     0.00000615386576     0.00001467731786
   36     0.00000049906114     0.00000048498387     0.00000398641940     0.00002409602400     0.00000217514641
   37     0.00000216117479     0.00000651263684     0.00003091386388     0.00001803184037     0.00000190312996
   38     0.88659022170708     0.07952498216475     0.01187428785424     0.00629153618772     0.01074084967350
   39     0.07799200553932     0.87094257960343     0.07277120189144     0.01163652141165     0.00393975650718
   40     0.00570687239268     0.01088332702688     0.07019835613571     0.85534392088080     0.08554393190787
   41     0.07756756351384     0.01195236597928     0.00610445662655     0.01580615942032     0.08791876535397
   42     0.00111448384875     0.01428009084993     0.01425233337241     0.00137603405957     0.00029839911121
   43     0.00004582638938     0.00028839918842     0.00146029297696     0.00031895867411     0.00008035218518
   44     0.00002787079382     0.00007946143913     0.00031224574339     0.00009899227107     0.00001195609308
   45     0.00000027731384     0.00000106367892     0.00000696784919     0.00000914548803     0.00000037735477
   46     0.00000030739090     0.00000106704170     0.00000328083337     0.00000579686422     0.00000085181116
   47     0.00010844126756     0.00011459378322     0.00108341651605     0.00209192208503     0.00011041527080
   48     0.00008148572730     0.00001700453199     0.00004906807927     0.00016933816686     0.00006462205786
   49     0.00001165938511     0.00000676245841     0.00000936644600     0.00002503645296     0.00001002927443
   50     0.00000255382794     0.00000325642259     0.00000524227065     0.00000827366120     0.00000114521425
   51     0.00000007116948     0.00000006906246     0.00000028724730     0.00000055769468     0.00000019305504
   52     0.00000004308380     0.00000005964520     0.00000024400288     0.00000081485790     0.00000025903426
   53     0.00000021424016     0.00000016220988     0.00000020069777     0.00000059026469     0.00000028019702
   54     0.00000089728674     0.00000007901350     0.00000004183224     0.00000012815719     0.00000012961716
   55     0.00000226426206     0.00000130528416     0.00000054933459     0.00000058582001     0.00000094175852
   56     0.00000387293243     0.00000033667631     0.00000173559183     0.00001308997499     0.00000896820976
   57     0.00015119391182     0.00001633060830     0.00007266657389     0.00002704052130     0.00006781705220
   58     0.00001226358607     0.00001380224008     0.00000578763248     0.00003811414752     0.00010179873754
   59     0.00000624359380     0.00000033981107     0.00000061428023     0.00000204505554     0.00000833977480
   60     0.00003386183788     0.00000959779417     0.00003788945322     0.00001680208225     0.00004380709084
   61     0.00000404863366     0.00000294456280     0.00000254455708     0.00000189356864     0.00001412741637
   62     0.00000093536163     0.00000035202772     0.00000058230317     0.00000194078364     0.00000368915988
   63     0.00000280166585     0.00000288397938     0.00000167099503     0.00001490788949     0.00002499783305
   64     0.00000523066201     0.00000070957084     0.00000060710807     0.00000158119509     0.00000399202935
   65     0.00000119973491     0.00000025320176     0.00000022262348     0.00000054076988     0.00000054683174
   66     0.00000045133482     0.00000161706987     0.00000637835947     0.00000476203205     0.00000041506342
   67     0.00000093168510     0.00000211466660     0.00001318026342     0.00000629235809     0.00000050127147
   68     0.00000024814887     0.00000066982447     0.00000393462261     0.00000245720711     0.00000027028855

                 6                   7                   8                   9                  10

    1     1.46222605188930     0.01482974479459     0.00362404722028     0.00037140019687     0.00048545192967
    2     0.13806815790668     0.10381270313140     0.04198790087206     0.00474240249336     0.00583267255988
    3     0.13555502547172     1.02485063233537     0.09841730819444     0.01486288613316     0.00612238427288
    4     0.15378872111571     0.10420305179698     0.02378714864053     0.00405797741355     0.00630434695530
    5     1.63786022144173     0.01410374577626     0.00219233710432     0.00070077438017     0.00031129474074
    6     0.00000000000000     0.00995282049967     0.00703284642085     0.00122493734865     0.00366678109592
    7     0.00995282049967     0.00000000000000     1.38672738737740     0.14565841808802     0.11654668645192
    8     0.00703284642085     1.38672738737740     0.00000000000000     1.44493504330159     0.12752017326728
    9     0.00122493734865     0.14565841808802     1.44493504330159     0.00000000000000     1.64976225979013
   10     0.00366678109592     0.11654668645192     0.12752017326728     1.64976225979013     0.00000000000000
   11     0.00089563210872     0.14414460817682     0.12728129725824     0.15554071123940     1.54032113434721
   12     0.00617357522364     1.52837560439288     0.12172003066519     0.11746751613370     0.11456289695822
   13     0.00005796503256     0.01909411571183     0.01338905304277     0.02117337541251     0.15560411076361
   14     0.00003215934212     0.00316175331446     0.00377686440816     0.00320789065447     0.02301537327249
   15     0.00000679354591     0.00060456083606     0.00083799146026     0.00064305698073     0.00314522017445
   16     0.00000180116438     0.00014283971264     0.00017648425930     0.00013778810266     0.00057475839719
   17     0.00000544449716     0.00026242092423     0.00054765991464     0.00025189062720     0.00097121795635
   18     0.00001452499412     0.00046983344205     0.00021380368469     0.00018872980190     0.00037888617915
   19     0.00010601013976     0.00562968961487     0.00206609532326     0.00158929072298     0.00540102370396
   20     0.00000949689771     0.00009106522422     0.00002837250846     0.00002235822351     0.00006301270096
   21     0.00000207728528     0.00001419889183     0.00000777064785     0.00000532613061     0.00001573680473
   22     0.00000327664384     0.00000523297982     0.00000171911837     0.00000127947282     0.00000410952306
   23     0.00001915926221     0.00001585171712     0.00001256846873     0.00000296901664     0.00000324098092
   24     0.00001018033929     0.00000543857337     0.00000128839091     0.00000071906215     0.00000173432470
   25     0.00000422714651     0.00000076145180     0.00000052234264     0.00000025755660     0.00000045322310
   26     0.00000156558276     0.00000105247979     0.00000023321990     0.00000023995648     0.00000032004805
   27     0.00000091604307     0.00000238351467     0.00000079743678     0.00000057442784     0.00000253309576
   28     0.00000518019882     0.00000017566075     0.00000007136085     0.00000003523129     0.00000009683378
   29     0.00005989124602     0.00000022368176     0.00000009533730     0.00000002739008     0.00000005819902
   30     0.00011398081741     0.00000054555830     0.00000023352240     0.00000008328344     0.00000015367289
   31     0.00041745567766     0.00001061573845     0.00000778149231     0.00000165156651     0.00000284385736
   32     0.00015913426914     0.00000154597259     0.00000241716928     0.00000040652435     0.00000087777766
   33     0.00017956982059     0.00000271353599     0.00000439277969     0.00000058372351     0.00000246189045
   34     0.00003557785244     0.00000074423994     0.00000044622428     0.00000013178079     0.00000009786303
   35     0.00004746954544     0.00000023680528     0.00000008912827     0.00000001796790     0.00000003147786
   36     0.00000082262426     0.00000696740373     0.00000391046106     0.00000328472878     0.00001104610399
   37     0.00000181518620     0.00016370962289     0.00015461148157     0.00015759799768     0.00099193360928
   38     0.08244029625696     0.00131891120069     0.00025845674645     0.00004090419761     0.00003033332615
   39     0.01170344188425     0.01625385824009     0.01503630448649     0.00116258938042     0.00040980248818
   40     0.01477768832442     0.01656534812949     0.00180677933687     0.00044913726280     0.00065184605107
   41     0.87944771235705     0.00056058557577     0.00027565817498     0.00005339727767     0.00011337100471
   42     0.00050354084529     0.07532568083617     0.87555039701770     0.08030965072377     0.01027644481152
   43     0.00004477728866     0.01182486516598     0.07679771570292     0.87571648998811     0.08918945313274
   44     0.00001752506961     0.00208362173962     0.00285489114134     0.00274623958209     0.02408562748979
   45     0.00000024332988     0.00002278006309     0.00002297321193     0.00001945553605     0.00005786372943
   46     0.00000033103049     0.00002082873562     0.00001924548955     0.00001456366730     0.00004271877710
   47     0.00008049953808     0.00381890233920     0.00083472839140     0.00082818596242     0.00108810591235
   48     0.00002190449875     0.00003983038156     0.00001996837900     0.00001827362018     0.00000993377246
   49     0.00000544763825     0.00000983280661     0.00001076463177     0.00000360289800     0.00000116772753
   50     0.00000249731135     0.00000188989764     0.00000070631848     0.00000008461362     0.00000013571263
   51     0.00000017687047     0.00000014744332     0.00000001509379     0.00000001018712     0.00000003874141
   52     0.00000007387099     0.00000031808096     0.00000005765129     0.00000005472019     0.00000013276500
   53     0.00000047794092     0.00000002561014     0.00000001344605     0.00000000852608     0.00000000877087
   54     0.00000237514842     0.00000001380266     0.00000000636990     0.00000000543552     0.00000000994597
   55     0.00000249860942     0.00000006922461     0.00000003670077     0.00000000945550     0.00000001551083
   56     0.00001721923403     0.00000022397628     0.00000003472610     0.00000000952698     0.00000001949623
   57     0.00028518145680     0.00000383202520     0.00000390660511     0.00000071990364     0.00000150007399
   58     0.00004301420406     0.00000244857636     0.00000094189100     0.00000015337377     0.00000010034911
   59     0.00003151450108     0.00000008501566     0.00000005186440     0.00000001405968     0.00000002925393
   60     0.00011874358640     0.00000196343354     0.00000333222713     0.00000042222007     0.00000194980626
   61     0.00003727224131     0.00000034230842     0.00000023175275     0.00000002891407     0.00000011368395
   62     0.00000176849003     0.00000005248480     0.00000005274857     0.00000001176214     0.00000001088036
   63     0.00000984067267     0.00000041876263     0.00000017587745     0.00000005905642     0.00000005290803
   64     0.00003437772707     0.00000009469882     0.00000007712211     0.00000001197190     0.00000002886959
   65     0.00000217514894     0.00000003193510     0.00000001913247     0.00000000497664     0.00000000616491
   66     0.00000023350292     0.00003224592799     0.00005697749347     0.00003006046381     0.00027485761696
   67     0.00000033571034     0.00005525876800     0.00008476232552     0.00007669620175     0.00064696735757
   68     0.00000018940058     0.00001745598172     0.00001338513493     0.00000562148842     0.00003946733505

                11                  12                  13                  14                  15

    1     0.00096825695395     0.00285904527343     0.00011059981978     0.00003669407691     0.00000952966934
    2     0.00343895132584     0.02203994072302     0.00040093756284     0.00009485597604     0.00002814201541
    3     0.01858747794353     0.12164774544668     0.00179036116855     0.00055961826934     0.00008357692318
    4     0.00736987432573     0.06622424399172     0.00076291131973     0.00068300069734     0.00008249002858
    5     0.00047193023458     0.00429061810144     0.00005902544174     0.00005836138385     0.00000637031230
    6     0.00089563210872     0.00617357522364     0.00005796503256     0.00003215934212     0.00000679354591
    7     0.14414460817682     1.52837560439288     0.01909411571183     0.00316175331446     0.00060456083606
    8     0.12728129725824     0.12172003066519     0.01338905304277     0.00377686440816     0.00083799146026
    9     0.15554071123940     0.11746751613370     0.02117337541251     0.00320789065447     0.00064305698073
   10     1.54032113434721     0.11456289695822     0.15560411076361     0.02301537327249     0.00314522017445
   11     0.00000000000000     1.56911994053241     1.21893979912525     0.08620795964895     0.01663708056096
   12     1.56911994053241     0.00000000000000     0.14404030350934     0.02961606471137     0.00328837837598
   13     1.21893979912525     0.14404030350934     0.00000000000000     1.14144829688511     0.11036547881821
   14     0.08620795964895     0.02961606471137     1.14144829688511     0.00000000000000     1.31231622474028
   15     0.01663708056096     0.00328837837598     0.11036547881821     1.31231622474028     0.00000000000000
   16     0.00245013663827     0.00096096215150     0.01485851608289     0.12718631733144     1.44407925618485
   17     0.00302457181180     0.00123276729978     0.01513456675021     0.11813900175098     0.12533552522164
   18     0.00294028128315     0.00270920848927     0.01413397069455     0.12318625519214     0.11937289308521
   19     0.03000919262012     0.03592075310873     0.11793538352563     1.39890490425817     0.11757646176409
   20     0.00041924611096     0.00059920945260     0.00141174085994     0.01507251005232     0.01103953164629
   21     0.00007437670777     0.00006203445543     0.00032838145443     0.00279865498960     0.00581544620140
   22     0.00001457599174     0.00001087833172     0.00005801433661     0.00036045627480     0.00034192254552
   23     0.00001127083967     0.00003687776551     0.00001747231970     0.00013160418978     0.00035456033638
   24     0.00000133004931     0.00000313267161     0.00000234590079     0.00001340775258     0.00003608626141
   25     0.00000090164775     0.00000095840955     0.00000169548791     0.00002431689186     0.00014578724146
   26     0.00000075525173     0.00000072573447     0.00000261205507     0.00001779916869     0.00003189388296
   27     0.00000369789115     0.00000310866961     0.00001470834880     0.00009991086220     0.00029641668760
   28     0.00000013761130     0.00000019420665     0.00000016863038     0.00000226491082     0.00001064378026
   29     0.00000009865625     0.00000010365511     0.00000012303123     0.00000146050262     0.00000800838125
   30     0.00000017414759     0.00000039131763     0.00000008447009     0.00000042523662     0.00000127672571
   31     0.00000081759683     0.00000553278748     0.00000025443018     0.00000071596990     0.00000049097410
   32     0.00000038766877     0.00000163296749     0.00000010807249     0.00000098437466     0.00000050612363
   33     0.00000040379894     0.00000251998308     0.00000005257024     0.00000026129952     0.00000011409640
   34     0.00000023909524     0.00000092912953     0.00000007124347     0.00000071107903     0.00000077023819
   35     0.00000006127403     0.00000013469391     0.00000004996006     0.00000045079186     0.00000109590198
   36     0.00004341291915     0.00003594450359     0.00018858952462     0.00104588656459     0.00336276775740
   37     0.00379828294344     0.00079831208610     0.03849274393890     0.09639226896970     1.06022740202368
   38     0.00009513528801     0.00032011998238     0.00001712946015     0.00000762400270     0.00000102334420
   39     0.00029289395301     0.00111127712060     0.00007229839481     0.00002123314865     0.00000371347638
   40     0.00305451512450     0.02872480125957     0.00039700778602     0.00043635959299     0.00003360423589
   41     0.00004497006952     0.00026168983852     0.00000534157976     0.00000314400507     0.00000052623788
   42     0.00613458036014     0.01049246278456     0.00071226243696     0.00014899886456     0.00003989772889
   43     0.01566973028382     0.00411474077170     0.00139978658807     0.00037095715354     0.00007249305476
   44     0.07513470108046     0.01440065189552     0.93625768083153     0.06034467949162     0.01538851004311
   45     0.00036599323042     0.00008575267755     0.00113552834308     0.01143104938465     0.07490768713490
   46     0.00013467468714     0.00009157278043     0.00062490633489     0.00526145639552     0.01061312553866
   47     0.01168492307932     0.02234537415998     0.01717202481259     0.07446194944685     0.00991874502572
   48     0.00013021774765     0.00024299224647     0.00018598320937     0.00210185298114     0.00113181936050
   49     0.00000646293355     0.00001970400628     0.00001076915099     0.00004511175674     0.00012216595135
   50     0.00000019103372     0.00000083132004     0.00000035941916     0.00000167614576     0.00000179574696
   51     0.00000015352347     0.00000012393494     0.00000049864655     0.00000283746517     0.00000343896168
   52     0.00000077696046     0.00000059149401     0.00000265735225     0.00001615349016     0.00001931775398
   53     0.00000002667105     0.00000003303063     0.00000005067238     0.00000040985483     0.00000147034478
   54     0.00000001681045     0.00000001676866     0.00000004410030     0.00000032395352     0.00000158258127
   55     0.00000001253520     0.00000005122627     0.00000000973662     0.00000006672871     0.00000014548649
   56     0.00000005501777     0.00000016208820     0.00000002290161     0.00000009637317     0.00000037505927
   57     0.00000033642842     0.00000275907289     0.00000001741626     0.00000004106498     0.00000014231138
   58     0.00000015226368     0.00000069478071     0.00000011788609     0.00000052358466     0.00000047917872
   59     0.00000002598634     0.00000007129553     0.00000001110714     0.00000004949281     0.00000002224297
   60     0.00000026635402     0.00000177031758     0.00000001847820     0.00000002854373     0.00000000949748
   61     0.00000002780319     0.00000017913996     0.00000000485230     0.00000001492454     0.00000001425371
   62     0.00000001170403     0.00000006035852     0.00000000693139     0.00000006765593     0.00000013187295
   63     0.00000015991091     0.00000106579164     0.00000010753820     0.00000070373213     0.00000225321411
   64     0.00000001900723     0.00000004754067     0.00000001276391     0.00000011252381     0.00000046941681
   65     0.00000001129918     0.00000002651582     0.00000001494696     0.00000008725599     0.00000006868171
   66     0.00066728629180     0.00017053224655     0.00862372699111     0.01635091322533     0.05851674796132
   67     0.00113837644505     0.00032308858278     0.01159784487562     0.01670652878012     0.05803478947324
   68     0.00024156594888     0.00006760043720     0.00203144613071     0.00891538213729     0.05950489937553

                16                  17                  18                  19                  20

    1     0.00000237127271     0.00000649062123     0.00002068499895     0.00015773721179     0.00001543107009
    2     0.00000479519889     0.00001379950490     0.00002464571154     0.00015333955402     0.00000855888037
    3     0.00003305695902     0.00004958722585     0.00014661147196     0.00132588530583     0.00003620503274
    4     0.00017443321681     0.00010447764450     0.00032712146959     0.00303889707401     0.00014383913701
    5     0.00000409761696     0.00000617009738     0.00005397438862     0.00024292132591     0.00002921781318
    6     0.00000180116438     0.00000544449716     0.00001452499412     0.00010601013976     0.00000949689771
    7     0.00014283971264     0.00026242092423     0.00046983344205     0.00562968961487     0.00009106522422
    8     0.00017648425930     0.00054765991464     0.00021380368469     0.00206609532326     0.00002837250846
    9     0.00013778810266     0.00025189062720     0.00018872980190     0.00158929072298     0.00002235822351
   10     0.00057475839719     0.00097121795635     0.00037888617915     0.00540102370396     0.00006301270096
   11     0.00245013663827     0.00302457181180     0.00294028128315     0.03000919262012     0.00041924611096
   12     0.00096096215150     0.00123276729978     0.00270920848927     0.03592075310873     0.00059920945260
   13     0.01485851608289     0.01513456675021     0.01413397069455     0.11793538352563     0.00141174085994
   14     0.12718631733144     0.11813900175098     0.12318625519214     1.39890490425817     0.01507251005232
   15     1.44407925618485     0.12533552522164     0.11937289308521     0.11757646176409     0.01103953164629
   16     0.00000000000000     1.44358180787934     0.13289021616778     0.12436199492310     0.01368269843840
   17     1.44358180787934     0.00000000000000     1.39932143291653     0.12098147954733     0.10408944558216
   18     0.13289021616778     1.39932143291653     0.00000000000000     1.36406743735320     1.12621282687628
   19     0.12436199492310     0.12098147954733     1.36406743735320     0.00000000000000     0.12425479699171
   20     0.01368269843840     0.10408944558216     1.12621282687628     0.12425479699171     0.00000000000000
   21     0.00283806692625     0.03185609334115     0.08645407649999     0.02258116927147     1.31526378106887
   22     0.00035863616089     0.00337046623568     0.01443244245006     0.00208408959501     0.10427058556389
   23     0.00016142988934     0.00122318062610     0.00399167364221     0.00131410047694     0.04211357682325
   24     0.00002253035258     0.00016082297780     0.00043413829043     0.00015579588192     0.00367064793076
   25     0.00002591683828     0.00024971592455     0.00045564730114     0.00021649588115     0.00338062496665
   26     0.00002167603312     0.00013903727467     0.00048574304578     0.00010994333405     0.00243787618408
   27     0.00010410458440     0.00089626658931     0.00230470185958     0.00064754552990     0.01764335075360
   28     0.00000248542010     0.00002170174052     0.00004201667523     0.00001762643850     0.00026340190962
   29     0.00000147961485     0.00001220233068     0.00002314645629     0.00001116540352     0.00015872394904
   30     0.00000039086797     0.00000262344903     0.00000468873634     0.00000254501832     0.00002741566923
   31     0.00000031450388     0.00000218771576     0.00000375110744     0.00000241627709     0.00002971309215
   32     0.00000014548643     0.00000081550551     0.00000265331819     0.00000111162535     0.00000939675227
   33     0.00000005511439     0.00000039389285     0.00000056351775     0.00000055368100     0.00000190548800
   34     0.00000045920269     0.00000270125326     0.00000592388280     0.00000331878396     0.00003257514305
   35     0.00000054480880     0.00000322639867     0.00000652880850     0.00000185090155     0.00003421621330
   36     0.00363925412114     0.05064465894120     0.03191213153595     0.00536579997176     0.19260007955927
   37     0.11546635493135     0.01447636476441     0.00730293774889     0.01381432393659     0.00070443401302
   38     0.00000024868335     0.00000033814292     0.00000197664881     0.00001374965180     0.00000067510700
   39     0.00000085358377     0.00000122205819     0.00000300415078     0.00001978622401     0.00000090619936
   40     0.00011698971922     0.00006094533221     0.00017081238507     0.00197560373014     0.00006553985080
   41     0.00000016593272     0.00000022591076     0.00000079051107     0.00000511199027     0.00000048820772
   42     0.00000821128011     0.00002315149789     0.00001416304971     0.00010915113633     0.00000378211269
   43     0.00001511119330     0.00002154835227     0.00001231300174     0.00011702678234     0.00000175501968
   44     0.00155023559995     0.00132015326147     0.00136803317039     0.01141886783503     0.00026350301007
   45     0.87139419429318     0.07895845255092     0.01170832119217     0.00556262180305     0.00102495625577
   46     0.07740008274268     0.85911792683835     0.07543742882957     0.01128391754244     0.01471551356880
   47     0.00565869202739     0.01048486533502     0.07160591578253     0.84410710163359     0.02375206927031
   48     0.00139179652476     0.01019427560669     0.06236108631464     0.02173522187842     0.93799911322694
   49     0.00006836812682     0.00039885818595     0.00156635340636     0.00067512517344     0.01527213710431
   50     0.00000236006328     0.00001386313692     0.00003432301456     0.00001324466500     0.00021547583061
   51     0.00000289663534     0.00001854553417     0.00006509835049     0.00001902557289     0.00028234498423
   52     0.00002700873609     0.00017036505516     0.00024867531951     0.00007258371649     0.00164652117118
   53     0.00000051499792     0.00000366960232     0.00000817665480     0.00000281841131     0.00003730917545
   54     0.00000044475156     0.00000380758983     0.00000774028342     0.00000323627491     0.00004776647294
   55     0.00000007180903     0.00000034606022     0.00000076836835     0.00000038551680     0.00000449857595
   56     0.00000007512675     0.00000054540415     0.00000081647910     0.00000060211794     0.00000646144701
   57     0.00000003519866     0.00000023729498     0.00000025387344     0.00000020896000     0.00000202437826
   58     0.00000048947221     0.00000322911264     0.00000474029760     0.00000246457569     0.00002495096537
   59     0.00000001258501     0.00000007354819     0.00000011832791     0.00000015790036     0.00000040921857
   60     0.00000000895625     0.00000003740542     0.00000007811924     0.00000007304807     0.00000027768374
   61     0.00000000941740     0.00000005991639     0.00000007445801     0.00000004813448     0.00000026974862
   62     0.00000004023095     0.00000027688006     0.00000036413807     0.00000021461240     0.00000228206020
   63     0.00000078004198     0.00000623067932     0.00000932731088     0.00000629568590     0.00004896540862
   64     0.00000017319399     0.00000105471483     0.00000093909847     0.00000083094024     0.00000767251172
   65     0.00000009519227     0.00000049474429     0.00000161828022     0.00000038512221     0.00000793358938
   66     0.01577327904281     0.00131401301926     0.00310248229006     0.00120093761903     0.00037337449915
   67     0.01440307037616     0.00126968993756     0.00260105181625     0.00127637319659     0.00030103924664
   68     0.02366298007789     0.00188527904242     0.00056854298108     0.00107213294734     0.00008651738129

                21                  22                  23                  24                  25

    1     0.00000260270653     0.00000443414847     0.00003274666135     0.00000996135772     0.00000165457851
    2     0.00000191003422     0.00000365445885     0.00001589442210     0.00001008211433     0.00000129409000
    3     0.00000745492298     0.00000587952389     0.00001661850317     0.00001124028919     0.00000303392565
    4     0.00003112453230     0.00001286177785     0.00004481615403     0.00001702887397     0.00001101340676
    5     0.00000555808272     0.00000634988677     0.00002292464190     0.00000954587193     0.00000363254587
    6     0.00000207728528     0.00000327664384     0.00001915926221     0.00001018033929     0.00000422714651
    7     0.00001419889183     0.00000523297982     0.00001585171712     0.00000543857337     0.00000076145180
    8     0.00000777064785     0.00000171911837     0.00001256846873     0.00000128839091     0.00000052234264
    9     0.00000532613061     0.00000127947282     0.00000296901664     0.00000071906215     0.00000025755660
   10     0.00001573680473     0.00000410952306     0.00000324098092     0.00000173432470     0.00000045322310
   11     0.00007437670777     0.00001457599174     0.00001127083967     0.00000133004931     0.00000090164775
   12     0.00006203445543     0.00001087833172     0.00003687776551     0.00000313267161     0.00000095840955
   13     0.00032838145443     0.00005801433661     0.00001747231970     0.00000234590079     0.00000169548791
   14     0.00279865498960     0.00036045627480     0.00013160418978     0.00001340775258     0.00002431689186
   15     0.00581544620140     0.00034192254552     0.00035456033638     0.00003608626141     0.00014578724146
   16     0.00283806692625     0.00035863616089     0.00016142988934     0.00002253035258     0.00002591683828
   17     0.03185609334115     0.00337046623568     0.00122318062610     0.00016082297780     0.00024971592455
   18     0.08645407649999     0.01443244245006     0.00399167364221     0.00043413829043     0.00045564730114
   19     0.02258116927147     0.00208408959501     0.00131410047694     0.00015579588192     0.00021649588115
   20     1.31526378106887     0.10427058556389     0.04211357682325     0.00367064793076     0.00338062496665
   21     0.00000000000000     0.97186475639445     0.10547248840748     0.01452137758498     0.01099914623242
   22     0.97186475639445     0.00000000000000     1.40078517141423     0.12774345737682     0.12425520525537
   23     0.10547248840748     1.40078517141423     0.00000000000000     1.46156006256657     0.12607514538738
   24     0.01452137758498     0.12774345737682     1.46156006256657     0.00000000000000     1.40054117983339
   25     0.01099914623242     0.12425520525537     0.12607514538738     1.40054117983339     0.00000000000000
   26     0.01468467603941     0.12732613977681     0.12989313746699     0.12532157680066     1.39819410489167
   27     0.11056913683213     1.38735865417146     0.12356982660582     0.13113248764737     0.12717396869882
   28     0.00072781694518     0.00915323881467     0.01460490417546     0.10834558439853     1.01682241190791
   29     0.00038885807344     0.00443864562707     0.00211278416011     0.02278342533437     0.08776089344492
   30     0.00008304021126     0.00091142453025     0.00181828093449     0.01512669284238     0.01912848177928
   31     0.00006788790172     0.00107569643890     0.00753178641593     0.02279810319707     0.01438021948251
   32     0.00006661970924     0.00064611647437     0.00088035304898     0.00275873909512     0.00377163041265
   33     0.00000841771121     0.00010776135252     0.00020083789700     0.00063737953485     0.00099211839335
   34     0.00014386947831     0.00287540641555     0.00282763911257     0.00852881093670     0.02264683493414
   35     0.00011337852879     0.00113071318767     0.00111569221890     0.00543591076835     0.02237517371248
   36     2.17873692869493     0.13801686120642     0.02566097632494     0.00316457511247     0.00621961665807
[...]
   15     0.00000037505927     0.00000014231138     0.00000047917872     0.00000002224297     0.00000000949748
   16     0.00000007512675     0.00000003519866     0.00000048947221     0.00000001258501     0.00000000895625
   17     0.00000054540415     0.00000023729498     0.00000322911264     0.00000007354819     0.00000003740542
   18     0.00000081647910     0.00000025387344     0.00000474029760     0.00000011832791     0.00000007811924
   19     0.00000060211794     0.00000020896000     0.00000246457569     0.00000015790036     0.00000007304807
   20     0.00000646144701     0.00000202437826     0.00002495096537     0.00000040921857     0.00000027768374
   21     0.00002428677675     0.00000578708060     0.00005307414582     0.00000185176696     0.00000068199106
   22     0.00022019790572     0.00008729843288     0.00087188942804     0.00001234710459     0.00001015073542
   23     0.00028827100337     0.00020221821212     0.00617848069919     0.00002251226554     0.00002218675070
   24     0.00074495466070     0.00074298614608     0.01732336745959     0.00008232022894     0.00007624853116
   25     0.00147199960018     0.00052642641656     0.00782239425477     0.00017161014702     0.00009538195601
   26     0.00048385018559     0.00014671991296     0.00177074470442     0.00007884538992     0.00003572187272
   27     0.00013180707264     0.00010015292077     0.00160278233754     0.00002308916514     0.00002315864915
   28     0.01257247684040     0.00098601078840     0.00488622218702     0.00069068088809     0.00011670197468
   29     0.06585360146589     0.01377980315817     0.01224049011488     0.00327777499090     0.00073659718781
   30     0.77552250156341     0.05889844203331     0.05135416867481     0.01313053254561     0.00416831481365
   31     0.05274997321885     0.81481901496151     0.86496575809191     0.01633178954747     0.02238157021428
   32     0.01457810165135     0.05069777533603     0.06286368340739     0.06766147952110     0.06261588776251
   33     0.01627199166321     0.02577159110230     0.01094369424424     0.91092942995234     0.91975300227359
   34     0.00838140323513     0.01569680502142     0.01870791898991     0.01651718719509     0.01264686884832
   35     0.02360691708463     0.00175271447638     0.00692858611774     0.01241735347537     0.00174731551271
   36     0.00001591911805     0.00000429821750     0.00002981912713     0.00000106461115     0.00000052975260
   37     0.00000002093201     0.00000001218185     0.00000007757092     0.00000000403980     0.00000000154282
   38     0.00000047370244     0.00002009205228     0.00000473028389     0.00000096087182     0.00000376031707
   39     0.00000004518835     0.00000160462030     0.00000167390242     0.00000004318722     0.00000053902343
   40     0.00000140315892     0.00000173090339     0.00000684523949     0.00000044185630     0.00000098843131
   41     0.00000333393873     0.00003228853311     0.00000422918986     0.00001763856666     0.00007000601873
   42     0.00000000559529     0.00000030309958     0.00000020711148     0.00000000293080     0.00000009447162
   43     0.00000000098690     0.00000002294890     0.00000002384423     0.00000000039664     0.00000000552452
   44     0.00000000110278     0.00000000813518     0.00000003681075     0.00000000296341     0.00000000560949
   45     0.00000000785676     0.00000000098607     0.00000007754552     0.00000000229290     0.00000000075388
   46     0.00000004936754     0.00000004410677     0.00000138725221     0.00000000696363     0.00000000521028
   47     0.00000038687117     0.00000009021581     0.00000055548221     0.00000008202248     0.00000002008937
   48     0.00001371159677     0.00000327712940     0.00001673028505     0.00000036476452     0.00000030427436
   49     0.00004201183248     0.00001879316284     0.00050551147120     0.00000190035317     0.00000148531339
   50     0.00011482414483     0.00029023593633     0.00412954954085     0.00004241209042     0.00002376637383
   51     0.00012088120390     0.00001480992672     0.00009421550100     0.00002831498365     0.00000500784749
   52     0.00001362660288     0.00000347827922     0.00004331586967     0.00000233864454     0.00000128882910
   53     0.00126729249658     0.00007997056024     0.00077065474614     0.00006300552121     0.00001917878752
   54     0.00047604634850     0.00043201266118     0.00029281520357     0.00006445881449     0.00002333338334
   55     0.02414804326159     0.00602949598452     0.00733284549426     0.00060174924527     0.00017007852238
   56     0.00000000000000     0.01082704666083     0.01348900245523     0.00840919803898     0.00166289297340
   57     0.01082704666083     0.00000000000000     0.02422902743670     0.00344895702711     0.00872190436105
   58     0.01348900245523     0.02422902743670     0.00000000000000     0.00094981337714     0.00112104368496
   59     0.00840919803898     0.00344895702711     0.00094981337714     0.00000000000000     0.03483954880244
   60     0.00166289297340     0.00872190436105     0.00112104368496     0.03483954880244     0.00000000000000
   61     0.00073249194738     0.00130844715751     0.00078302360886     0.03501618981460     0.03788195978706
   62     0.00041995094115     0.00139785598352     0.00096460534133     0.00304546080085     0.00112005087370
   63     0.00077111401156     0.00108150587997     0.00487965836879     0.00101751289084     0.00065064236642
   64     0.00647954749348     0.00040512421139     0.00100414107774     0.00785197480406     0.00063234906486
   65     0.00095380288844     0.00042746412461     0.00042128084338     0.00054810119702     0.00022216765280
   66     0.00000001590730     0.00000000474183     0.00000001158749     0.00000000118026     0.00000000042709
   67     0.00000001376396     0.00000000492723     0.00000001093786     0.00000000117848     0.00000000041212
   68     0.00000000172401     0.00000000199450     0.00000000767477     0.00000000071808     0.00000000007860

                61                  62                  63                  64                  65

    1     0.00000404863366     0.00000093536163     0.00000280166585     0.00000523066201     0.00000119973491
    2     0.00000294456280     0.00000035202772     0.00000288397938     0.00000070957084     0.00000025320176
    3     0.00000254455708     0.00000058230317     0.00000167099503     0.00000060710807     0.00000022262348
    4     0.00000189356864     0.00000194078364     0.00001490788949     0.00000158119509     0.00000054076988
    5     0.00001412741637     0.00000368915988     0.00002499783305     0.00000399202935     0.00000054683174
    6     0.00003727224131     0.00000176849003     0.00000984067267     0.00003437772707     0.00000217514894
    7     0.00000034230842     0.00000005248480     0.00000041876263     0.00000009469882     0.00000003193510
    8     0.00000023175275     0.00000005274857     0.00000017587745     0.00000007712211     0.00000001913247
    9     0.00000002891407     0.00000001176214     0.00000005905642     0.00000001197190     0.00000000497664
   10     0.00000011368395     0.00000001088036     0.00000005290803     0.00000002886959     0.00000000616491
   11     0.00000002780319     0.00000001170403     0.00000015991091     0.00000001900723     0.00000001129918
   12     0.00000017913996     0.00000006035852     0.00000106579164     0.00000004754067     0.00000002651582
   13     0.00000000485230     0.00000000693139     0.00000010753820     0.00000001276391     0.00000001494696
   14     0.00000001492454     0.00000006765593     0.00000070373213     0.00000011252381     0.00000008725599
   15     0.00000001425371     0.00000013187295     0.00000225321411     0.00000046941681     0.00000006868171
   16     0.00000000941740     0.00000004023095     0.00000078004198     0.00000017319399     0.00000009519227
   17     0.00000005991639     0.00000027688006     0.00000623067932     0.00000105471483     0.00000049474429
   18     0.00000007445801     0.00000036413807     0.00000932731088     0.00000093909847     0.00000161828022
   19     0.00000004813448     0.00000021461240     0.00000629568590     0.00000083094024     0.00000038512221
   20     0.00000026974862     0.00000228206020     0.00004896540862     0.00000767251172     0.00000793358938
   21     0.00000139253065     0.00001525126014     0.00018308211947     0.00004890979476     0.00002085862561
   22     0.00001467286714     0.00015667837540     0.00337975634009     0.00033678023218     0.00020326778533
   23     0.00002318706387     0.00014374327742     0.00309740485863     0.00032031953289     0.00025289460308
   24     0.00004932025124     0.00034467739853     0.00656709205556     0.00065758003027     0.00065524251707
   25     0.00010391495046     0.00079829090212     0.01579848875374     0.00149606659160     0.00616338824974
   26     0.00006389681166     0.00070243385817     0.01907413530983     0.00090521876361     0.00573620363644
   27     0.00003407891140     0.00025004157821     0.00879764454046     0.00039442300682     0.00049983840402
   28     0.00011880664767     0.00107374244268     0.00678858728658     0.01214515626755     0.01899371096216
   29     0.00066995523861     0.01161139107272     0.01207918081563     0.06495589394215     0.05949273991642
   30     0.00182962837617     0.00212343716772     0.00732464692326     0.02361105544258     0.01202944062378
   31     0.01271098016620     0.01419117414494     0.01766954405534     0.00833918546768     0.00261545382201
   32     0.06287140889505     0.05357520039077     0.06027498470979     0.01386699368057     0.01008492833749
   33     0.91965713830941     0.02158647767899     0.01254195348690     0.01560609657624     0.00168111646238
   34     0.01972990986838     0.85522542423427     0.77106533860344     0.04966526966409     0.06161148558874
   35     0.00377950154807     0.05738289465366     0.04399353820619     0.76999488959855     0.89554903640633
   36     0.00000060871038     0.00000507315657     0.00010383978260     0.00001374514792     0.00000671157515
   37     0.00000000213125     0.00000001081414     0.00000021526912     0.00000003174723     0.00000001392383
   38     0.00000016800157     0.00000012942907     0.00000050748867     0.00000068143587     0.00000018832898
   39     0.00000021967210     0.00000004959326     0.00000029651784     0.00000003691576     0.00000000783902
   40     0.00000034907615     0.00000037927620     0.00000283718999     0.00000014013516     0.00000007593994
   41     0.00000968930522     0.00000033604478     0.00000030576052     0.00001412392556     0.00000048525123
   42     0.00000001243991     0.00000000330923     0.00000000990132     0.00000000497990     0.00000000267763
   43     0.00000000286922     0.00000000065436     0.00000001076492     0.00000000082254     0.00000000023024
   44     0.00000000178938     0.00000000118953     0.00000001778935     0.00000000188264     0.00000000252421
   45     0.00000000069882     0.00000000272260     0.00000010487864     0.00000000553772     0.00000001810910
   46     0.00000000882163     0.00000003823428     0.00000168377137     0.00000008285663     0.00000021586482
   47     0.00000000828647     0.00000004300214     0.00000112706618     0.00000025843946     0.00000010564442
   48     0.00000018655751     0.00000355019646     0.00001088948393     0.00000764267797     0.00000168274303
   49     0.00000122527486     0.00000800272583     0.00011832135171     0.00002287137271     0.00002295401980
   50     0.00001492892056     0.00002634027706     0.00066419771791     0.00016834335637     0.00007766000686
   51     0.00001322270918     0.00008906155968     0.00299274243245     0.00010039525540     0.00226233808998
   52     0.00000334743777     0.00002594049706     0.00068995061467     0.00004648855350     0.00002775784548
   53     0.00002098842163     0.00032300627113     0.00042745689314     0.00058593726229     0.00108141742463
   54     0.00002178413330     0.00010987030735     0.00088449893632     0.00121047019580     0.00525212010902
   55     0.00021926608550     0.00036145365011     0.00047829042146     0.00093738084365     0.00112699018880
   56     0.00073249194738     0.00041995094115     0.00077111401156     0.00647954749348     0.00095380288844
   57     0.00130844715751     0.00139785598352     0.00108150587997     0.00040512421139     0.00042746412461
   58     0.00078302360886     0.00096460534133     0.00487965836879     0.00100414107774     0.00042128084338
   59     0.03501618981460     0.00304546080085     0.00101751289084     0.00785197480406     0.00054810119702
   60     0.03788195978706     0.00112005087370     0.00065064236642     0.00063234906486     0.00022216765280
   61     0.00000000000000     0.00679544766034     0.00105705188166     0.00166682702487     0.00014990979979
   62     0.00679544766034     0.00000000000000     0.01849293578866     0.00987056104499     0.00572548383258
   63     0.00105705188166     0.01849293578866     0.00000000000000     0.02391857730612     0.00863320794187
   64     0.00166682702487     0.00987056104499     0.02391857730612     0.00000000000000     0.02422445518697
   65     0.00014990979979     0.00572548383258     0.00863320794187     0.02422445518697     0.00000000000000
   66     0.00000000037099     0.00000000723953     0.00000008063638     0.00000002683613     0.00000000287242
   67     0.00000000055293     0.00000000512493     0.00000012735764     0.00000001904780     0.00000000332120
   68     0.00000000012222     0.00000000078826     0.00000001732854     0.00000000157735     0.00000000162024

                66                  67                  68

    1     0.00000045133482     0.00000093168510     0.00000024814887
    2     0.00000161706987     0.00000211466660     0.00000066982447
    3     0.00000637835947     0.00001318026342     0.00000393462261
    4     0.00000476203205     0.00000629235809     0.00000245720711
    5     0.00000041506342     0.00000050127147     0.00000027028855
    6     0.00000023350292     0.00000033571034     0.00000018940058
    7     0.00003224592799     0.00005525876800     0.00001745598172
    8     0.00005697749347     0.00008476232552     0.00001338513493
    9     0.00003006046381     0.00007669620175     0.00000562148842
   10     0.00027485761696     0.00064696735757     0.00003946733505
   11     0.00066728629180     0.00113837644505     0.00024156594888
   12     0.00017053224655     0.00032308858278     0.00006760043720
   13     0.00862372699111     0.01159784487562     0.00203144613071
   14     0.01635091322533     0.01670652878012     0.00891538213729
   15     0.05851674796132     0.05803478947324     0.05950489937553
   16     0.01577327904281     0.01440307037616     0.02366298007789
   17     0.00131401301926     0.00126968993756     0.00188527904242
   18     0.00310248229006     0.00260105181625     0.00056854298108
   19     0.00120093761903     0.00127637319659     0.00107213294734
   20     0.00037337449915     0.00030103924664     0.00008651738129
   21     0.00022546838596     0.00019467586925     0.00003236333879
   22     0.00001233680745     0.00001396689600     0.00000725723386
   23     0.00001514789879     0.00001275964101     0.00000305170975
   24     0.00000154409289     0.00000141550939     0.00000034837479
   25     0.00000652584261     0.00000529564063     0.00000031080171
   26     0.00000120337945     0.00000120898641     0.00000030387178
   27     0.00001136728092     0.00001110283615     0.00000169589419
   28     0.00000051171550     0.00000034543567     0.00000003965259
   29     0.00000035566240     0.00000030308592     0.00000002060069
   30     0.00000004594527     0.00000005971507     0.00000000597370
   31     0.00000001650342     0.00000001584188     0.00000001176281
   32     0.00000001177767     0.00000000898988     0.00000001046978
   33     0.00000000451641     0.00000000578960     0.00000000210745
   34     0.00000003094785     0.00000003294535     0.00000000997746
   35     0.00000002925274     0.00000003454571     0.00000000701569
   36     0.00012995156517     0.00011678737965     0.00001786105475
   37     0.91976240736358     0.91835256055416     0.92060811121266
   38     0.00000006551345     0.00000009197012     0.00000003519677
   39     0.00000021464746     0.00000030937961     0.00000009063574
   40     0.00000231720037     0.00000356148123     0.00000134176702
   41     0.00000002243969     0.00000006761540     0.00000002155001
   42     0.00000224112642     0.00000424577099     0.00000061589305
   43     0.00000334323622     0.00000497573492     0.00000064019714
   44     0.00435906740256     0.00458213558732     0.00098471826976
   45     0.00130807412462     0.00117731289762     0.00757348418447
   46     0.00020439432585     0.00022814316698     0.00012872268377
   47     0.00019026388860     0.00020254838473     0.00036268622192
   48     0.00004063943922     0.00004178111300     0.00004083861092
   49     0.00000517164756     0.00000378829101     0.00000128256089
   50     0.00000006676111     0.00000010871982     0.00000005914994
   51     0.00000022870883     0.00000012271033     0.00000007676043
   52     0.00000092738559     0.00000073630095     0.00000046485450
   53     0.00000006114579     0.00000006361495     0.00000001485047
   54     0.00000006687151     0.00000007040519     0.00000001213644
   55     0.00000000451420     0.00000000747554     0.00000000148467
   56     0.00000001590730     0.00000001376396     0.00000000172401
   57     0.00000000474183     0.00000000492723     0.00000000199450
   58     0.00000001158749     0.00000001093786     0.00000000767477
   59     0.00000000118026     0.00000000117848     0.00000000071808
   60     0.00000000042709     0.00000000041212     0.00000000007860
   61     0.00000000037099     0.00000000055293     0.00000000012222
   62     0.00000000723953     0.00000000512493     0.00000000078826
   63     0.00000008063638     0.00000012735764     0.00000001732854
   64     0.00000002683613     0.00000001904780     0.00000000157735
   65     0.00000000287242     0.00000000332120     0.00000000162024
   66     0.00000000000000     0.03488867977213     0.03824258713901
   67     0.03488867977213     0.00000000000000     0.03854881101799
   68     0.03824258713901     0.03854881101799     0.00000000000000



  Atomic Valences: 

 #  #
 Irrep: 1
      1:  4.3950569
      2:  4.4267101
      3:  4.6097500
      4:  4.5635058
      5:  3.8877715
      6:  4.5473746
      7:  4.7508560
      8:  4.3801135
      9:  4.5281904
     10:  3.8885495
     11:  5.0475173
     12:  3.9765931
     13:  4.0100657
     14:  4.6842261
     15:  4.6244152
     16:  4.4394275
     17:  4.4013960
     18:  4.6654415
     19:  4.4007485
     20:  4.0760684
     21:  5.0042319
     22:  4.6211269
     23:  4.4427705
     24:  4.4744560
     25:  4.7136967
     26:  4.4691266
     27:  4.4353467
     28:  4.4917135
     29:  4.2518860
     30:  4.5614186
     31:  4.5748053
     32:  4.2172605
     33:  4.2968711
     34:  4.5622170
     35:  4.5537661
     36:  2.7671705
     37:  4.1513296
     38:  1.0991413
     39:  1.1028706
     40:  1.1014673
     41:  1.0917589
     42:  1.1082898
     43:  1.0872194
     44:  1.1767676
     45:  1.0996037
     46:  1.1084815
     47:  1.1190569
     48:  1.1813068
     49:  1.1045535
     50:  1.1074920
     51:  1.1044953
     52:  1.0970045
     53:  1.1062320
     54:  1.1068358
     55:  1.1295885
     56:  1.0429202
     57:  1.0436299
     58:  1.1298464
     59:  1.1373506
     60:  1.1118737
     61:  1.1074194
     62:  1.0679794
     63:  1.0556488
     64:  1.0415641
     65:  1.1267720
     66:  1.1059168
     67:  1.1069372
     68:  1.1046780


    Psi4 stopped on: Saturday, 07 March 2020 11:01AM
    Psi4 wall time for execution: 0:27:39.91

*** Psi4 exiting successfully. Buy a developer a beer!
