 Entering Gaussian System, Link 0=g09
 Input=MOLECULE0-opt-14-13-11-12-032.com
 Output=MOLECULE0-opt-14-13-11-12-032.log
 Initial command:
 /opt/g09gh/gaussian/g09/l1.exe /scratch/bdw2292/Gau-MOLECULE0/Gau-88487.inp -scrdir=/scratch/bdw2292/Gau-MOLECULE0/
 Entering Link 1 = /opt/g09gh/gaussian/g09/l1.exe PID=     88488.
  
 Copyright (c) 1988,1990,1992,1993,1995,1998,2003,2009, Gaussian, Inc.
                  All Rights Reserved.
  
 This is part of the Gaussian(R) 09 program.  It is based on
 the Gaussian(R) 03 system (copyright 2003, Gaussian, Inc.),
 the Gaussian(R) 98 system (copyright 1998, Gaussian, Inc.),
 the Gaussian(R) 94 system (copyright 1995, Gaussian, Inc.),
 the Gaussian 92(TM) system (copyright 1992, Gaussian, Inc.),
 the Gaussian 90(TM) system (copyright 1990, Gaussian, Inc.),
 the Gaussian 88(TM) system (copyright 1988, Gaussian, Inc.),
 the Gaussian 86(TM) system (copyright 1986, Carnegie Mellon
 University), and the Gaussian 82(TM) system (copyright 1983,
 Carnegie Mellon University). Gaussian is a federally registered
 trademark of Gaussian, Inc.
  
 This software contains proprietary and confidential information,
 including trade secrets, belonging to Gaussian, Inc.
  
 This software is provided under written license and may be
 used, copied, transmitted, or stored only in accord with that
 written license.
  
 The following legend is applicable only to US Government
 contracts under FAR:
  
                    RESTRICTED RIGHTS LEGEND
  
 Use, reproduction and disclosure by the US Government is
 subject to restrictions as set forth in subparagraphs (a)
 and (c) of the Commercial Computer Software - Restricted
 Rights clause in FAR 52.227-19.
  
 Gaussian, Inc.
 340 Quinnipiac St., Bldg. 40, Wallingford CT 06492
  
  
 ---------------------------------------------------------------
 Warning -- This program may not be used in any manner that
 competes with the business of Gaussian, Inc. or will provide
 assistance to any competitor of Gaussian, Inc.  The licensee
 of this program is prohibited from giving any competitor of
 Gaussian, Inc. access to this program.  By using this program,
 the user acknowledges that Gaussian, Inc. is engaged in the
 business of creating and licensing software in the field of
 computational chemistry and represents and warrants to the
 licensee that it is not a competitor of Gaussian, Inc. and that
 it will not use this program in any manner prohibited above.
 ---------------------------------------------------------------
  

 Cite this work as:
 Gaussian 09, Revision A.02,
 M. J. Frisch, G. W. Trucks, H. B. Schlegel, G. E. Scuseria, 
 M. A. Robb, J. R. Cheeseman, G. Scalmani, V. Barone, B. Mennucci, 
 G. A. Petersson, H. Nakatsuji, M. Caricato, X. Li, H. P. Hratchian, 
 A. F. Izmaylov, J. Bloino, G. Zheng, J. L. Sonnenberg, M. Hada, 
 M. Ehara, K. Toyota, R. Fukuda, J. Hasegawa, M. Ishida, T. Nakajima, 
 Y. Honda, O. Kitao, H. Nakai, T. Vreven, J. A. Montgomery, Jr., 
 J. E. Peralta, F. Ogliaro, M. Bearpark, J. J. Heyd, E. Brothers, 
 K. N. Kudin, V. N. Staroverov, R. Kobayashi, J. Normand, 
 K. Raghavachari, A. Rendell, J. C. Burant, S. S. Iyengar, J. Tomasi, 
 M. Cossi, N. Rega, J. M. Millam, M. Klene, J. E. Knox, J. B. Cross, 
 V. Bakken, C. Adamo, J. Jaramillo, R. Gomperts, R. E. Stratmann, 
 O. Yazyev, A. J. Austin, R. Cammi, C. Pomelli, J. W. Ochterski, 
 R. L. Martin, K. Morokuma, V. G. Zakrzewski, G. A. Voth, 
 P. Salvador, J. J. Dannenberg, S. Dapprich, A. D. Daniels, 
 O. Farkas, J. B. Foresman, J. V. Ortiz, J. Cioslowski, 
 and D. J. Fox, Gaussian, Inc., Wallingford CT, 2009.
 
 ******************************************
 Gaussian 09:  EM64L-G09RevA.02 11-Jun-2009
                27-Feb-2020 
 ******************************************
 %RWF=/scratch/bdw2292/Gau-MOLECULE0/,100GB
 %Nosave
 %Chk=MOLECULE0-opt-14-13-11-12-032.chk
 %Mem=20GB
 %Nproc=6
 Will use up to    6 processors via shared memory.
 --------------------------------------------------
 #P opt=(,maxcycle=400) wB97XD/6-31G* MaxDisk=100GB
 --------------------------------------------------
 1/6=400,14=-1,18=20,19=15,26=3,38=1/1,3;
 2/9=110,12=2,17=6,18=5,40=1/2;
 3/5=1,6=6,7=1,11=2,16=1,25=1,30=1,71=1,74=-58/1,2,3;
 4//1;
 5/5=2,38=5/2;
 6/7=2,8=2,9=2,10=2,28=1/1;
 7//1,2,3,16;
 1/6=400,14=-1,18=20,19=15/3(2);
 2/9=110/2;
 99//99;
 2/9=110/2;
 3/5=1,6=6,7=1,11=2,16=1,25=1,30=1,71=1,74=-58/1,2,3;
 4/5=5,16=3/1;
 5/5=2,38=5/2;
 7//1,2,3,16;
 1/6=400,14=-1,18=20,19=15/3(-5);
 2/9=110/2;
 6/7=2,8=2,9=2,10=2,19=2,28=1/1;
 99/9=1/99;
 Leave Link    1 at Thu Feb 27 14:57:05 2020, MaxMem= 2684354560 cpu:       0.2
 (Enter /opt/g09gh/gaussian/g09/l101.exe)
 -----------------------------------------------------------------
 MOLECULE0 Rotatable Bond Optimization on g2-node38.bme.utexas.edu
 -----------------------------------------------------------------
 Symbolic Z-matrix:
 Charge =  0 Multiplicity = 1
 C                    -0.0089    4.88978   0.55471 
 C                     1.35951   4.64968   0.36939 
 C                     1.88664   3.36155   0.59226 
 C                     0.95473   2.38135   1.0146 
 N                    -0.35447   2.59205   1.19468 
 C                    -0.82202   3.82757   0.96504 
 C                     3.34033   3.00917   0.39357 
 C                     4.34945   3.90432   0.00211 
 C                     5.62823   3.35489  -0.14193 
 N                     5.92238   2.07316   0.05533 
 C                     4.88882   1.28564   0.41759 
 N                     3.6344    1.70916   0.59337 
 N                     5.20076  -0.04683   0.60765 
 C                     4.45916  -1.2654    0.40861 
 C                     5.15981  -2.50823   0.34806 
 C                     4.39297  -3.66747   0.14296 
 C                     3.0003   -3.66769   0.00534 
 C                     2.326    -2.44496   0.08743 
 C                     3.06494  -1.26505   0.2741 
 N                     0.9111   -2.26147  -0.03205 
 C                    -0.08897  -3.13497  -0.38989 
 C                    -1.45725  -2.54746  -0.6764 
 C                    -1.63926  -1.29593  -1.28759 
 C                    -2.92399  -0.79131  -1.49802 
 C                    -4.06926  -1.5226   -1.13163 
 C                    -3.87226  -2.78274  -0.53439 
 C                    -2.59074  -3.29507  -0.31788 
 C                    -5.47112  -0.94084  -1.32045 
 N                    -6.02322  -0.02893  -0.30306 
 C                    -5.52411   1.36202  -0.2252 
 C                    -4.42059   1.63206   0.83092 
 N                    -4.75385   1.13562   2.18772 
 C                    -5.59382   2.00777   3.01897 
 C                    -5.16142  -0.28687   2.10048 
 C                    -6.27325  -0.55965   1.05567 
 O                     0.08533  -4.34108  -0.45991 
 C                     6.66889  -2.62813   0.4753 
 H                    -0.43592   5.87353   0.38379 
 H                     1.98523   5.47599   0.04168 
 H                     1.28775   1.37225   1.23478 
 H                    -1.88992   3.96734   1.12339 
 H                     4.18763   4.95879  -0.18389 
 H                     6.46632   3.98482  -0.43887 
 H                     6.17435  -0.13399   0.85835 
 H                     4.8939   -4.63298   0.08241 
 H                     2.44784  -4.58568  -0.15369 
 H                     2.553    -0.31654   0.32256 
 H                     0.60576  -1.3078    0.1042 
 H                    -0.77094  -0.71498  -1.58851 
 H                    -3.02995   0.19006  -1.96066 
 H                    -4.7302   -3.37743  -0.22193 
 H                    -2.44738  -4.26907   0.14331 
 H                    -5.49382  -0.40213  -2.27911 
 H                    -6.18203  -1.77546  -1.40758 
 H                    -5.17155   1.75125  -1.33126 
 H                    -6.74387   2.25613   0.20908 
 H                    -4.17401   2.66995   0.88299 
 H                    -3.26482   0.96658   0.43647 
 H                    -6.59868   2.10846   2.59343 
 H                    -5.14194   3.00321   3.09914 
 H                    -5.67866   1.59588   4.03121 
 H                    -5.43576  -0.6484    3.08874 
 H                    -3.93747  -1.06717   1.65686 
 H                    -7.55037   0.14998   1.59949 
 H                    -6.52555  -1.77431   1.00264 
 H                     7.00886  -2.34273   1.48073 
 H                     7.18806  -1.98126  -0.24576 
 H                     7.03396  -3.6489    0.29674 
 
 NAtoms=     68 NQM=     68 NQMF=      0 NMic=      0 NMicF=      0 NTot=     68.
                    Isotopes and Nuclear Properties:
 (Nuclear quadrupole moments (NQMom) in fm**2, nuclear magnetic moments (NMagM)
  in nuclear magnetons)

  Atom         1           2           3           4           5           6           7           8           9          10
 IAtWgt=          12          12          12          12          14          12          12          12          12          14
 AtmWgt=  12.0000000  12.0000000  12.0000000  12.0000000  14.0030740  12.0000000  12.0000000  12.0000000  12.0000000  14.0030740
 NucSpn=           0           0           0           0           2           0           0           0           0           2
 AtZEff=   0.0000000   0.0000000   0.0000000   0.0000000   0.0000000   0.0000000   0.0000000   0.0000000   0.0000000   0.0000000
 NQMom=    0.0000000   0.0000000   0.0000000   0.0000000   2.0440000   0.0000000   0.0000000   0.0000000   0.0000000   2.0440000
 NMagM=    0.0000000   0.0000000   0.0000000   0.0000000   0.4037610   0.0000000   0.0000000   0.0000000   0.0000000   0.4037610

  Atom        11          12          13          14          15          16          17          18          19          20
 IAtWgt=          12          14          14          12          12          12          12          12          12          14
 AtmWgt=  12.0000000  14.0030740  14.0030740  12.0000000  12.0000000  12.0000000  12.0000000  12.0000000  12.0000000  14.0030740
 NucSpn=           0           2           2           0           0           0           0           0           0           2
 AtZEff=   0.0000000   0.0000000   0.0000000   0.0000000   0.0000000   0.0000000   0.0000000   0.0000000   0.0000000   0.0000000
 NQMom=    0.0000000   2.0440000   2.0440000   0.0000000   0.0000000   0.0000000   0.0000000   0.0000000   0.0000000   2.0440000
 NMagM=    0.0000000   0.4037610   0.4037610   0.0000000   0.0000000   0.0000000   0.0000000   0.0000000   0.0000000   0.4037610

  Atom        21          22          23          24          25          26          27          28          29          30
 IAtWgt=          12          12          12          12          12          12          12          12          14          12
 AtmWgt=  12.0000000  12.0000000  12.0000000  12.0000000  12.0000000  12.0000000  12.0000000  12.0000000  14.0030740  12.0000000
 NucSpn=           0           0           0           0           0           0           0           0           2           0
 AtZEff=   0.0000000   0.0000000   0.0000000   0.0000000   0.0000000   0.0000000   0.0000000   0.0000000   0.0000000   0.0000000
 NQMom=    0.0000000   0.0000000   0.0000000   0.0000000   0.0000000   0.0000000   0.0000000   0.0000000   2.0440000   0.0000000
 NMagM=    0.0000000   0.0000000   0.0000000   0.0000000   0.0000000   0.0000000   0.0000000   0.0000000   0.4037610   0.0000000

  Atom        31          32          33          34          35          36          37          38          39          40
 IAtWgt=          12          14          12          12          12          16          12           1           1           1
 AtmWgt=  12.0000000  14.0030740  12.0000000  12.0000000  12.0000000  15.9949146  12.0000000   1.0078250   1.0078250   1.0078250
 NucSpn=           0           2           0           0           0           0           0           1           1           1
 AtZEff=   0.0000000   0.0000000   0.0000000   0.0000000   0.0000000   0.0000000   0.0000000   0.0000000   0.0000000   0.0000000
 NQMom=    0.0000000   2.0440000   0.0000000   0.0000000   0.0000000   0.0000000   0.0000000   0.0000000   0.0000000   0.0000000
 NMagM=    0.0000000   0.4037610   0.0000000   0.0000000   0.0000000   0.0000000   0.0000000   2.7928460   2.7928460   2.7928460

  Atom        41          42          43          44          45          46          47          48          49          50
 IAtWgt=           1           1           1           1           1           1           1           1           1           1
 AtmWgt=   1.0078250   1.0078250   1.0078250   1.0078250   1.0078250   1.0078250   1.0078250   1.0078250   1.0078250   1.0078250
 NucSpn=           1           1           1           1           1           1           1           1           1           1
 AtZEff=   0.0000000   0.0000000   0.0000000   0.0000000   0.0000000   0.0000000   0.0000000   0.0000000   0.0000000   0.0000000
 NQMom=    0.0000000   0.0000000   0.0000000   0.0000000   0.0000000   0.0000000   0.0000000   0.0000000   0.0000000   0.0000000
 NMagM=    2.7928460   2.7928460   2.7928460   2.7928460   2.7928460   2.7928460   2.7928460   2.7928460   2.7928460   2.7928460

  Atom        51          52          53          54          55          56          57          58          59          60
 IAtWgt=           1           1           1           1           1           1           1           1           1           1
 AtmWgt=   1.0078250   1.0078250   1.0078250   1.0078250   1.0078250   1.0078250   1.0078250   1.0078250   1.0078250   1.0078250
 NucSpn=           1           1           1           1           1           1           1           1           1           1
 AtZEff=   0.0000000   0.0000000   0.0000000   0.0000000   0.0000000   0.0000000   0.0000000   0.0000000   0.0000000   0.0000000
 NQMom=    0.0000000   0.0000000   0.0000000   0.0000000   0.0000000   0.0000000   0.0000000   0.0000000   0.0000000   0.0000000
 NMagM=    2.7928460   2.7928460   2.7928460   2.7928460   2.7928460   2.7928460   2.7928460   2.7928460   2.7928460   2.7928460

  Atom        61          62          63          64          65          66          67          68
 IAtWgt=           1           1           1           1           1           1           1           1
 AtmWgt=   1.0078250   1.0078250   1.0078250   1.0078250   1.0078250   1.0078250   1.0078250   1.0078250
 NucSpn=           1           1           1           1           1           1           1           1
 AtZEff=   0.0000000   0.0000000   0.0000000   0.0000000   0.0000000   0.0000000   0.0000000   0.0000000
 NQMom=    0.0000000   0.0000000   0.0000000   0.0000000   0.0000000   0.0000000   0.0000000   0.0000000
 NMagM=    2.7928460   2.7928460   2.7928460   2.7928460   2.7928460   2.7928460   2.7928460   2.7928460
 Leave Link  101 at Thu Feb 27 14:57:05 2020, MaxMem= 2684354560 cpu:       0.5
 (Enter /opt/g09gh/gaussian/g09/l103.exe)

 GradGradGradGradGradGradGradGradGradGradGradGradGradGradGradGradGradGrad
 Berny optimization.
 Initialization pass.
                           ----------------------------
                           !    Initial Parameters    !
                           ! (Angstroms and Degrees)  !
 --------------------------                            --------------------------
 ! Name  Definition              Value          Derivative Info.                !
 --------------------------------------------------------------------------------
 ! R1    R(1,2)                  1.4016         estimate D2E/DX2                !
 ! R2    R(1,6)                  1.3992         estimate D2E/DX2                !
 ! R3    R(1,38)                 1.086          estimate D2E/DX2                !
 ! R4    R(2,3)                  1.4095         estimate D2E/DX2                !
 ! R5    R(2,39)                 1.0871         estimate D2E/DX2                !
 ! R6    R(3,4)                  1.4169         estimate D2E/DX2                !
 ! R7    R(3,7)                  1.5089         estimate D2E/DX2                !
 ! R8    R(4,5)                  1.3382         estimate D2E/DX2                !
 ! R9    R(4,40)                 1.0852         estimate D2E/DX2                !
 ! R10   R(5,6)                  1.3408         estimate D2E/DX2                !
 ! R11   R(6,41)                 1.0886         estimate D2E/DX2                !
 ! R12   R(7,8)                  1.4046         estimate D2E/DX2                !
 ! R13   R(7,12)                 1.3478         estimate D2E/DX2                !
 ! R14   R(8,9)                  1.3993         estimate D2E/DX2                !
 ! R15   R(8,42)                 1.0829         estimate D2E/DX2                !
 ! R16   R(9,10)                 1.3298         estimate D2E/DX2                !
 ! R17   R(9,43)                 1.0897         estimate D2E/DX2                !
 ! R18   R(10,11)                1.349          estimate D2E/DX2                !
 ! R19   R(11,12)                1.3356         estimate D2E/DX2                !
 ! R20   R(11,13)                1.3816         estimate D2E/DX2                !
 ! R21   R(13,14)                1.4403         estimate D2E/DX2                !
 ! R22   R(13,44)                1.0091         estimate D2E/DX2                !
 ! R23   R(14,15)                1.428          estimate D2E/DX2                !
 ! R24   R(14,19)                1.4007         estimate D2E/DX2                !
 ! R25   R(15,16)                1.405          estimate D2E/DX2                !
 ! R26   R(15,37)                1.5192         estimate D2E/DX2                !
 ! R27   R(16,17)                1.3994         estimate D2E/DX2                !
 ! R28   R(16,45)                1.0894         estimate D2E/DX2                !
 ! R29   R(17,18)                1.3987         estimate D2E/DX2                !
 ! R30   R(17,46)                1.0831         estimate D2E/DX2                !
 ! R31   R(18,19)                1.4047         estimate D2E/DX2                !
 ! R32   R(18,20)                1.4317         estimate D2E/DX2                !
 ! R33   R(19,47)                1.0789         estimate D2E/DX2                !
 ! R34   R(20,21)                1.3752         estimate D2E/DX2                !
 ! R35   R(20,48)                1.0106         estimate D2E/DX2                !
 ! R36   R(21,22)                1.5164         estimate D2E/DX2                !
 ! R37   R(21,36)                1.2207         estimate D2E/DX2                !
 ! R38   R(22,23)                1.4046         estimate D2E/DX2                !
 ! R39   R(22,27)                1.4044         estimate D2E/DX2                !
 ! R40   R(23,24)                1.3962         estimate D2E/DX2                !
 ! R41   R(23,49)                1.0872         estimate D2E/DX2                !
 ! R42   R(24,25)                1.4074         estimate D2E/DX2                !
 ! R43   R(24,50)                1.0901         estimate D2E/DX2                !
 ! R44   R(25,26)                1.4083         estimate D2E/DX2                !
 ! R45   R(25,28)                1.5295         estimate D2E/DX2                !
 ! R46   R(26,27)                1.397          estimate D2E/DX2                !
 ! R47   R(26,51)                1.0897         estimate D2E/DX2                !
 ! R48   R(27,52)                1.0872         estimate D2E/DX2                !
 ! R49   R(28,29)                1.4736         estimate D2E/DX2                !
 ! R50   R(28,53)                1.0999         estimate D2E/DX2                !
 ! R51   R(28,54)                1.0998         estimate D2E/DX2                !
 ! R52   R(29,30)                1.4798         estimate D2E/DX2                !
 ! R53   R(29,35)                1.48           estimate D2E/DX2                !
 ! R54   R(30,31)                1.5512         estimate D2E/DX2                !
 ! R55   R(30,55)                1.2244         estimate D2E/DX2                !
 ! R56   R(30,56)                1.5735         estimate D2E/DX2                !
 ! R57   R(31,32)                1.4827         estimate D2E/DX2                !
 ! R58   R(31,57)                1.068          estimate D2E/DX2                !
 ! R59   R(31,58)                1.3908         estimate D2E/DX2                !
 ! R60   R(32,33)                1.4687         estimate D2E/DX2                !
 ! R61   R(32,34)                1.4823         estimate D2E/DX2                !
 ! R62   R(33,59)                1.0959         estimate D2E/DX2                !
 ! R63   R(33,60)                1.0961         estimate D2E/DX2                !
 ! R64   R(33,61)                1.0961         estimate D2E/DX2                !
 ! R65   R(34,35)                1.5499         estimate D2E/DX2                !
 ! R66   R(34,62)                1.0875         estimate D2E/DX2                !
 ! R67   R(34,63)                1.5178         estimate D2E/DX2                !
 ! R68   R(35,64)                1.559          estimate D2E/DX2                !
 ! R69   R(35,65)                1.2417         estimate D2E/DX2                !
 ! R70   R(37,66)                1.0991         estimate D2E/DX2                !
 ! R71   R(37,67)                1.099          estimate D2E/DX2                !
 ! R72   R(37,68)                1.0987         estimate D2E/DX2                !
 ! A1    A(2,1,6)              118.4298         estimate D2E/DX2                !
 ! A2    A(2,1,38)             121.2163         estimate D2E/DX2                !
 ! A3    A(6,1,38)             120.3538         estimate D2E/DX2                !
 ! A4    A(1,2,3)              120.0495         estimate D2E/DX2                !
 ! A5    A(1,2,39)             118.139          estimate D2E/DX2                !
 ! A6    A(3,2,39)             121.8074         estimate D2E/DX2                !
 ! A7    A(2,3,4)              115.6816         estimate D2E/DX2                !
 ! A8    A(2,3,7)              123.5642         estimate D2E/DX2                !
 ! A9    A(4,3,7)              120.7524         estimate D2E/DX2                !
 ! A10   A(3,4,5)              125.0742         estimate D2E/DX2                !
 ! A11   A(3,4,40)             120.127          estimate D2E/DX2                !
 ! A12   A(5,4,40)             114.792          estimate D2E/DX2                !
 ! A13   A(4,5,6)              117.5921         estimate D2E/DX2                !
 ! A14   A(1,6,5)              123.1686         estimate D2E/DX2                !
 ! A15   A(1,6,41)             121.015          estimate D2E/DX2                !
 ! A16   A(5,6,41)             115.8155         estimate D2E/DX2                !
 ! A17   A(3,7,8)              125.4517         estimate D2E/DX2                !
 ! A18   A(3,7,12)             114.5787         estimate D2E/DX2                !
 ! A19   A(8,7,12)             119.9529         estimate D2E/DX2                !
 ! A20   A(7,8,9)              115.788          estimate D2E/DX2                !
 ! A21   A(7,8,42)             124.1309         estimate D2E/DX2                !
 ! A22   A(9,8,42)             120.081          estimate D2E/DX2                !
 ! A23   A(8,9,10)             124.4276         estimate D2E/DX2                !
 ! A24   A(8,9,43)             120.2629         estimate D2E/DX2                !
 ! A25   A(10,9,43)            115.3089         estimate D2E/DX2                !
 ! A26   A(9,10,11)            115.6624         estimate D2E/DX2                !
 ! A27   A(10,11,12)           124.739          estimate D2E/DX2                !
 ! A28   A(10,11,13)           115.2767         estimate D2E/DX2                !
 ! A29   A(12,11,13)           119.9843         estimate D2E/DX2                !
 ! A30   A(7,12,11)            119.4253         estimate D2E/DX2                !
 ! A31   A(11,13,14)           132.8974         estimate D2E/DX2                !
 ! A32   A(11,13,44)           109.591          estimate D2E/DX2                !
 ! A33   A(14,13,44)           117.2586         estimate D2E/DX2                !
 ! A34   A(13,14,15)           119.3124         estimate D2E/DX2                !
 ! A35   A(13,14,19)           121.7061         estimate D2E/DX2                !
 ! A36   A(15,14,19)           118.9814         estimate D2E/DX2                !
 ! A37   A(14,15,16)           117.1613         estimate D2E/DX2                !
 ! A38   A(14,15,37)           123.5403         estimate D2E/DX2                !
 ! A39   A(16,15,37)           119.2937         estimate D2E/DX2                !
 ! A40   A(15,16,17)           123.8931         estimate D2E/DX2                !
 ! A41   A(15,16,45)           119.2354         estimate D2E/DX2                !
 ! A42   A(17,16,45)           116.8714         estimate D2E/DX2                !
 ! A43   A(16,17,18)           118.2835         estimate D2E/DX2                !
 ! A44   A(16,17,46)           121.4768         estimate D2E/DX2                !
 ! A45   A(18,17,46)           120.2382         estimate D2E/DX2                !
 ! A46   A(17,18,19)           119.2412         estimate D2E/DX2                !
 ! A47   A(17,18,20)           125.7003         estimate D2E/DX2                !
 ! A48   A(19,18,20)           115.0436         estimate D2E/DX2                !
 ! A49   A(14,19,18)           122.4241         estimate D2E/DX2                !
 ! A50   A(14,19,47)           117.9175         estimate D2E/DX2                !
 ! A51   A(18,19,47)           119.6577         estimate D2E/DX2                !
 ! A52   A(18,20,21)           131.2213         estimate D2E/DX2                !
 ! A53   A(18,20,48)           114.0971         estimate D2E/DX2                !
 ! A54   A(21,20,48)           114.5043         estimate D2E/DX2                !
 ! A55   A(20,21,22)           117.3394         estimate D2E/DX2                !
 ! A56   A(20,21,36)           122.5948         estimate D2E/DX2                !
 ! A57   A(22,21,36)           120.0549         estimate D2E/DX2                !
 ! A58   A(21,22,23)           122.9792         estimate D2E/DX2                !
 ! A59   A(21,22,27)           118.2811         estimate D2E/DX2                !
 ! A60   A(23,22,27)           118.7391         estimate D2E/DX2                !
 ! A61   A(22,23,24)           120.4529         estimate D2E/DX2                !
 ! A62   A(22,23,49)           119.5412         estimate D2E/DX2                !
 ! A63   A(24,23,49)           120.0031         estimate D2E/DX2                !
 ! A64   A(23,24,25)           121.4494         estimate D2E/DX2                !
 ! A65   A(23,24,50)           118.6046         estimate D2E/DX2                !
 ! A66   A(25,24,50)           119.9455         estimate D2E/DX2                !
 ! A67   A(24,25,26)           117.4844         estimate D2E/DX2                !
 ! A68   A(24,25,28)           121.0695         estimate D2E/DX2                !
 ! A69   A(26,25,28)           121.3928         estimate D2E/DX2                !
 ! A70   A(25,26,27)           121.4784         estimate D2E/DX2                !
 ! A71   A(25,26,51)           119.9861         estimate D2E/DX2                !
 ! A72   A(27,26,51)           118.5334         estimate D2E/DX2                !
 ! A73   A(22,27,26)           120.3708         estimate D2E/DX2                !
 ! A74   A(22,27,52)           118.6073         estimate D2E/DX2                !
 ! A75   A(26,27,52)           121.0153         estimate D2E/DX2                !
 ! A76   A(25,28,29)           119.5738         estimate D2E/DX2                !
 ! A77   A(25,28,53)           108.2294         estimate D2E/DX2                !
 ! A78   A(25,28,54)           108.2752         estimate D2E/DX2                !
 ! A79   A(29,28,53)           106.9142         estimate D2E/DX2                !
 ! A80   A(29,28,54)           106.3878         estimate D2E/DX2                !
 ! A81   A(53,28,54)           106.816          estimate D2E/DX2                !
 ! A82   A(28,29,30)           119.4471         estimate D2E/DX2                !
 ! A83   A(28,29,35)           118.3752         estimate D2E/DX2                !
 ! A84   A(30,29,35)           110.2268         estimate D2E/DX2                !
 ! A85   A(29,30,31)           116.0657         estimate D2E/DX2                !
 ! A86   A(29,30,55)           110.3892         estimate D2E/DX2                !
 ! A87   A(29,30,56)           106.6889         estimate D2E/DX2                !
 ! A88   A(31,30,55)           110.7847         estimate D2E/DX2                !
 ! A89   A(31,30,56)           105.3456         estimate D2E/DX2                !
 ! A90   A(55,30,56)           106.9715         estimate D2E/DX2                !
 ! A91   A(30,31,32)           113.8819         estimate D2E/DX2                !
 ! A92   A(30,31,57)           111.5073         estimate D2E/DX2                !
 ! A93   A(30,31,58)           108.3487         estimate D2E/DX2                !
 ! A94   A(32,31,57)           109.4294         estimate D2E/DX2                !
 ! A95   A(32,31,58)           106.625          estimate D2E/DX2                !
 ! A96   A(57,31,58)           106.6756         estimate D2E/DX2                !
 ! A97   A(31,32,33)           116.5912         estimate D2E/DX2                !
 ! A98   A(31,32,34)           109.2234         estimate D2E/DX2                !
 ! A99   A(33,32,34)           116.4821         estimate D2E/DX2                !
 ! A100  A(32,33,59)           111.0505         estimate D2E/DX2                !
 ! A101  A(32,33,60)           110.175          estimate D2E/DX2                !
 ! A102  A(32,33,61)           110.1075         estimate D2E/DX2                !
 ! A103  A(59,33,60)           108.8427         estimate D2E/DX2                !
 ! A104  A(59,33,61)           108.7928         estimate D2E/DX2                !
 ! A105  A(60,33,61)           107.7947         estimate D2E/DX2                !
 ! A106  A(32,34,35)           113.9425         estimate D2E/DX2                !
 ! A107  A(32,34,62)           109.5669         estimate D2E/DX2                !
 ! A108  A(32,34,63)           106.7883         estimate D2E/DX2                !
 ! A109  A(35,34,62)           111.9088         estimate D2E/DX2                !
 ! A110  A(35,34,63)           106.9158         estimate D2E/DX2                !
 ! A111  A(62,34,63)           107.3447         estimate D2E/DX2                !
 ! A112  A(29,35,34)           115.7589         estimate D2E/DX2                !
 ! A113  A(29,35,64)           107.183          estimate D2E/DX2                !
 ! A114  A(29,35,65)           110.2369         estimate D2E/DX2                !
 ! A115  A(34,35,64)           105.8074         estimate D2E/DX2                !
 ! A116  A(34,35,65)           110.2863         estimate D2E/DX2                !
 ! A117  A(64,35,65)           107.0801         estimate D2E/DX2                !
 ! A118  A(15,37,66)           111.3091         estimate D2E/DX2                !
 ! A119  A(15,37,67)           111.5826         estimate D2E/DX2                !
 ! A120  A(15,37,68)           112.9406         estimate D2E/DX2                !
 ! A121  A(66,37,67)           107.5315         estimate D2E/DX2                !
 ! A122  A(66,37,68)           106.6876         estimate D2E/DX2                !
 ! A123  A(67,37,68)           106.454          estimate D2E/DX2                !
 ! D1    D(6,1,2,3)              0.1633         estimate D2E/DX2                !
 ! D2    D(6,1,2,39)           179.4438         estimate D2E/DX2                !
 ! D3    D(38,1,2,3)          -179.7001         estimate D2E/DX2                !
 ! D4    D(38,1,2,39)           -0.4196         estimate D2E/DX2                !
 ! D5    D(2,1,6,5)              0.2716         estimate D2E/DX2                !
 ! D6    D(2,1,6,41)           179.8905         estimate D2E/DX2                !
 ! D7    D(38,1,6,5)          -179.8638         estimate D2E/DX2                !
 ! D8    D(38,1,6,41)           -0.2449         estimate D2E/DX2                !
 ! D9    D(1,2,3,4)             -0.6291         estimate D2E/DX2                !
 ! D10   D(1,2,3,7)            178.877          estimate D2E/DX2                !
 ! D11   D(39,2,3,4)          -179.8825         estimate D2E/DX2                !
 ! D12   D(39,2,3,7)            -0.3764         estimate D2E/DX2                !
 ! D13   D(2,3,4,5)              0.7664         estimate D2E/DX2                !
 ! D14   D(2,3,4,40)          -178.2271         estimate D2E/DX2                !
 ! D15   D(7,3,4,5)           -178.7547         estimate D2E/DX2                !
 ! D16   D(7,3,4,40)             2.2518         estimate D2E/DX2                !
 ! D17   D(2,3,7,8)              1.7228         estimate D2E/DX2                !
 ! D18   D(2,3,7,12)          -176.7812         estimate D2E/DX2                !
 ! D19   D(4,3,7,8)           -178.7952         estimate D2E/DX2                !
 ! D20   D(4,3,7,12)             2.7009         estimate D2E/DX2                !
 ! D21   D(3,4,5,6)             -0.37           estimate D2E/DX2                !
 ! D22   D(40,4,5,6)           178.6711         estimate D2E/DX2                !
 ! D23   D(4,5,6,1)             -0.1765         estimate D2E/DX2                !
 ! D24   D(4,5,6,41)          -179.8136         estimate D2E/DX2                !
 ! D25   D(3,7,8,9)           -179.0171         estimate D2E/DX2                !
 ! D26   D(3,7,8,42)             1.0876         estimate D2E/DX2                !
 ! D27   D(12,7,8,9)            -0.5873         estimate D2E/DX2                !
 ! D28   D(12,7,8,42)          179.5174         estimate D2E/DX2                !
 ! D29   D(3,7,12,11)          178.6843         estimate D2E/DX2                !
 ! D30   D(8,7,12,11)            0.0909         estimate D2E/DX2                !
 ! D31   D(7,8,9,10)             0.5602         estimate D2E/DX2                !
 ! D32   D(7,8,9,43)          -179.7404         estimate D2E/DX2                !
 ! D33   D(42,8,9,10)         -179.5399         estimate D2E/DX2                !
 ! D34   D(42,8,9,43)            0.1595         estimate D2E/DX2                !
 ! D35   D(8,9,10,11)           -0.0118         estimate D2E/DX2                !
 ! D36   D(43,9,10,11)        -179.7246         estimate D2E/DX2                !
 ! D37   D(9,10,11,12)          -0.5637         estimate D2E/DX2                !
 ! D38   D(9,10,11,13)         179.3914         estimate D2E/DX2                !
 ! D39   D(10,11,12,7)           0.5298         estimate D2E/DX2                !
 ! D40   D(13,11,12,7)        -179.4233         estimate D2E/DX2                !
 ! D41   D(10,11,13,14)       -147.8203         estimate D2E/DX2                !
 ! D42   D(10,11,13,44)         26.0694         estimate D2E/DX2                !
 ! D43   D(12,11,13,14)         32.1371         estimate D2E/DX2                !
 ! D44   D(12,11,13,44)       -153.9731         estimate D2E/DX2                !
 ! D45   D(11,13,14,15)        163.0583         estimate D2E/DX2                !
 ! D46   D(11,13,14,19)        -17.0248         estimate D2E/DX2                !
 ! D47   D(44,13,14,15)        -10.4645         estimate D2E/DX2                !
 ! D48   D(44,13,14,19)        169.4524         estimate D2E/DX2                !
 ! D49   D(13,14,15,16)       -179.5573         estimate D2E/DX2                !
 ! D50   D(13,14,15,37)         -0.3513         estimate D2E/DX2                !
 ! D51   D(19,14,15,16)          0.5235         estimate D2E/DX2                !
 ! D52   D(19,14,15,37)        179.7295         estimate D2E/DX2                !
 ! D53   D(13,14,19,18)       -179.6138         estimate D2E/DX2                !
 ! D54   D(13,14,19,47)          0.0796         estimate D2E/DX2                !
 ! D55   D(15,14,19,18)          0.3034         estimate D2E/DX2                !
 ! D56   D(15,14,19,47)        179.9968         estimate D2E/DX2                !
 ! D57   D(14,15,16,17)         -0.3959         estimate D2E/DX2                !
 ! D58   D(14,15,16,45)        179.4654         estimate D2E/DX2                !
 ! D59   D(37,15,16,17)       -179.637          estimate D2E/DX2                !
 ! D60   D(37,15,16,45)          0.2242         estimate D2E/DX2                !
 ! D61   D(14,15,37,66)         66.1636         estimate D2E/DX2                !
 ! D62   D(14,15,37,67)        -53.9698         estimate D2E/DX2                !
 ! D63   D(14,15,37,68)       -173.8501         estimate D2E/DX2                !
 ! D64   D(16,15,37,66)       -114.6465         estimate D2E/DX2                !
 ! D65   D(16,15,37,67)        125.2201         estimate D2E/DX2                !
 ! D66   D(16,15,37,68)          5.3398         estimate D2E/DX2                !
 ! D67   D(15,16,17,18)         -0.5662         estimate D2E/DX2                !
 ! D68   D(15,16,17,46)        179.8759         estimate D2E/DX2                !
 ! D69   D(45,16,17,18)        179.5696         estimate D2E/DX2                !
 ! D70   D(45,16,17,46)          0.0116         estimate D2E/DX2                !
 ! D71   D(16,17,18,19)          1.3791         estimate D2E/DX2                !
 ! D72   D(16,17,18,20)        179.9023         estimate D2E/DX2                !
 ! D73   D(46,17,18,19)       -179.0573         estimate D2E/DX2                !
 ! D74   D(46,17,18,20)         -0.5341         estimate D2E/DX2                !
 ! D75   D(17,18,19,14)         -1.2856         estimate D2E/DX2                !
 ! D76   D(17,18,19,47)        179.0261         estimate D2E/DX2                !
 ! D77   D(20,18,19,14)       -179.9619         estimate D2E/DX2                !
 ! D78   D(20,18,19,47)          0.3498         estimate D2E/DX2                !
 ! D79   D(17,18,20,21)         -8.2641         estimate D2E/DX2                !
 ! D80   D(17,18,20,48)        176.926          estimate D2E/DX2                !
 ! D81   D(19,18,20,21)        170.3136         estimate D2E/DX2                !
 ! D82   D(19,18,20,48)         -4.4963         estimate D2E/DX2                !
 ! D83   D(18,20,21,22)       -168.3955         estimate D2E/DX2                !
 ! D84   D(18,20,21,36)         12.8041         estimate D2E/DX2                !
 ! D85   D(48,20,21,22)          6.3977         estimate D2E/DX2                !
 ! D86   D(48,20,21,36)       -172.4028         estimate D2E/DX2                !
 ! D87   D(20,21,22,23)         35.2573         estimate D2E/DX2                !
 ! D88   D(20,21,22,27)       -145.0326         estimate D2E/DX2                !
 ! D89   D(36,21,22,23)       -145.9103         estimate D2E/DX2                !
 ! D90   D(36,21,22,27)         33.7998         estimate D2E/DX2                !
 ! D91   D(21,22,23,24)       -178.4759         estimate D2E/DX2                !
 ! D92   D(21,22,23,49)          0.9204         estimate D2E/DX2                !
 ! D93   D(27,22,23,24)          1.8153         estimate D2E/DX2                !
 ! D94   D(27,22,23,49)       -178.7884         estimate D2E/DX2                !
 ! D95   D(21,22,27,26)        178.5647         estimate D2E/DX2                !
 ! D96   D(21,22,27,52)         -0.5036         estimate D2E/DX2                !
 ! D97   D(23,22,27,26)         -1.7127         estimate D2E/DX2                !
 ! D98   D(23,22,27,52)        179.219          estimate D2E/DX2                !
 ! D99   D(22,23,24,25)         -1.196          estimate D2E/DX2                !
 ! D100  D(22,23,24,50)        179.0495         estimate D2E/DX2                !
 ! D101  D(49,23,24,25)        179.4106         estimate D2E/DX2                !
 ! D102  D(49,23,24,50)         -0.344          estimate D2E/DX2                !
 ! D103  D(23,24,25,26)          0.4251         estimate D2E/DX2                !
 ! D104  D(23,24,25,28)        177.8066         estimate D2E/DX2                !
 ! D105  D(50,24,25,26)       -179.8236         estimate D2E/DX2                !
 ! D106  D(50,24,25,28)         -2.4421         estimate D2E/DX2                !
 ! D107  D(24,25,26,27)         -0.3225         estimate D2E/DX2                !
 ! D108  D(24,25,26,51)        179.1418         estimate D2E/DX2                !
 ! D109  D(28,25,26,27)       -177.6951         estimate D2E/DX2                !
 ! D110  D(28,25,26,51)          1.7693         estimate D2E/DX2                !
 ! D111  D(24,25,28,29)        -82.9343         estimate D2E/DX2                !
 ! D112  D(24,25,28,53)         39.6878         estimate D2E/DX2                !
 ! D113  D(24,25,28,54)        155.1255         estimate D2E/DX2                !
 ! D114  D(26,25,28,29)         94.3443         estimate D2E/DX2                !
 ! D115  D(26,25,28,53)       -143.0336         estimate D2E/DX2                !
 ! D116  D(26,25,28,54)        -27.5959         estimate D2E/DX2                !
 ! D117  D(25,26,27,22)          0.9893         estimate D2E/DX2                !
 ! D118  D(25,26,27,52)       -179.9651         estimate D2E/DX2                !
 ! D119  D(51,26,27,22)       -178.4826         estimate D2E/DX2                !
 ! D120  D(51,26,27,52)          0.563          estimate D2E/DX2                !
 ! D121  D(25,28,29,30)         74.6299         estimate D2E/DX2                !
 ! D122  D(25,28,29,35)        -64.4989         estimate D2E/DX2                !
 ! D123  D(53,28,29,30)        -48.635          estimate D2E/DX2                !
 ! D124  D(53,28,29,35)        172.2363         estimate D2E/DX2                !
 ! D125  D(54,28,29,30)       -162.5019         estimate D2E/DX2                !
 ! D126  D(54,28,29,35)         58.3694         estimate D2E/DX2                !
 ! D127  D(28,29,30,31)        -96.9945         estimate D2E/DX2                !
 ! D128  D(28,29,30,55)         30.1085         estimate D2E/DX2                !
 ! D129  D(28,29,30,56)        145.9914         estimate D2E/DX2                !
 ! D130  D(35,29,30,31)         45.1566         estimate D2E/DX2                !
 ! D131  D(35,29,30,55)        172.2596         estimate D2E/DX2                !
 ! D132  D(35,29,30,56)        -71.8575         estimate D2E/DX2                !
 ! D133  D(28,29,35,34)         97.1795         estimate D2E/DX2                !
 ! D134  D(28,29,35,64)       -145.0584         estimate D2E/DX2                !
 ! D135  D(28,29,35,65)        -28.8488         estimate D2E/DX2                !
 ! D136  D(30,29,35,34)        -45.4278         estimate D2E/DX2                !
 ! D137  D(30,29,35,64)         72.3343         estimate D2E/DX2                !
 ! D138  D(30,29,35,65)       -171.4561         estimate D2E/DX2                !
 ! D139  D(29,30,31,32)        -50.698          estimate D2E/DX2                !
 ! D140  D(29,30,31,57)       -175.1344         estimate D2E/DX2                !
 ! D141  D(29,30,31,58)         67.7593         estimate D2E/DX2                !
 ! D142  D(55,30,31,32)       -177.6039         estimate D2E/DX2                !
 ! D143  D(55,30,31,57)         57.9596         estimate D2E/DX2                !
 ! D144  D(55,30,31,58)        -59.1467         estimate D2E/DX2                !
 ! D145  D(56,30,31,32)         67.0605         estimate D2E/DX2                !
 ! D146  D(56,30,31,57)        -57.3759         estimate D2E/DX2                !
 ! D147  D(56,30,31,58)       -174.4822         estimate D2E/DX2                !
 ! D148  D(30,31,32,33)        -83.0202         estimate D2E/DX2                !
 ! D149  D(30,31,32,34)         51.6204         estimate D2E/DX2                !
 ! D150  D(57,31,32,33)         42.5244         estimate D2E/DX2                !
 ! D151  D(57,31,32,34)        177.165          estimate D2E/DX2                !
 ! D152  D(58,31,32,33)        157.5407         estimate D2E/DX2                !
 ! D153  D(58,31,32,34)        -67.8187         estimate D2E/DX2                !
 ! D154  D(31,32,33,59)         65.8988         estimate D2E/DX2                !
 ! D155  D(31,32,33,60)        -54.772          estimate D2E/DX2                !
 ! D156  D(31,32,33,61)       -173.5379         estimate D2E/DX2                !
 ! D157  D(34,32,33,59)        -65.4575         estimate D2E/DX2                !
 ! D158  D(34,32,33,60)        173.8717         estimate D2E/DX2                !
 ! D159  D(34,32,33,61)         55.1058         estimate D2E/DX2                !
 ! D160  D(31,32,34,35)        -52.0833         estimate D2E/DX2                !
 ! D161  D(31,32,34,62)       -178.3186         estimate D2E/DX2                !
 ! D162  D(31,32,34,63)         65.7236         estimate D2E/DX2                !
 ! D163  D(33,32,34,35)         82.6124         estimate D2E/DX2                !
 ! D164  D(33,32,34,62)        -43.6229         estimate D2E/DX2                !
 ! D165  D(33,32,34,63)       -159.5807         estimate D2E/DX2                !
 ! D166  D(32,34,35,29)         51.4562         estimate D2E/DX2                !
 ! D167  D(32,34,35,64)        -67.0675         estimate D2E/DX2                !
 ! D168  D(32,34,35,65)        177.4593         estimate D2E/DX2                !
 ! D169  D(62,34,35,29)        176.4536         estimate D2E/DX2                !
 ! D170  D(62,34,35,64)         57.9299         estimate D2E/DX2                !
 ! D171  D(62,34,35,65)        -57.5433         estimate D2E/DX2                !
 ! D172  D(63,34,35,29)        -66.2774         estimate D2E/DX2                !
 ! D173  D(63,34,35,64)        175.1989         estimate D2E/DX2                !
 ! D174  D(63,34,35,65)         59.7258         estimate D2E/DX2                !
 --------------------------------------------------------------------------------
 Trust Radius=3.00D-01 FncErr=1.00D-07 GrdErr=1.00D-06
 Number of steps in this run= 400 maximum allowed number of steps= 408.
 GradGradGradGradGradGradGradGradGradGradGradGradGradGradGradGradGradGrad

 Leave Link  103 at Thu Feb 27 14:57:05 2020, MaxMem= 2684354560 cpu:       0.1
 (Enter /opt/g09gh/gaussian/g09/l202.exe)
 Stoichiometry    C29H31N7O
 Framework group  C1[X(C29H31N7O)]
 Deg. of freedom   198
 Full point group                 C1      NOp   1
 Largest Abelian subgroup         C1      NOp   1
 Largest concise Abelian subgroup C1      NOp   1
                         Standard orientation:                         
 ---------------------------------------------------------------------
 Center     Atomic      Atomic             Coordinates (Angstroms)
 Number     Number       Type             X           Y           Z
 ---------------------------------------------------------------------
      1          6           0        0.054460    4.816577   -0.467520
      2          6           0        1.421120    4.527106   -0.581515
      3          6           0        1.916354    3.278892   -0.153118
      4          6           0        0.955476    2.390924    0.390786
      5          7           0       -0.352505    2.649501    0.505472
      6          6           0       -0.789152    3.843643    0.079801
      7          6           0        3.366184    2.874946   -0.261228
      8          6           0        4.401810    3.682219   -0.759861
      9          6           0        5.671537    3.094942   -0.788228
     10          7           0        5.934573    1.853242   -0.391681
     11          6           0        4.877381    1.148296    0.061177
     12          7           0        3.628701    1.615563    0.140606
     13          7           0        5.157279   -0.144950    0.458743
     14          6           0        4.394640   -1.366433    0.429394
     15          6           0        5.070201   -2.616074    0.574996
     16          6           0        4.283698   -3.779406    0.530044
     17          6           0        2.894526   -3.776170    0.360837
     18          6           0        2.244418   -2.543574    0.240201
     19          6           0        3.003852   -1.362130    0.263131
     20          7           0        0.836487   -2.355642    0.060494
     21          6           0       -0.173957   -3.255779   -0.184347
     22          6           0       -1.523332   -2.694864   -0.589325
     23          6           0       -1.666238   -1.547999   -1.387629
     24          6           0       -2.935427   -1.058861   -1.702855
     25          6           0       -4.103190   -1.705653   -1.257123
     26          6           0       -3.945183   -2.863407   -0.470939
     27          6           0       -2.679488   -3.359179   -0.148610
     28          6           0       -5.488292   -1.134943   -1.565511
     29          7           0       -6.042336   -0.069217   -0.711848
     30          6           0       -5.515928    1.308401   -0.834201
     31          6           0       -4.429343    1.716735    0.194715
     32          7           0       -4.801262    1.438600    1.602820
     33          6           0       -5.639989    2.441743    2.271703
     34          6           0       -5.236634    0.026783    1.722865
     35          6           0       -6.331816   -0.382381    0.705347
     36          8           0       -0.023538   -4.461360   -0.066236
     37          6           0        6.573451   -2.741630    0.754960
     38          1           0       -0.348183    5.770161   -0.795976
     39          1           0        2.070738    5.282783   -1.015854
     40          1           0        1.262598    1.421439    0.769526
     41          1           0       -1.856971    4.024596    0.189553
     42          1           0        4.266057    4.698746   -1.107621
     43          1           0        6.528671    3.657519   -1.157277
     44          1           0        6.123367   -0.209973    0.742952
     45          1           0        4.765448   -4.751504    0.628774
     46          1           0        2.326397   -4.697841    0.329898
     47          1           0        2.510999   -0.408474    0.154779
     48          1           0        0.548408   -1.387141    0.043029
     49          1           0       -0.779826   -1.034954   -1.752450
     50          1           0       -3.011087   -0.157679   -2.311541
     51          1           0       -4.821750   -3.388454   -0.092385
     52          1           0       -2.566258   -4.253950    0.458412
     53          1           0       -5.479627   -0.748179   -2.595114
     54          1           0       -6.214550   -1.960509   -1.541852
     55          1           0       -5.132210    1.518438   -1.977799
     56          1           0       -6.725507    2.279460   -0.569961
     57          1           0       -4.162213    2.745962    0.094465
     58          1           0       -3.279762    0.978793   -0.066407
     59          1           0       -6.633385    2.494057    1.811938
     60          1           0       -5.169120    3.429708    2.210570
     61          1           0       -5.754614    2.190348    3.332433
     62          1           0       -5.539113   -0.175183    2.747725
     63          1           0       -4.020284   -0.833305    1.432228
     64          1           0       -7.604899    0.424049    1.104459
     65          1           0       -6.608356   -1.586344    0.831357
     66          1           0        6.898204   -2.312466    1.713229
     67          1           0        7.121037   -2.221305   -0.043347
     68          1           0        6.920704   -3.783929    0.742229
 ---------------------------------------------------------------------
 Rotational constants (GHZ):      0.1310617      0.0594410      0.0436070
 Leave Link  202 at Thu Feb 27 14:57:05 2020, MaxMem= 2684354560 cpu:       0.0
 (Enter /opt/g09gh/gaussian/g09/l301.exe)
 Standard basis: 6-31G(d) (6D, 7F)
 Ernie: Thresh=  0.10000D-02 Tol=  0.10000D-05 Strict=F.
 There are   617 symmetry adapted basis functions of A   symmetry.
 Integral buffers will be    131072 words long.
 Raffenetti 2 integral format.
 Two-electron integral symmetry is turned on.
   617 basis functions,  1160 primitive gaussians,   617 cartesian basis functions
   131 alpha electrons      131 beta electrons
       nuclear repulsion energy      3753.8322882603 Hartrees.
 IExCor= 4639 DFT=T Ex+Corr=wB97XD ExCW=0 ScaHFX=  1.000000
 ScaDFX=  1.000000  1.000000  1.000000  1.000000 ScalE2=  1.000000  1.000000
 IRadAn=      0 IRanWt=     -1 IRanGd=            0 ICorTp=0
  HFx wShort=  0.000000 wLong=  0.200000 cFull=  0.222036 cShort=  0.000000 cLong=  0.777964
  DFx wShort=  0.000000 wLong=  0.200000 cFull=  0.000000 cShort=  0.000000 cLong=  1.000000
 NAtoms=   68 NActive=   68 NUniq=   68 SFac= 7.50D-01 NAtFMM=   80 NAOKFM=F Big=T
 R6Disp: Dispersion energy =        -0.0574026171 Hartrees.
 Nuclear repulsion after empirical dispersion term =     3753.7748856432 Hartrees.
 Leave Link  301 at Thu Feb 27 14:57:05 2020, MaxMem= 2684354560 cpu:       0.3
 (Enter /opt/g09gh/gaussian/g09/l302.exe)
 NPDir=0 NMtPBC=     1 NCelOv=     1 NCel=       1 NClECP=     1 NCelD=      1
         NCelK=      1 NCelE2=     1 NClLst=     1 CellRange=     0.0.
 One-electron integrals computed using PRISM.
 NBasis=   617 RedAO= T  NBF=   617
 NBsUse=   617 1.00D-06 NBFU=   617
 Precomputing XC quadrature grid using
 IXCGrd= 2 IRadAn=           0 IRanWt=          -1 IRanGd=           0 AccXCQ= 1.00D-10.
 NRdTot=    4377 NPtTot=      559378 NUsed=      590914 NTot=      590946
 NSgBfM=   602   602   602   602   602 NAtAll=    68    68.
 Leave Link  302 at Thu Feb 27 14:57:06 2020, MaxMem= 2684354560 cpu:       8.6
 (Enter /opt/g09gh/gaussian/g09/l303.exe)
 DipDrv:  MaxL=1.
 Leave Link  303 at Thu Feb 27 14:57:07 2020, MaxMem= 2684354560 cpu:       0.6
 (Enter /opt/g09gh/gaussian/g09/l401.exe)
 Harris functional with IExCor= 4639 diagonalized for initial guess.
 ExpMin= 1.61D-01 ExpMax= 5.48D+03 ExpMxC= 8.25D+02 IAcc=1 IRadAn=         1 AccDes= 0.00D+00
 HarFok:  IExCor= 4639 AccDes= 0.00D+00 IRadAn=         1 IDoV= 1
 ScaDFX=  1.000000  1.000000  1.000000  1.000000
 FoFCou: FMM=F IPFlag=           0 FMFlag=      100000 FMFlg1=           1
         NFxFlg=           0 DoJE=T BraDBF=F KetDBF=T FulRan=T
         Omega=  0.000000  0.000000  1.000000  0.000000  0.000000 ICntrl=     500 IOpCl=  0
         NMat0=    1 NMatS0=    1 NMatT0=    0 NMatD0=    1 NMtDS0=    0 NMtDT0=    0
         I1Cent=           4 NGrid=           0.
 Petite list used in FoFCou.
 Harris En= -1512.40398530011    
 Initial guess orbital symmetries:
       Occupied  (A) (A) (A) (A) (A) (A) (A) (A) (A) (A) (A) (A)
                 (A) (A) (A) (A) (A) (A) (A) (A) (A) (A) (A) (A)
                 (A) (A) (A) (A) (A) (A) (A) (A) (A) (A) (A) (A)
                 (A) (A) (A) (A) (A) (A) (A) (A) (A) (A) (A) (A)
                 (A) (A) (A) (A) (A) (A) (A) (A) (A) (A) (A) (A)
                 (A) (A) (A) (A) (A) (A) (A) (A) (A) (A) (A) (A)
                 (A) (A) (A) (A) (A) (A) (A) (A) (A) (A) (A) (A)
                 (A) (A) (A) (A) (A) (A) (A) (A) (A) (A) (A) (A)
                 (A) (A) (A) (A) (A) (A) (A) (A) (A) (A) (A) (A)
                 (A) (A) (A) (A) (A) (A) (A) (A) (A) (A) (A) (A)
                 (A) (A) (A) (A) (A) (A) (A) (A) (A) (A) (A)
       Virtual   (A) (A) (A) (A) (A) (A) (A) (A) (A) (A) (A) (A)
                 (A) (A) (A) (A) (A) (A) (A) (A) (A) (A) (A) (A)
                 (A) (A) (A) (A) (A) (A) (A) (A) (A) (A) (A) (A)
                 (A) (A) (A) (A) (A) (A) (A) (A) (A) (A) (A) (A)
                 (A) (A) (A) (A) (A) (A) (A) (A) (A) (A) (A) (A)
                 (A) (A) (A) (A) (A) (A) (A) (A) (A) (A) (A) (A)
                 (A) (A) (A) (A) (A) (A) (A) (A) (A) (A) (A) (A)
                 (A) (A) (A) (A) (A) (A) (A) (A) (A) (A) (A) (A)
                 (A) (A) (A) (A) (A) (A) (A) (A) (A) (A) (A) (A)
                 (A) (A) (A) (A) (A) (A) (A) (A) (A) (A) (A) (A)
                 (A) (A) (A) (A) (A) (A) (A) (A) (A) (A) (A) (A)
                 (A) (A) (A) (A) (A) (A) (A) (A) (A) (A) (A) (A)
                 (A) (A) (A) (A) (A) (A) (A) (A) (A) (A) (A) (A)
                 (A) (A) (A) (A) (A) (A) (A) (A) (A) (A) (A) (A)
                 (A) (A) (A) (A) (A) (A) (A) (A) (A) (A) (A) (A)
                 (A) (A) (A) (A) (A) (A) (A) (A) (A) (A) (A) (A)
                 (A) (A) (A) (A) (A) (A) (A) (A) (A) (A) (A) (A)
                 (A) (A) (A) (A) (A) (A) (A) (A) (A) (A) (A) (A)
                 (A) (A) (A) (A) (A) (A) (A) (A) (A) (A) (A) (A)
                 (A) (A) (A) (A) (A) (A) (A) (A) (A) (A) (A) (A)
                 (A) (A) (A) (A) (A) (A) (A) (A) (A) (A) (A) (A)
                 (A) (A) (A) (A) (A) (A) (A) (A) (A) (A) (A) (A)
                 (A) (A) (A) (A) (A) (A) (A) (A) (A) (A) (A) (A)
                 (A) (A) (A) (A) (A) (A) (A) (A) (A) (A) (A) (A)
                 (A) (A) (A) (A) (A) (A) (A) (A) (A) (A) (A) (A)
                 (A) (A) (A) (A) (A) (A) (A) (A) (A) (A) (A) (A)
                 (A) (A) (A) (A) (A) (A) (A) (A) (A) (A) (A) (A)
                 (A) (A) (A) (A) (A) (A) (A) (A) (A) (A) (A) (A)
                 (A) (A) (A) (A) (A) (A) (A) (A) (A) (A) (A) (A)
                 (A) (A) (A) (A) (A) (A) (A) (A) (A) (A) (A) (A)
                 (A) (A) (A) (A) (A) (A) (A) (A) (A) (A) (A) (A)
                 (A) (A) (A) (A) (A) (A) (A) (A) (A) (A) (A) (A)
                 (A) (A) (A) (A) (A) (A) (A) (A) (A) (A) (A) (A)
                 (A) (A) (A) (A) (A) (A) (A) (A) (A) (A) (A) (A)
                 (A) (A) (A) (A) (A) (A) (A) (A) (A) (A) (A) (A)
                 (A) (A) (A) (A) (A) (A) (A) (A) (A) (A) (A) (A)
                 (A) (A) (A) (A) (A) (A) (A) (A) (A) (A) (A) (A)
                 (A) (A) (A) (A) (A) (A) (A) (A) (A) (A) (A) (A)
                 (A) (A) (A) (A) (A) (A) (A) (A) (A) (A) (A) (A)
                 (A) (A) (A) (A) (A) (A) (A) (A) (A) (A) (A) (A)
                 (A) (A) (A) (A) (A) (A)
 The electronic state of the initial guess is 1-A.
 Leave Link  401 at Thu Feb 27 14:57:10 2020, MaxMem= 2684354560 cpu:      17.8
 (Enter /opt/g09gh/gaussian/g09/l502.exe)
 Closed shell SCF:
 Requested convergence on RMS density matrix=1.00D-08 within 128 cycles.
 Requested convergence on MAX density matrix=1.00D-06.
 Requested convergence on             energy=1.00D-06.
 No special actions if energy rises.
 Using DIIS extrapolation, IDIIS=  1040.
 Integral symmetry usage will be decided dynamically.
       590289 words used for storage of precomputed grid.
 IEnd=     1758869 IEndB=     1758869 NGot=  2684354560 MDV=  2682993638
 LenX=  2682993638 LenY=  2682612332
 Fock matrices will be formed incrementally for  20 cycles.
 Integral accuracy reduced to 1.0D-05 until final iterations.

 Cycle   1  Pass 0  IDiag  1:
 FoFJK:  IHMeth= 1 ICntrl=     0 DoSepK=T KAlg= 1 I1Cent= 0 FoldK=F
 FoFCou: FMM=T IPFlag=           0 FMFlag=      100000 FMFlg1=           1
         NFxFlg=           0 DoJE=T BraDBF=F KetDBF=F FulRan=T
         Omega=  0.000000  0.000000  1.000000  0.000000  0.000000 ICntrl=     500 IOpCl=  0
         NMat0=    1 NMatS0=    1 NMatT0=    0 NMatD0=    1 NMtDS0=    0 NMtDT0=    0
         I1Cent=           0 NGrid=           0.
 Symmetry not used in FoFCou.
 FMM levels:  10  Number of levels for PrismC:   9
 E= -1581.15965674242    
 DIIS: error= 5.90D-02 at cycle   1 NSaved=   1.
 NSaved= 1 IEnMin= 1 EnMin= -1581.15965674242     IErMin= 1 ErrMin= 5.90D-02
 ErrMax= 5.90D-02 EMaxC= 1.00D-01 BMatC= 1.46D+00 BMatP= 1.46D+00
 IDIUse=3 WtCom= 4.10D-01 WtEn= 5.90D-01
 Coeff-Com:  0.100D+01
 Coeff-En:   0.100D+01
 Coeff:      0.100D+01
 Gap=     0.268 Goal=   None    Shift=    0.000
 GapD=    0.268 DampG=1.000 DampE=0.500 DampFc=0.5000 IDamp=-1.
 Damping current iteration by 5.00D-01
 RMSDP=1.89D-03 MaxDP=8.83D-02              OVMax= 1.70D-01

 Cycle   2  Pass 0  IDiag  1:
 RMSU=  6.66D-04    CP:  1.00D+00
 FoFJK:  IHMeth= 1 ICntrl=     0 DoSepK=T KAlg= 1 I1Cent= 0 FoldK=F
 E= -1581.33602973702     Delta-E=       -0.176372994599 Rises=F Damp=T
 DIIS: error= 3.01D-02 at cycle   2 NSaved=   2.
 NSaved= 2 IEnMin= 2 EnMin= -1581.33602973702     IErMin= 2 ErrMin= 3.01D-02
 ErrMax= 3.01D-02 EMaxC= 1.00D-01 BMatC= 3.22D-01 BMatP= 1.46D+00
 IDIUse=3 WtCom= 6.99D-01 WtEn= 3.01D-01
 Coeff-Com: -0.656D+00 0.166D+01
 Coeff-En:   0.000D+00 0.100D+01
 Coeff:     -0.459D+00 0.146D+01
 Gap=     0.283 Goal=   None    Shift=    0.000
 RMSDP=8.77D-04 MaxDP=3.78D-02 DE=-1.76D-01 OVMax= 1.19D-01

 Cycle   3  Pass 0  IDiag  1:
 RMSU=  5.65D-04    CP:  1.00D+00  1.38D+00
 FoFJK:  IHMeth= 1 ICntrl=     0 DoSepK=T KAlg= 1 I1Cent= 0 FoldK=F
 E= -1581.46764160560     Delta-E=       -0.131611868587 Rises=F Damp=F
 DIIS: error= 7.33D-03 at cycle   3 NSaved=   3.
 NSaved= 3 IEnMin= 3 EnMin= -1581.46764160560     IErMin= 3 ErrMin= 7.33D-03
 ErrMax= 7.33D-03 EMaxC= 1.00D-01 BMatC= 6.00D-02 BMatP= 3.22D-01
 IDIUse=3 WtCom= 9.27D-01 WtEn= 7.33D-02
 Coeff-Com: -0.361D+00 0.745D+00 0.615D+00
 Coeff-En:   0.000D+00 0.000D+00 0.100D+01
 Coeff:     -0.334D+00 0.691D+00 0.643D+00
 Gap=     0.261 Goal=   None    Shift=    0.000
 RMSDP=4.64D-04 MaxDP=2.84D-02 DE=-1.32D-01 OVMax= 6.07D-02

 Cycle   4  Pass 0  IDiag  1:
 RMSU=  1.42D-04    CP:  1.00D+00  1.67D+00  5.98D-01
 FoFJK:  IHMeth= 1 ICntrl=     0 DoSepK=T KAlg= 1 I1Cent= 0 FoldK=F
 E= -1581.52105239646     Delta-E=       -0.053410790855 Rises=F Damp=F
 DIIS: error= 1.68D-03 at cycle   4 NSaved=   4.
 NSaved= 4 IEnMin= 4 EnMin= -1581.52105239646     IErMin= 4 ErrMin= 1.68D-03
 ErrMax= 1.68D-03 EMaxC= 1.00D-01 BMatC= 3.57D-03 BMatP= 6.00D-02
 IDIUse=3 WtCom= 9.83D-01 WtEn= 1.68D-02
 Coeff-Com: -0.162D+00 0.329D+00 0.345D+00 0.487D+00
 Coeff-En:   0.000D+00 0.000D+00 0.000D+00 0.100D+01
 Coeff:     -0.159D+00 0.324D+00 0.339D+00 0.496D+00
 Gap=     0.255 Goal=   None    Shift=    0.000
 RMSDP=1.00D-04 MaxDP=9.07D-03 DE=-5.34D-02 OVMax= 1.01D-02

 Cycle   5  Pass 0  IDiag  1:
 RMSU=  4.56D-05    CP:  1.00D+00  1.65D+00  6.62D-01  7.24D-01
 FoFJK:  IHMeth= 1 ICntrl=     0 DoSepK=T KAlg= 1 I1Cent= 0 FoldK=F
 E= -1581.52413662795     Delta-E=       -0.003084231495 Rises=F Damp=F
 DIIS: error= 3.43D-04 at cycle   5 NSaved=   5.
 NSaved= 5 IEnMin= 5 EnMin= -1581.52413662795     IErMin= 5 ErrMin= 3.43D-04
 ErrMax= 3.43D-04 EMaxC= 1.00D-01 BMatC= 8.53D-05 BMatP= 3.57D-03
 IDIUse=3 WtCom= 9.97D-01 WtEn= 3.43D-03
 Coeff-Com: -0.154D-01 0.305D-01 0.535D-01 0.154D+00 0.777D+00
 Coeff-En:   0.000D+00 0.000D+00 0.000D+00 0.000D+00 0.100D+01
 Coeff:     -0.154D-01 0.304D-01 0.533D-01 0.153D+00 0.778D+00
 Gap=     0.253 Goal=   None    Shift=    0.000
 RMSDP=2.38D-05 MaxDP=2.50D-03 DE=-3.08D-03 OVMax= 2.82D-03

 Cycle   6  Pass 0  IDiag  1:
 RMSU=  1.30D-05    CP:  1.00D+00  1.66D+00  6.69D-01  7.88D-01  9.94D-01
 FoFJK:  IHMeth= 1 ICntrl=     0 DoSepK=T KAlg= 1 I1Cent= 0 FoldK=F
 E= -1581.52422135022     Delta-E=       -0.000084722271 Rises=F Damp=F
 DIIS: error= 2.18D-04 at cycle   6 NSaved=   6.
 NSaved= 6 IEnMin= 6 EnMin= -1581.52422135022     IErMin= 6 ErrMin= 2.18D-04
 ErrMax= 2.18D-04 EMaxC= 1.00D-01 BMatC= 2.63D-05 BMatP= 8.53D-05
 IDIUse=3 WtCom= 9.98D-01 WtEn= 2.18D-03
 Coeff-Com:  0.229D-01-0.474D-01-0.363D-01-0.178D-01 0.395D+00 0.684D+00
 Coeff-En:   0.000D+00 0.000D+00 0.000D+00 0.000D+00 0.000D+00 0.100D+01
 Coeff:      0.229D-01-0.473D-01-0.362D-01-0.178D-01 0.394D+00 0.685D+00
 Gap=     0.254 Goal=   None    Shift=    0.000
 RMSDP=1.29D-05 MaxDP=7.96D-04 DE=-8.47D-05 OVMax= 1.63D-03

 Cycle   7  Pass 0  IDiag  1:
 RMSU=  5.62D-06    CP:  1.00D+00  1.66D+00  6.73D-01  8.15D-01  1.11D+00
                    CP:  8.94D-01
 FoFJK:  IHMeth= 1 ICntrl=     0 DoSepK=T KAlg= 1 I1Cent= 0 FoldK=F
 E= -1581.52425092848     Delta-E=       -0.000029578256 Rises=F Damp=F
 DIIS: error= 5.68D-05 at cycle   7 NSaved=   7.
 NSaved= 7 IEnMin= 7 EnMin= -1581.52425092848     IErMin= 7 ErrMin= 5.68D-05
 ErrMax= 5.68D-05 EMaxC= 1.00D-01 BMatC= 1.63D-06 BMatP= 2.63D-05
 IDIUse=1 WtCom= 1.00D+00 WtEn= 0.00D+00
 Coeff-Com:  0.937D-02-0.192D-01-0.168D-01-0.209D-01 0.625D-01 0.233D+00
 Coeff-Com:  0.752D+00
 Coeff:      0.937D-02-0.192D-01-0.168D-01-0.209D-01 0.625D-01 0.233D+00
 Coeff:      0.752D+00
 Gap=     0.254 Goal=   None    Shift=    0.000
 RMSDP=4.07D-06 MaxDP=2.65D-04 DE=-2.96D-05 OVMax= 6.40D-04

 Initial convergence to 1.0D-05 achieved.  Increase integral accuracy.
 Cycle   8  Pass 1  IDiag  1:
 FoFJK:  IHMeth= 1 ICntrl=     0 DoSepK=T KAlg= 1 I1Cent= 0 FoldK=F
 E= -1581.52265575332     Delta-E=        0.001595175163 Rises=F Damp=F
 DIIS: error= 8.30D-05 at cycle   1 NSaved=   1.
 NSaved= 1 IEnMin= 1 EnMin= -1581.52265575332     IErMin= 1 ErrMin= 8.30D-05
 ErrMax= 8.30D-05 EMaxC= 1.00D-01 BMatC= 1.31D-05 BMatP= 1.31D-05
 IDIUse=1 WtCom= 1.00D+00 WtEn= 0.00D+00
 Coeff-Com:  0.100D+01
 Coeff:      0.100D+01
 Gap=     0.254 Goal=   None    Shift=    0.000
 RMSDP=4.07D-06 MaxDP=2.65D-04 DE= 1.60D-03 OVMax= 4.33D-04

 Cycle   9  Pass 1  IDiag  1:
 RMSU=  1.82D-05    CP:  1.00D+00
 FoFJK:  IHMeth= 1 ICntrl=     0 DoSepK=T KAlg= 1 I1Cent= 0 FoldK=F
 E= -1581.52266625249     Delta-E=       -0.000010499172 Rises=F Damp=F
 DIIS: error= 2.95D-05 at cycle   2 NSaved=   2.
 NSaved= 2 IEnMin= 2 EnMin= -1581.52266625249     IErMin= 2 ErrMin= 2.95D-05
 ErrMax= 2.95D-05 EMaxC= 1.00D-01 BMatC= 7.51D-07 BMatP= 1.31D-05
 IDIUse=1 WtCom= 1.00D+00 WtEn= 0.00D+00
 Coeff-Com:  0.349D-01 0.965D+00
 Coeff:      0.349D-01 0.965D+00
 Gap=     0.254 Goal=   None    Shift=    0.000
 RMSDP=3.18D-06 MaxDP=2.25D-04 DE=-1.05D-05 OVMax= 3.20D-04

 Cycle  10  Pass 1  IDiag  1:
 RMSU=  2.09D-06    CP:  1.00D+00  1.05D+00
 FoFJK:  IHMeth= 1 ICntrl=     0 DoSepK=T KAlg= 1 I1Cent= 0 FoldK=F
 E= -1581.52266632459     Delta-E=       -0.000000072106 Rises=F Damp=F
 DIIS: error= 3.32D-05 at cycle   3 NSaved=   3.
 NSaved= 3 IEnMin= 3 EnMin= -1581.52266632459     IErMin= 2 ErrMin= 2.95D-05
 ErrMax= 3.32D-05 EMaxC= 1.00D-01 BMatC= 9.12D-07 BMatP= 7.51D-07
 IDIUse=1 WtCom= 1.00D+00 WtEn= 0.00D+00
 Coeff-Com: -0.385D-01 0.540D+00 0.498D+00
 Coeff:     -0.385D-01 0.540D+00 0.498D+00
 Gap=     0.254 Goal=   None    Shift=    0.000
 RMSDP=1.56D-06 MaxDP=1.41D-04 DE=-7.21D-08 OVMax= 1.57D-04

 Cycle  11  Pass 1  IDiag  1:
 RMSU=  6.19D-07    CP:  1.00D+00  1.06D+00  5.72D-01
 FoFJK:  IHMeth= 1 ICntrl=     0 DoSepK=T KAlg= 1 I1Cent= 0 FoldK=F
 E= -1581.52266711545     Delta-E=       -0.000000790853 Rises=F Damp=F
 DIIS: error= 5.38D-06 at cycle   4 NSaved=   4.
 NSaved= 4 IEnMin= 4 EnMin= -1581.52266711545     IErMin= 4 ErrMin= 5.38D-06
 ErrMax= 5.38D-06 EMaxC= 1.00D-01 BMatC= 2.17D-08 BMatP= 7.51D-07
 IDIUse=1 WtCom= 1.00D+00 WtEn= 0.00D+00
 Coeff-Com: -0.169D-01 0.131D+00 0.171D+00 0.715D+00
 Coeff:     -0.169D-01 0.131D+00 0.171D+00 0.715D+00
 Gap=     0.254 Goal=   None    Shift=    0.000
 RMSDP=3.32D-07 MaxDP=3.53D-05 DE=-7.91D-07 OVMax= 4.17D-05

 Cycle  12  Pass 1  IDiag  1:
 RMSU=  2.10D-07    CP:  1.00D+00  1.06D+00  6.19D-01  1.05D+00
 FoFJK:  IHMeth= 1 ICntrl=     0 DoSepK=T KAlg= 1 I1Cent= 0 FoldK=F
 E= -1581.52266713654     Delta-E=       -0.000000021088 Rises=F Damp=F
 DIIS: error= 2.48D-06 at cycle   5 NSaved=   5.
 NSaved= 5 IEnMin= 5 EnMin= -1581.52266713654     IErMin= 5 ErrMin= 2.48D-06
 ErrMax= 2.48D-06 EMaxC= 1.00D-01 BMatC= 5.01D-09 BMatP= 2.17D-08
 IDIUse=1 WtCom= 1.00D+00 WtEn= 0.00D+00
 Coeff-Com:  0.163D-03-0.418D-01-0.193D-01 0.315D+00 0.746D+00
 Coeff:      0.163D-03-0.418D-01-0.193D-01 0.315D+00 0.746D+00
 Gap=     0.254 Goal=   None    Shift=    0.000
 RMSDP=1.87D-07 MaxDP=1.17D-05 DE=-2.11D-08 OVMax= 2.47D-05

 Cycle  13  Pass 1  IDiag  1:
 RMSU=  8.77D-08    CP:  1.00D+00  1.06D+00  6.33D-01  1.20D+00  9.19D-01
 FoFJK:  IHMeth= 1 ICntrl=     0 DoSepK=T KAlg= 1 I1Cent= 0 FoldK=F
 E= -1581.52266714320     Delta-E=       -0.000000006668 Rises=F Damp=F
 DIIS: error= 6.18D-07 at cycle   6 NSaved=   6.
 NSaved= 6 IEnMin= 6 EnMin= -1581.52266714320     IErMin= 6 ErrMin= 6.18D-07
 ErrMax= 6.18D-07 EMaxC= 1.00D-01 BMatC= 5.29D-10 BMatP= 5.01D-09
 IDIUse=1 WtCom= 1.00D+00 WtEn= 0.00D+00
 Coeff-Com:  0.185D-02-0.282D-01-0.259D-01 0.330D-01 0.274D+00 0.745D+00
 Coeff:      0.185D-02-0.282D-01-0.259D-01 0.330D-01 0.274D+00 0.745D+00
 Gap=     0.254 Goal=   None    Shift=    0.000
 RMSDP=7.44D-08 MaxDP=3.78D-06 DE=-6.67D-09 OVMax= 1.65D-05

 Cycle  14  Pass 1  IDiag  1:
 RMSU=  3.52D-08    CP:  1.00D+00  1.06D+00  6.36D-01  1.25D+00  1.04D+00
                    CP:  1.02D+00
 FoFJK:  IHMeth= 1 ICntrl=     0 DoSepK=T KAlg= 1 I1Cent= 0 FoldK=F
 E= -1581.52266714427     Delta-E=       -0.000000001070 Rises=F Damp=F
 DIIS: error= 2.99D-07 at cycle   7 NSaved=   7.
 NSaved= 7 IEnMin= 7 EnMin= -1581.52266714427     IErMin= 7 ErrMin= 2.99D-07
 ErrMax= 2.99D-07 EMaxC= 1.00D-01 BMatC= 1.15D-10 BMatP= 5.29D-10
 IDIUse=1 WtCom= 1.00D+00 WtEn= 0.00D+00
 Coeff-Com:  0.729D-03-0.336D-02-0.782D-02-0.570D-01-0.438D-01 0.306D+00
 Coeff-Com:  0.805D+00
 Coeff:      0.729D-03-0.336D-02-0.782D-02-0.570D-01-0.438D-01 0.306D+00
 Coeff:      0.805D+00
 Gap=     0.254 Goal=   None    Shift=    0.000
 RMSDP=4.21D-08 MaxDP=1.87D-06 DE=-1.07D-09 OVMax= 8.35D-06

 Cycle  15  Pass 1  IDiag  1:
 RMSU=  1.48D-08    CP:  1.00D+00  1.06D+00  6.39D-01  1.27D+00  1.09D+00
                    CP:  1.22D+00  1.06D+00
 FoFJK:  IHMeth= 1 ICntrl=     0 DoSepK=T KAlg= 1 I1Cent= 0 FoldK=F
 E= -1581.52266714458     Delta-E=       -0.000000000309 Rises=F Damp=F
 DIIS: error= 1.11D-07 at cycle   8 NSaved=   8.
 NSaved= 8 IEnMin= 8 EnMin= -1581.52266714458     IErMin= 8 ErrMin= 1.11D-07
 ErrMax= 1.11D-07 EMaxC= 1.00D-01 BMatC= 1.48D-11 BMatP= 1.15D-10
 IDIUse=1 WtCom= 1.00D+00 WtEn= 0.00D+00
 Coeff-Com: -0.464D-04 0.339D-02 0.149D-02-0.230D-01-0.556D-01-0.103D-01
 Coeff-Com:  0.269D+00 0.815D+00
 Coeff:     -0.464D-04 0.339D-02 0.149D-02-0.230D-01-0.556D-01-0.103D-01
 Coeff:      0.269D+00 0.815D+00
 Gap=     0.254 Goal=   None    Shift=    0.000
 RMSDP=1.57D-08 MaxDP=8.49D-07 DE=-3.09D-10 OVMax= 4.37D-06

 Cycle  16  Pass 1  IDiag  1:
 RMSU=  5.87D-09    CP:  1.00D+00  1.06D+00  6.40D-01  1.27D+00  1.11D+00
                    CP:  1.28D+00  1.24D+00  1.09D+00
 FoFJK:  IHMeth= 1 ICntrl=     0 DoSepK=T KAlg= 1 I1Cent= 0 FoldK=F
 E= -1581.52266714460     Delta-E=       -0.000000000019 Rises=F Damp=F
 DIIS: error= 4.95D-08 at cycle   9 NSaved=   9.
 NSaved= 9 IEnMin= 9 EnMin= -1581.52266714460     IErMin= 9 ErrMin= 4.95D-08
 ErrMax= 4.95D-08 EMaxC= 1.00D-01 BMatC= 3.04D-12 BMatP= 1.48D-11
 IDIUse=1 WtCom= 1.00D+00 WtEn= 0.00D+00
 Coeff-Com: -0.152D-03 0.194D-02 0.210D-02 0.175D-02-0.145D-01-0.643D-01
 Coeff-Com: -0.556D-01 0.302D+00 0.827D+00
 Coeff:     -0.152D-03 0.194D-02 0.210D-02 0.175D-02-0.145D-01-0.643D-01
 Coeff:     -0.556D-01 0.302D+00 0.827D+00
 Gap=     0.254 Goal=   None    Shift=    0.000
 RMSDP=7.44D-09 MaxDP=4.14D-07 DE=-1.91D-11 OVMax= 1.96D-06

 SCF Done:  E(RwB97XD) =  -1581.52266714     A.U. after   16 cycles
             Convg  =    0.7440D-08             -V/T =  2.0110
 KE= 1.564305850251D+03 PE=-1.117609000070D+04 EE= 4.276486597667D+03
 Leave Link  502 at Thu Feb 27 15:00:24 2020, MaxMem= 2684354560 cpu:    1167.2
 (Enter /opt/g09gh/gaussian/g09/l601.exe)
 Copying SCF densities to generalized density rwf, IOpCl= 0 IROHF=0.

 **********************************************************************

            Population analysis using the SCF density.

 **********************************************************************

 Orbital symmetries:
       Occupied  (A) (A) (A) (A) (A) (A) (A) (A) (A) (A) (A) (A)
                 (A) (A) (A) (A) (A) (A) (A) (A) (A) (A) (A) (A)
                 (A) (A) (A) (A) (A) (A) (A) (A) (A) (A) (A) (A)
                 (A) (A) (A) (A) (A) (A) (A) (A) (A) (A) (A) (A)
                 (A) (A) (A) (A) (A) (A) (A) (A) (A) (A) (A) (A)
                 (A) (A) (A) (A) (A) (A) (A) (A) (A) (A) (A) (A)
                 (A) (A) (A) (A) (A) (A) (A) (A) (A) (A) (A) (A)
                 (A) (A) (A) (A) (A) (A) (A) (A) (A) (A) (A) (A)
                 (A) (A) (A) (A) (A) (A) (A) (A) (A) (A) (A) (A)
                 (A) (A) (A) (A) (A) (A) (A) (A) (A) (A) (A) (A)
                 (A) (A) (A) (A) (A) (A) (A) (A) (A) (A) (A)
       Virtual   (A) (A) (A) (A) (A) (A) (A) (A) (A) (A) (A) (A)
                 (A) (A) (A) (A) (A) (A) (A) (A) (A) (A) (A) (A)
                 (A) (A) (A) (A) (A) (A) (A) (A) (A) (A) (A) (A)
                 (A) (A) (A) (A) (A) (A) (A) (A) (A) (A) (A) (A)
                 (A) (A) (A) (A) (A) (A) (A) (A) (A) (A) (A) (A)
                 (A) (A) (A) (A) (A) (A) (A) (A) (A) (A) (A) (A)
                 (A) (A) (A) (A) (A) (A) (A) (A) (A) (A) (A) (A)
                 (A) (A) (A) (A) (A) (A) (A) (A) (A) (A) (A) (A)
                 (A) (A) (A) (A) (A) (A) (A) (A) (A) (A) (A) (A)
                 (A) (A) (A) (A) (A) (A) (A) (A) (A) (A) (A) (A)
                 (A) (A) (A) (A) (A) (A) (A) (A) (A) (A) (A) (A)
                 (A) (A) (A) (A) (A) (A) (A) (A) (A) (A) (A) (A)
                 (A) (A) (A) (A) (A) (A) (A) (A) (A) (A) (A) (A)
                 (A) (A) (A) (A) (A) (A) (A) (A) (A) (A) (A) (A)
                 (A) (A) (A) (A) (A) (A) (A) (A) (A) (A) (A) (A)
                 (A) (A) (A) (A) (A) (A) (A) (A) (A) (A) (A) (A)
                 (A) (A) (A) (A) (A) (A) (A) (A) (A) (A) (A) (A)
                 (A) (A) (A) (A) (A) (A) (A) (A) (A) (A) (A) (A)
                 (A) (A) (A) (A) (A) (A) (A) (A) (A) (A) (A) (A)
                 (A) (A) (A) (A) (A) (A) (A) (A) (A) (A) (A) (A)
                 (A) (A) (A) (A) (A) (A) (A) (A) (A) (A) (A) (A)
                 (A) (A) (A) (A) (A) (A) (A) (A) (A) (A) (A) (A)
                 (A) (A) (A) (A) (A) (A) (A) (A) (A) (A) (A) (A)
                 (A) (A) (A) (A) (A) (A) (A) (A) (A) (A) (A) (A)
                 (A) (A) (A) (A) (A) (A) (A) (A) (A) (A) (A) (A)
                 (A) (A) (A) (A) (A) (A) (A) (A) (A) (A) (A) (A)
                 (A) (A) (A) (A) (A) (A) (A) (A) (A) (A) (A) (A)
                 (A) (A) (A) (A) (A) (A) (A) (A) (A) (A) (A) (A)
                 (A) (A) (A) (A) (A) (A) (A) (A) (A) (A) (A) (A)
                 (A) (A) (A) (A) (A) (A) (A) (A) (A) (A) (A) (A)
                 (A) (A) (A) (A) (A) (A) (A) (A) (A) (A) (A) (A)
                 (A) (A) (A) (A) (A) (A) (A) (A) (A) (A) (A) (A)
                 (A) (A) (A) (A) (A) (A) (A) (A) (A) (A) (A) (A)
                 (A) (A) (A) (A) (A) (A) (A) (A) (A) (A) (A) (A)
                 (A) (A) (A) (A) (A) (A) (A) (A) (A) (A) (A) (A)
                 (A) (A) (A) (A) (A) (A) (A) (A) (A) (A) (A) (A)
                 (A) (A) (A) (A) (A) (A) (A) (A) (A) (A) (A) (A)
                 (A) (A) (A) (A) (A) (A) (A) (A) (A) (A) (A) (A)
                 (A) (A) (A) (A) (A) (A) (A) (A) (A) (A) (A) (A)
                 (A) (A) (A) (A) (A) (A) (A) (A) (A) (A) (A) (A)
                 (A) (A) (A) (A) (A) (A)
 The electronic state is 1-A.
 Alpha  occ. eigenvalues --  -19.23540 -14.48970 -14.48925 -14.46642 -14.46190
 Alpha  occ. eigenvalues --  -14.46069 -14.46010 -14.44615 -10.41884 -10.40664
 Alpha  occ. eigenvalues --  -10.38245 -10.37505 -10.37497 -10.36437 -10.35701
 Alpha  occ. eigenvalues --  -10.35186 -10.34987 -10.34940 -10.34833 -10.34295
 Alpha  occ. eigenvalues --  -10.34162 -10.34107 -10.34012 -10.32712 -10.32428
 Alpha  occ. eigenvalues --  -10.31976 -10.31925 -10.31671 -10.31345 -10.31208
 Alpha  occ. eigenvalues --  -10.31207 -10.31099 -10.31043 -10.30187 -10.30044
 Alpha  occ. eigenvalues --  -10.29607 -10.28964  -1.13649  -1.11618  -1.05282
 Alpha  occ. eigenvalues --   -1.03658  -1.03342  -1.03020  -1.00197  -0.99528
 Alpha  occ. eigenvalues --   -0.96191  -0.94455  -0.92302  -0.89299  -0.88039
 Alpha  occ. eigenvalues --   -0.86998  -0.86328  -0.85064  -0.83733  -0.83487
 Alpha  occ. eigenvalues --   -0.81884  -0.79464  -0.77887  -0.77827  -0.75929
 Alpha  occ. eigenvalues --   -0.73186  -0.72688  -0.72282  -0.71720  -0.70788
 Alpha  occ. eigenvalues --   -0.70331  -0.69603  -0.68254  -0.66349  -0.64668
 Alpha  occ. eigenvalues --   -0.63192  -0.62425  -0.61474  -0.60853  -0.59868
 Alpha  occ. eigenvalues --   -0.58556  -0.57703  -0.56892  -0.56574  -0.56079
 Alpha  occ. eigenvalues --   -0.55866  -0.55544  -0.54817  -0.54206  -0.54030
 Alpha  occ. eigenvalues --   -0.53650  -0.53055  -0.52227  -0.51976  -0.51536
 Alpha  occ. eigenvalues --   -0.51459  -0.51320  -0.51058  -0.50667  -0.50361
 Alpha  occ. eigenvalues --   -0.49859  -0.49778  -0.49543  -0.49394  -0.48253
 Alpha  occ. eigenvalues --   -0.47303  -0.47092  -0.46365  -0.46041  -0.45646
 Alpha  occ. eigenvalues --   -0.45254  -0.44643  -0.44454  -0.43861  -0.43725
 Alpha  occ. eigenvalues --   -0.43363  -0.42752  -0.42267  -0.41450  -0.41382
 Alpha  occ. eigenvalues --   -0.40122  -0.38319  -0.37926  -0.37102  -0.35415
 Alpha  occ. eigenvalues --   -0.35211  -0.35060  -0.33905  -0.33522  -0.33194
 Alpha  occ. eigenvalues --   -0.33026  -0.32149  -0.31067  -0.29422  -0.27345
 Alpha  occ. eigenvalues --   -0.26051
 Alpha virt. eigenvalues --   -0.00625   0.02754   0.03076   0.04611   0.05701
 Alpha virt. eigenvalues --    0.07349   0.07648   0.08173   0.09577   0.10713
 Alpha virt. eigenvalues --    0.12814   0.13629   0.14556   0.15035   0.15818
 Alpha virt. eigenvalues --    0.16696   0.16977   0.17906   0.18044   0.18643
 Alpha virt. eigenvalues --    0.19577   0.19695   0.19853   0.21031   0.21444
 Alpha virt. eigenvalues --    0.22281   0.22949   0.23166   0.23426   0.23665
 Alpha virt. eigenvalues --    0.24158   0.24489   0.24770   0.24908   0.25037
 Alpha virt. eigenvalues --    0.25610   0.25932   0.26436   0.26948   0.27337
 Alpha virt. eigenvalues --    0.27679   0.27945   0.28258   0.28417   0.28808
 Alpha virt. eigenvalues --    0.28986   0.29585   0.30228   0.30585   0.31187
 Alpha virt. eigenvalues --    0.31451   0.32018   0.32864   0.33107   0.33590
 Alpha virt. eigenvalues --    0.34274   0.34580   0.35789   0.36917   0.37548
 Alpha virt. eigenvalues --    0.37755   0.38301   0.38850   0.39306   0.39600
 Alpha virt. eigenvalues --    0.39926   0.40866   0.41122   0.41406   0.41875
 Alpha virt. eigenvalues --    0.43201   0.45066   0.45697   0.46587   0.47298
 Alpha virt. eigenvalues --    0.48011   0.49582   0.50980   0.52374   0.53634
 Alpha virt. eigenvalues --    0.55365   0.55959   0.56809   0.57733   0.58078
 Alpha virt. eigenvalues --    0.58446   0.59246   0.59473   0.59554   0.59983
 Alpha virt. eigenvalues --    0.60267   0.60874   0.61218   0.61800   0.62353
 Alpha virt. eigenvalues --    0.62425   0.62904   0.63285   0.63565   0.64067
 Alpha virt. eigenvalues --    0.64125   0.64575   0.65020   0.65126   0.65430
 Alpha virt. eigenvalues --    0.65631   0.65907   0.66185   0.66237   0.66483
 Alpha virt. eigenvalues --    0.66855   0.67068   0.67397   0.68361   0.68609
 Alpha virt. eigenvalues --    0.68852   0.69255   0.69394   0.69759   0.70089
 Alpha virt. eigenvalues --    0.70420   0.70521   0.71112   0.71299   0.71402
 Alpha virt. eigenvalues --    0.72494   0.72700   0.73094   0.73576   0.73986
 Alpha virt. eigenvalues --    0.74146   0.74478   0.75692   0.75955   0.76501
 Alpha virt. eigenvalues --    0.77255   0.77762   0.78458   0.80257   0.80698
 Alpha virt. eigenvalues --    0.81050   0.81100   0.82018   0.82281   0.82683
 Alpha virt. eigenvalues --    0.82862   0.83915   0.84898   0.85256   0.85888
 Alpha virt. eigenvalues --    0.86097   0.86441   0.87111   0.87645   0.88516
 Alpha virt. eigenvalues --    0.88635   0.88948   0.89756   0.90089   0.90769
 Alpha virt. eigenvalues --    0.90889   0.91353   0.91784   0.92197   0.92383
 Alpha virt. eigenvalues --    0.92931   0.93092   0.93439   0.93815   0.93988
 Alpha virt. eigenvalues --    0.94401   0.94692   0.94853   0.95221   0.95529
 Alpha virt. eigenvalues --    0.96842   0.97188   0.97328   0.98153   0.98353
 Alpha virt. eigenvalues --    0.98480   0.99046   0.99128   0.99810   1.00404
 Alpha virt. eigenvalues --    1.00777   1.01330   1.01528   1.02521   1.02585
 Alpha virt. eigenvalues --    1.03066   1.03407   1.04013   1.05384   1.05494
 Alpha virt. eigenvalues --    1.06801   1.06833   1.07436   1.07881   1.08449
[...]
                 (A) (A) (A) (A) (A) (A) (A) (A) (A) (A) (A) (A)
                 (A) (A) (A) (A) (A) (A) (A) (A) (A) (A) (A) (A)
                 (A) (A) (A) (A) (A) (A) (A) (A) (A) (A) (A) (A)
                 (A) (A) (A) (A) (A) (A) (A) (A) (A) (A) (A) (A)
                 (A) (A) (A) (A) (A) (A) (A) (A) (A) (A) (A) (A)
                 (A) (A) (A) (A) (A) (A) (A) (A) (A) (A) (A) (A)
                 (A) (A) (A) (A) (A) (A) (A) (A) (A) (A) (A) (A)
                 (A) (A) (A) (A) (A) (A) (A) (A) (A) (A) (A) (A)
                 (A) (A) (A) (A) (A) (A) (A) (A) (A) (A) (A) (A)
                 (A) (A) (A) (A) (A) (A) (A) (A) (A) (A) (A) (A)
                 (A) (A) (A) (A) (A) (A) (A) (A) (A) (A) (A) (A)
                 (A) (A) (A) (A) (A) (A) (A) (A) (A) (A) (A) (A)
                 (A) (A) (A) (A) (A) (A) (A) (A) (A) (A) (A) (A)
                 (A) (A) (A) (A) (A) (A) (A) (A) (A) (A) (A) (A)
                 (A) (A) (A) (A) (A) (A) (A) (A) (A) (A) (A) (A)
                 (A) (A) (A) (A) (A) (A) (A) (A) (A) (A) (A) (A)
                 (A) (A) (A) (A) (A) (A) (A) (A) (A) (A) (A) (A)
                 (A) (A) (A) (A) (A) (A) (A) (A) (A) (A) (A) (A)
                 (A) (A) (A) (A) (A) (A) (A) (A) (A) (A) (A) (A)
                 (A) (A) (A) (A) (A) (A) (A) (A) (A) (A) (A) (A)
                 (A) (A) (A) (A) (A) (A) (A) (A) (A) (A) (A) (A)
                 (A) (A) (A) (A) (A) (A) (A) (A) (A) (A) (A) (A)
                 (A) (A) (A) (A) (A) (A) (A) (A) (A) (A) (A) (A)
                 (A) (A) (A) (A) (A) (A) (A) (A) (A) (A) (A) (A)
                 (A) (A) (A) (A) (A) (A) (A) (A) (A) (A) (A) (A)
                 (A) (A) (A) (A) (A) (A) (A) (A) (A) (A) (A) (A)
                 (A) (A) (A) (A) (A) (A) (A) (A) (A) (A) (A) (A)
                 (A) (A) (A) (A) (A) (A) (A) (A) (A) (A) (A) (A)
                 (A) (A) (A) (A) (A) (A) (A) (A) (A) (A) (A) (A)
                 (A) (A) (A) (A) (A) (A) (A) (A) (A) (A) (A) (A)
                 (A) (A) (A) (A) (A) (A) (A) (A) (A) (A) (A) (A)
                 (A) (A) (A) (A) (A) (A)
 The electronic state is 1-A.
 Alpha  occ. eigenvalues --  -19.23411 -14.49283 -14.48321 -14.46751 -14.46096
 Alpha  occ. eigenvalues --  -14.45764 -14.43617 -14.43135 -10.41778 -10.40081
 Alpha  occ. eigenvalues --  -10.37615 -10.36338 -10.35325 -10.35084 -10.34624
 Alpha  occ. eigenvalues --  -10.34135 -10.34016 -10.33623 -10.32863 -10.32367
 Alpha  occ. eigenvalues --  -10.31861 -10.31492 -10.31179 -10.30935 -10.30708
 Alpha  occ. eigenvalues --  -10.30688 -10.30677 -10.30586 -10.30533 -10.30403
 Alpha  occ. eigenvalues --  -10.30377 -10.30220 -10.30020 -10.29974 -10.29575
 Alpha  occ. eigenvalues --  -10.28740 -10.28405  -1.13443  -1.12296  -1.06322
 Alpha  occ. eigenvalues --   -1.04565  -1.03829  -1.03634  -1.00716  -0.99557
 Alpha  occ. eigenvalues --   -0.96086  -0.94671  -0.93098  -0.89778  -0.88124
 Alpha  occ. eigenvalues --   -0.87388  -0.86228  -0.85399  -0.84542  -0.83783
 Alpha  occ. eigenvalues --   -0.81888  -0.79581  -0.78270  -0.77798  -0.76320
 Alpha  occ. eigenvalues --   -0.73881  -0.73301  -0.73025  -0.72621  -0.70871
 Alpha  occ. eigenvalues --   -0.70314  -0.69614  -0.68039  -0.66413  -0.65150
 Alpha  occ. eigenvalues --   -0.63656  -0.63409  -0.62228  -0.61762  -0.60211
 Alpha  occ. eigenvalues --   -0.58848  -0.58045  -0.57570  -0.56611  -0.56101
 Alpha  occ. eigenvalues --   -0.55817  -0.55236  -0.55134  -0.54965  -0.54255
 Alpha  occ. eigenvalues --   -0.53867  -0.53239  -0.53154  -0.52612  -0.52174
 Alpha  occ. eigenvalues --   -0.51912  -0.51510  -0.51371  -0.50999  -0.50575
 Alpha  occ. eigenvalues --   -0.50365  -0.50116  -0.49974  -0.49497  -0.48335
 Alpha  occ. eigenvalues --   -0.47217  -0.46906  -0.46619  -0.46319  -0.46211
 Alpha  occ. eigenvalues --   -0.45762  -0.45235  -0.44797  -0.44044  -0.43932
 Alpha  occ. eigenvalues --   -0.43328  -0.43017  -0.42141  -0.41766  -0.41439
 Alpha  occ. eigenvalues --   -0.40964  -0.40776  -0.39912  -0.38187  -0.37592
 Alpha  occ. eigenvalues --   -0.35821  -0.35293  -0.34001  -0.33446  -0.33374
 Alpha  occ. eigenvalues --   -0.32818  -0.31904  -0.30772  -0.29115  -0.27079
 Alpha  occ. eigenvalues --   -0.24996
 Alpha virt. eigenvalues --   -0.00292   0.02872   0.03585   0.04480   0.06433
 Alpha virt. eigenvalues --    0.07258   0.08204   0.10371   0.13887   0.14815
 Alpha virt. eigenvalues --    0.15728   0.16386   0.17252   0.17441   0.18251
 Alpha virt. eigenvalues --    0.19198   0.19759   0.20074   0.20198   0.20629
 Alpha virt. eigenvalues --    0.21234   0.21900   0.22615   0.22767   0.23135
 Alpha virt. eigenvalues --    0.23343   0.23537   0.24192   0.24362   0.24839
 Alpha virt. eigenvalues --    0.25118   0.25125   0.26082   0.26488   0.26551
 Alpha virt. eigenvalues --    0.27065   0.27431   0.27680   0.27996   0.28429
 Alpha virt. eigenvalues --    0.28563   0.28864   0.29436   0.29708   0.30282
 Alpha virt. eigenvalues --    0.31015   0.31164   0.31764   0.32125   0.32246
 Alpha virt. eigenvalues --    0.32892   0.33214   0.33675   0.33954   0.34428
 Alpha virt. eigenvalues --    0.35001   0.36037   0.36538   0.37755   0.38123
 Alpha virt. eigenvalues --    0.38651   0.38809   0.39299   0.40138   0.40739
 Alpha virt. eigenvalues --    0.41234   0.41464   0.42063   0.42207   0.42713
 Alpha virt. eigenvalues --    0.43813   0.45042   0.46207   0.47058   0.47330
 Alpha virt. eigenvalues --    0.48354   0.49428   0.51936   0.53014   0.54230
 Alpha virt. eigenvalues --    0.55738   0.56536   0.57257   0.57912   0.58309
 Alpha virt. eigenvalues --    0.59048   0.59371   0.59611   0.60510   0.60897
 Alpha virt. eigenvalues --    0.61370   0.61486   0.61681   0.62222   0.62698
 Alpha virt. eigenvalues --    0.63200   0.63355   0.63863   0.64090   0.64889
 Alpha virt. eigenvalues --    0.64931   0.65336   0.65507   0.65529   0.65821
 Alpha virt. eigenvalues --    0.66021   0.66271   0.66897   0.66982   0.67472
 Alpha virt. eigenvalues --    0.67616   0.67787   0.68308   0.68614   0.69045
 Alpha virt. eigenvalues --    0.69766   0.70018   0.70550   0.71042   0.71240
 Alpha virt. eigenvalues --    0.71763   0.72092   0.72267   0.72584   0.73055
 Alpha virt. eigenvalues --    0.73333   0.73461   0.74254   0.75225   0.75349
 Alpha virt. eigenvalues --    0.75595   0.75945   0.76256   0.76931   0.77676
 Alpha virt. eigenvalues --    0.77802   0.79111   0.80382   0.80455   0.81763
 Alpha virt. eigenvalues --    0.81971   0.82306   0.83130   0.83262   0.84195
 Alpha virt. eigenvalues --    0.84655   0.85715   0.86629   0.86888   0.87424
 Alpha virt. eigenvalues --    0.88279   0.89047   0.89674   0.90200   0.90738
 Alpha virt. eigenvalues --    0.90924   0.91157   0.91469   0.92209   0.92295
 Alpha virt. eigenvalues --    0.92392   0.92543   0.93563   0.93885   0.94045
 Alpha virt. eigenvalues --    0.94341   0.94529   0.94675   0.95250   0.95604
 Alpha virt. eigenvalues --    0.95948   0.96541   0.97598   0.98197   0.98359
 Alpha virt. eigenvalues --    0.98516   0.99006   0.99058   0.99700   0.99825
 Alpha virt. eigenvalues --    1.00450   1.00623   1.01372   1.01926   1.02021
 Alpha virt. eigenvalues --    1.02501   1.02651   1.03217   1.03673   1.04408
 Alpha virt. eigenvalues --    1.05622   1.05882   1.06645   1.06767   1.07379
 Alpha virt. eigenvalues --    1.07617   1.08219   1.08749   1.08902   1.09056
 Alpha virt. eigenvalues --    1.10208   1.10700   1.11026   1.11715   1.12088
 Alpha virt. eigenvalues --    1.12634   1.13093   1.13793   1.14265   1.15632
 Alpha virt. eigenvalues --    1.16461   1.16987   1.17694   1.18301   1.19272
 Alpha virt. eigenvalues --    1.20080   1.21181   1.21738   1.23135   1.23418
 Alpha virt. eigenvalues --    1.24744   1.25515   1.26100   1.26962   1.27425
 Alpha virt. eigenvalues --    1.29019   1.29354   1.29705   1.30411   1.30876
 Alpha virt. eigenvalues --    1.31925   1.33069   1.33762   1.33900   1.34765
 Alpha virt. eigenvalues --    1.35492   1.36943   1.37299   1.37888   1.38645
 Alpha virt. eigenvalues --    1.39298   1.42345   1.43368   1.43714   1.44582
 Alpha virt. eigenvalues --    1.46485   1.47299   1.47752   1.48441   1.48546
 Alpha virt. eigenvalues --    1.48648   1.49179   1.49466   1.50260   1.51636
 Alpha virt. eigenvalues --    1.51969   1.52736   1.53658   1.54082   1.54530
 Alpha virt. eigenvalues --    1.55182   1.55560   1.56282   1.56870   1.56981
 Alpha virt. eigenvalues --    1.57524   1.57806   1.58457   1.59180   1.59303
 Alpha virt. eigenvalues --    1.59660   1.60105   1.60821   1.61987   1.62520
 Alpha virt. eigenvalues --    1.63913   1.64943   1.65122   1.65691   1.67669
 Alpha virt. eigenvalues --    1.68409   1.69749   1.72013   1.75168   1.76228
 Alpha virt. eigenvalues --    1.78748   1.80597   1.81508   1.82526   1.84276
 Alpha virt. eigenvalues --    1.84719   1.85643   1.86428   1.86958   1.87887
 Alpha virt. eigenvalues --    1.87957   1.88948   1.89940   1.90638   1.90825
 Alpha virt. eigenvalues --    1.91214   1.92461   1.92803   1.93435   1.94264
 Alpha virt. eigenvalues --    1.94426   1.94936   1.95569   1.96612   1.97942
 Alpha virt. eigenvalues --    1.98717   1.99603   2.00122   2.00240   2.01197
 Alpha virt. eigenvalues --    2.01310   2.01499   2.01783   2.02573   2.03679
 Alpha virt. eigenvalues --    2.05536   2.06501   2.06638   2.07326   2.08211
 Alpha virt. eigenvalues --    2.08613   2.08850   2.09735   2.10837   2.11395
 Alpha virt. eigenvalues --    2.12241   2.12580   2.13555   2.14166   2.14817
 Alpha virt. eigenvalues --    2.15878   2.16188   2.17689   2.19548   2.20432
 Alpha virt. eigenvalues --    2.21104   2.21285   2.21687   2.22414   2.22784
 Alpha virt. eigenvalues --    2.22976   2.23632   2.23941   2.24603   2.25133
 Alpha virt. eigenvalues --    2.25944   2.26147   2.26369   2.26887   2.28050
 Alpha virt. eigenvalues --    2.28544   2.29387   2.29951   2.31587   2.32593
 Alpha virt. eigenvalues --    2.34098   2.34927   2.36375   2.37133   2.37172
 Alpha virt. eigenvalues --    2.37914   2.38059   2.38213   2.39476   2.39888
 Alpha virt. eigenvalues --    2.40250   2.40811   2.42121   2.42800   2.43234
 Alpha virt. eigenvalues --    2.43390   2.44334   2.44769   2.44889   2.46220
 Alpha virt. eigenvalues --    2.46451   2.47886   2.48104   2.49415   2.49811
 Alpha virt. eigenvalues --    2.50303   2.50931   2.52052   2.53873   2.56002
 Alpha virt. eigenvalues --    2.58455   2.59877   2.60857   2.62126   2.63397
 Alpha virt. eigenvalues --    2.64709   2.65081   2.65953   2.66089   2.67625
 Alpha virt. eigenvalues --    2.68705   2.70008   2.71800   2.72057   2.72664
 Alpha virt. eigenvalues --    2.74011   2.74385   2.75463   2.76174   2.76866
 Alpha virt. eigenvalues --    2.77167   2.78479   2.78950   2.80939   2.81729
 Alpha virt. eigenvalues --    2.82744   2.83152   2.83723   2.84481   2.85525
 Alpha virt. eigenvalues --    2.86029   2.86478   2.87314   2.88411   2.89256
 Alpha virt. eigenvalues --    2.89962   2.91946   2.92699   2.93388   2.94568
 Alpha virt. eigenvalues --    2.94833   2.96132   2.97874   3.01370   3.02993
 Alpha virt. eigenvalues --    3.04142   3.06694   3.09290   3.10084   3.12017
 Alpha virt. eigenvalues --    3.18949   3.26898   3.29152   3.39175   3.41513
 Alpha virt. eigenvalues --    3.45040   3.53455   3.56407   3.57588   4.12659
 Alpha virt. eigenvalues --    4.13540   4.15201   4.16851   4.18260   4.19134
 Alpha virt. eigenvalues --    4.19562   4.20450   4.21989   4.23544   4.25287
 Alpha virt. eigenvalues --    4.26035   4.27473   4.28696   4.30763   4.31719
 Alpha virt. eigenvalues --    4.33382   4.34588   4.36932   4.40131   4.40370
 Alpha virt. eigenvalues --    4.41612   4.44511   4.46130   4.49148   4.49441
 Alpha virt. eigenvalues --    4.49746   4.52846   4.57341   4.60738   4.61924
 Alpha virt. eigenvalues --    4.64161   4.67478   4.69410   4.79023   4.85075
 Alpha virt. eigenvalues --    4.89519
          Condensed to atoms (all electrons):
 Mulliken atomic charges:
              1
     1  C   -0.197839
     2  C   -0.154403
     3  C    0.035504
     4  C    0.009585
     5  N   -0.437521
     6  C    0.035727
     7  C    0.295167
     8  C   -0.254771
     9  C    0.049020
    10  N   -0.493042
    11  C    0.714386
    12  N   -0.568411
    13  N   -0.802081
    14  C    0.291488
    15  C    0.119859
    16  C   -0.240382
    17  C   -0.191297
    18  C    0.358171
    19  C   -0.269721
    20  N   -0.757986
    21  C    0.585760
    22  C    0.015206
    23  C   -0.205366
    24  C   -0.217903
    25  C    0.155959
    26  C   -0.223076
    27  C   -0.178387
    28  C   -0.263555
    29  N   -0.382218
    30  C   -0.183903
    31  C   -0.181773
    32  N   -0.385718
    33  C   -0.349274
    34  C   -0.182635
    35  C   -0.186521
    36  O   -0.513300
    37  C   -0.607368
    38  H    0.186141
    39  H    0.186726
    40  H    0.198114
    41  H    0.179048
    42  H    0.180748
    43  H    0.189492
    44  H    0.369214
    45  H    0.160820
    46  H    0.213078
    47  H    0.199379
    48  H    0.361561
    49  H    0.185459
    50  H    0.172058
    51  H    0.163617
    52  H    0.195615
    53  H    0.170280
    54  H    0.168918
    55  H    0.148154
    56  H    0.158355
    57  H    0.141659
    58  H    0.174894
    59  H    0.135267
    60  H    0.164119
    61  H    0.167872
    62  H    0.153492
    63  H    0.172927
    64  H    0.159411
    65  H    0.154992
    66  H    0.178047
    67  H    0.182738
    68  H    0.190421
 Sum of Mulliken atomic charges =   0.00000
 Mulliken charges with hydrogens summed into heavy atoms:
              1
     1  C   -0.011698
     2  C    0.032323
     3  C    0.035504
     4  C    0.207699
     5  N   -0.437521
     6  C    0.214775
     7  C    0.295167
     8  C   -0.074024
     9  C    0.238513
    10  N   -0.493042
    11  C    0.714386
    12  N   -0.568411
    13  N   -0.432867
    14  C    0.291488
    15  C    0.119859
    16  C   -0.079562
    17  C    0.021782
    18  C    0.358171
    19  C   -0.070342
    20  N   -0.396425
    21  C    0.585760
    22  C    0.015206
    23  C   -0.019908
    24  C   -0.045845
    25  C    0.155959
    26  C   -0.059458
    27  C    0.017228
    28  C    0.075643
    29  N   -0.382218
    30  C    0.122607
    31  C    0.134780
    32  N   -0.385718
    33  C    0.117984
    34  C    0.143784
    35  C    0.127882
    36  O   -0.513300
    37  C   -0.056163
 Sum of Mulliken charges with hydrogens summed into heavy atoms =   0.00000
 Electronic spatial extent (au):  <R**2>=          21212.1888
 Charge=              0.0000 electrons
 Dipole moment (field-independent basis, Debye):
    X=              0.5807    Y=              6.5722    Z=              0.4334  Tot=              6.6121
 Quadrupole moment (field-independent basis, Debye-Ang):
   XX=           -193.2953   YY=           -202.5068   ZZ=           -220.4846
   XY=              3.1060   XZ=             -1.2802   YZ=             -5.2188
 Traceless Quadrupole moment (field-independent basis, Debye-Ang):
   XX=             12.1336   YY=              2.9221   ZZ=            -15.0557
   XY=              3.1060   XZ=             -1.2802   YZ=             -5.2188
 Octapole moment (field-independent basis, Debye-Ang**2):
  XXX=             80.0461  YYY=            204.4046  ZZZ=             11.3506  XYY=             33.4343
  XXY=            -43.1205  XXZ=             31.6564  XZZ=            -22.7165  YZZ=              1.3377
  YYZ=             17.7439  XYZ=              2.2772
 Hexadecapole moment (field-independent basis, Debye-Ang**3):
 XXXX=         -18570.2350 YYYY=          -7865.4132 ZZZZ=          -1607.5648 XXXY=            -50.9160
 XXXZ=           -102.8787 YYYX=            149.0953 YYYZ=            -76.2370 ZZZX=            -50.0246
 ZZZY=             15.0241 XXYY=          -4005.4692 XXZZ=          -3409.2253 YYZZ=          -1721.5051
 XXYZ=            -52.8030 YYXZ=            -15.9024 ZZXY=            -24.5990
 N-N= 3.895067485885D+03 E-N=-1.146173033458D+04  KE= 1.567155645613D+03
 No NMR shielding tensors so no spin-rotation constants.
 Leave Link  601 at Thu Feb 27 17:14:22 2020, MaxMem= 2684354560 cpu:       3.3
 (Enter /opt/g09gh/gaussian/g09/l9999.exe)
 1\1\GINC-NODE35\FOpt\RwB97XD\6-31G(d)\C29H31N7O1\BDW2292\27-Feb-2020\0
 \\#P opt=(,maxcycle=400) wB97XD/6-31G* MaxDisk=100GB\\MOLECULE0 Rotata
 ble Bond Optimization on g2-node38.bme.utexas.edu\\0,1\C,-0.4814278721
 ,4.3911776951,0.0241837796\C,0.8614474603,4.2644828976,0.3584081432\C,
 1.5387009192,3.0976855981,0.0080875398\C,0.8147927934,2.113542611,-0.6
 781925381\N,-0.4725794264,2.2198590325,-1.0024997222\C,-1.1023675493,3
 .3437548137,-0.6475240053\C,2.9587116685,2.8487202051,0.3636393794\C,3
 .8893714699,3.8567796374,0.5985420545\C,5.1733199082,3.4363482678,0.94
 37393942\N,5.5312204747,2.1635589335,1.0444720497\C,4.5584313433,1.267
 6947567,0.780395776\N,3.3001536591,1.5609772678,0.452672401\N,4.945838
 6548,-0.0411173256,0.873595568\C,4.2305216804,-1.2215660868,0.59818692
 08\C,4.9541747559,-2.4199625369,0.4320405921\C,4.2340800221,-3.5744260
 545,0.1370324611\C,2.8490326771,-3.5959953401,-0.0166331851\C,2.157852
 8602,-2.4006115047,0.1560868606\C,2.8454843294,-1.2336492656,0.4880466
 031\N,0.7722261511,-2.2398482003,-0.0092872695\C,-0.166251117,-3.11125
 68417,-0.4995613794\C,-1.4838812111,-2.4398187832,-0.7664881842\C,-1.5
 55743711,-1.1255969894,-1.2378420482\C,-2.7867021899,-0.5163038688,-1.
 4309625509\C,-3.9720238204,-1.1904556596,-1.1375657603\C,-3.8933465683
 ,-2.5223038772,-0.7209448517\C,-2.6645450383,-3.1473457512,-0.54347965
 \C,-5.3081775109,-0.4693306585,-1.2092436476\N,-5.703164705,0.31918040
 5,-0.0518863083\C,-5.0361775438,1.5979422998,0.1691001542\C,-3.8308727
 471,1.5296636226,1.1246192984\N,-4.1348262515,0.8540496542,2.383015518
 6\C,-4.927365652,1.6522340014,3.3013598472\C,-4.7007811935,-0.46512057
 9,2.1099937457\C,-5.9314495754,-0.4120900238,1.1894866338\O,0.02558726
 96,-4.301089785,-0.6860211903\C,6.4563446244,-2.4521082457,0.556028490
 5\H,-1.0414900825,5.2810852736,0.2905366221\H,1.3644873344,5.053282170
 3,0.9103320334\H,1.319681526,1.1991973055,-0.9794001505\H,-2.156033936
 9,3.405014537,-0.9112939296\H,3.6516401499,4.909189397,0.5055264366\H,
 5.9544617795,4.1665210685,1.1457612924\H,5.9259054436,-0.1363331215,1.
 0940690545\H,4.7822204108,-4.504134793,0.0064929122\H,2.3205939402,-4.
 5052381107,-0.2684069632\H,2.3004651558,-0.3127580322,0.6298240008\H,0
 .4334784347,-1.3125832696,0.200759089\H,-0.6577305183,-0.5649489243,-1
 .4805583719\H,-2.8120365078,0.508060726,-1.7937928937\H,-4.8094661687,
 -3.072588175,-0.5178332968\H,-2.6032006797,-4.1803975735,-0.2159216232
 \H,-5.3092514941,0.2024800237,-2.0761388704\H,-6.1002640211,-1.2087966
 551,-1.3836688936\H,-4.7294280639,2.0069295564,-0.8010600572\H,-5.7789
 334954,2.2958283716,0.584286755\H,-3.4737609276,2.5432496795,1.3476254
 954\H,-3.0042190704,0.9908310588,0.6484899643\H,-5.9354730045,1.928103
 3864,2.9447945813\H,-4.3899005494,2.5804562499,3.5250228361\H,-5.04812
 1304,1.100468667,4.2399933708\H,-4.9642451382,-0.9396926377,3.06304837
 54\H,-3.9171962868,-1.0741285137,1.6443799157\H,-6.7623040567,0.072094
 7675,1.7239448472\H,-6.2649635415,-1.4268245176,0.9448939808\H,6.79709
 9002,-2.167202385,1.5608694578\H,6.9406605437,-1.7779542551,-0.1623516
 156\H,6.8368110885,-3.4583685966,0.3633727246\\Version=EM64L-G09RevA.0
 2\State=1-A\HF=-1581.7632161\RMSD=9.746e-09\RMSF=5.112e-06\Dipole=0.22
 8068,2.5423559,0.5015971\Quadrupole=9.0305089,2.9355938,-11.9661027,2.
 4171735,-0.5494658,-2.0415425\PG=C01 [X(C29H31N7O1)]\\@


 MY DESCRIPTION OF EXPERIENCE IS NOT WHAT HAPPENS
 TO A MAN.  EXPERIENCE IS WHAT A MAN DOES WITH WHAT
 HAPPENS TO HIM.
                         - CHUCK KNOX, SEATTLE SEAHAWKS, 1985
 Job cpu time:  0 days 13 hours 41 minutes 36.6 seconds.
 File lengths (MBytes):  RWF=    244 Int=      0 D2E=      0 Chk=     25 Scr=      1
 Normal termination of Gaussian 09 at Thu Feb 27 17:14:24 2020.
