 Entering Gaussian System, Link 0=g09
 Input=MOLECULE0-opt-14-13-11-12-340.com
 Output=MOLECULE0-opt-14-13-11-12-340.log
 Initial command:
 /opt/g09gh/gaussian/g09/l1.exe /scratch/bdw2292/Gau-MOLECULE0/Gau-43829.inp -scrdir=/scratch/bdw2292/Gau-MOLECULE0/
 Entering Link 1 = /opt/g09gh/gaussian/g09/l1.exe PID=     43830.
  
 Copyright (c) 1988,1990,1992,1993,1995,1998,2003,2009, Gaussian, Inc.
                  All Rights Reserved.
  
 This is part of the Gaussian(R) 09 program.  It is based on
 the Gaussian(R) 03 system (copyright 2003, Gaussian, Inc.),
 the Gaussian(R) 98 system (copyright 1998, Gaussian, Inc.),
 the Gaussian(R) 94 system (copyright 1995, Gaussian, Inc.),
 the Gaussian 92(TM) system (copyright 1992, Gaussian, Inc.),
 the Gaussian 90(TM) system (copyright 1990, Gaussian, Inc.),
 the Gaussian 88(TM) system (copyright 1988, Gaussian, Inc.),
 the Gaussian 86(TM) system (copyright 1986, Carnegie Mellon
 University), and the Gaussian 82(TM) system (copyright 1983,
 Carnegie Mellon University). Gaussian is a federally registered
 trademark of Gaussian, Inc.
  
 This software contains proprietary and confidential information,
 including trade secrets, belonging to Gaussian, Inc.
  
 This software is provided under written license and may be
 used, copied, transmitted, or stored only in accord with that
 written license.
  
 The following legend is applicable only to US Government
 contracts under FAR:
  
                    RESTRICTED RIGHTS LEGEND
  
 Use, reproduction and disclosure by the US Government is
 subject to restrictions as set forth in subparagraphs (a)
 and (c) of the Commercial Computer Software - Restricted
 Rights clause in FAR 52.227-19.
  
 Gaussian, Inc.
 340 Quinnipiac St., Bldg. 40, Wallingford CT 06492
  
  
 ---------------------------------------------------------------
 Warning -- This program may not be used in any manner that
 competes with the business of Gaussian, Inc. or will provide
 assistance to any competitor of Gaussian, Inc.  The licensee
 of this program is prohibited from giving any competitor of
 Gaussian, Inc. access to this program.  By using this program,
 the user acknowledges that Gaussian, Inc. is engaged in the
 business of creating and licensing software in the field of
 computational chemistry and represents and warrants to the
 licensee that it is not a competitor of Gaussian, Inc. and that
 it will not use this program in any manner prohibited above.
 ---------------------------------------------------------------
  

 Cite this work as:
 Gaussian 09, Revision A.02,
 M. J. Frisch, G. W. Trucks, H. B. Schlegel, G. E. Scuseria, 
 M. A. Robb, J. R. Cheeseman, G. Scalmani, V. Barone, B. Mennucci, 
 G. A. Petersson, H. Nakatsuji, M. Caricato, X. Li, H. P. Hratchian, 
 A. F. Izmaylov, J. Bloino, G. Zheng, J. L. Sonnenberg, M. Hada, 
 M. Ehara, K. Toyota, R. Fukuda, J. Hasegawa, M. Ishida, T. Nakajima, 
 Y. Honda, O. Kitao, H. Nakai, T. Vreven, J. A. Montgomery, Jr., 
 J. E. Peralta, F. Ogliaro, M. Bearpark, J. J. Heyd, E. Brothers, 
 K. N. Kudin, V. N. Staroverov, R. Kobayashi, J. Normand, 
 K. Raghavachari, A. Rendell, J. C. Burant, S. S. Iyengar, J. Tomasi, 
 M. Cossi, N. Rega, J. M. Millam, M. Klene, J. E. Knox, J. B. Cross, 
 V. Bakken, C. Adamo, J. Jaramillo, R. Gomperts, R. E. Stratmann, 
 O. Yazyev, A. J. Austin, R. Cammi, C. Pomelli, J. W. Ochterski, 
 R. L. Martin, K. Morokuma, V. G. Zakrzewski, G. A. Voth, 
 P. Salvador, J. J. Dannenberg, S. Dapprich, A. D. Daniels, 
 O. Farkas, J. B. Foresman, J. V. Ortiz, J. Cioslowski, 
 and D. J. Fox, Gaussian, Inc., Wallingford CT, 2009.
 
 ******************************************
 Gaussian 09:  EM64L-G09RevA.02 11-Jun-2009
                27-Feb-2020 
 ******************************************
 %RWF=/scratch/bdw2292/Gau-MOLECULE0/,100GB
 %Nosave
 %Chk=MOLECULE0-opt-14-13-11-12-340.chk
 %Mem=20GB
 %Nproc=6
 Will use up to    6 processors via shared memory.
 --------------------------------------------------
 #P opt=(,maxcycle=400) wB97XD/6-31G* MaxDisk=100GB
 --------------------------------------------------
 1/6=400,14=-1,18=20,19=15,26=3,38=1/1,3;
 2/9=110,12=2,17=6,18=5,40=1/2;
 3/5=1,6=6,7=1,11=2,16=1,25=1,30=1,71=1,74=-58/1,2,3;
 4//1;
 5/5=2,38=5/2;
 6/7=2,8=2,9=2,10=2,28=1/1;
 7//1,2,3,16;
 1/6=400,14=-1,18=20,19=15/3(2);
 2/9=110/2;
 99//99;
 2/9=110/2;
 3/5=1,6=6,7=1,11=2,16=1,25=1,30=1,71=1,74=-58/1,2,3;
 4/5=5,16=3/1;
 5/5=2,38=5/2;
 7//1,2,3,16;
 1/6=400,14=-1,18=20,19=15/3(-5);
 2/9=110/2;
 6/7=2,8=2,9=2,10=2,19=2,28=1/1;
 99/9=1/99;
 Leave Link    1 at Thu Feb 27 15:04:40 2020, MaxMem= 2684354560 cpu:       0.2
 (Enter /opt/g09gh/gaussian/g09/l101.exe)
 -----------------------------------------------------------------
 MOLECULE0 Rotatable Bond Optimization on g2-node38.bme.utexas.edu
 -----------------------------------------------------------------
 Symbolic Z-matrix:
 Charge =  0 Multiplicity = 1
 C                     0.2848    4.14741  -2.46261 
 C                     1.48768   4.13664  -1.74337 
 C                     2.12217   2.91289  -1.45244 
 C                     1.47189   1.74934  -1.93654 
 N                     0.31843   1.73899  -2.61738 
 C                    -0.25712   2.92381  -2.87212 
 C                     3.38921   2.80009  -0.6417 
 C                     4.10347   3.86068  -0.06218 
 C                     5.20997   3.49357   0.71464 
 N                     5.5976    2.23879   0.93282 
 C                     4.85027   1.28812   0.33656 
 N                     3.78889   1.53345  -0.43324 
 N                     5.22543  -0.02301   0.55366 
 C                     4.49657  -1.2599    0.4176 
 C                     5.20545  -2.49716   0.35839 
 C                     4.44068  -3.66654   0.2057 
 C                     3.04538  -3.67798   0.08746 
 C                     2.36632  -2.45685   0.15024 
 C                     3.09798  -1.27398   0.3398 
 N                     0.95599  -2.26669   0.00568 
 C                    -0.04573  -3.13299  -0.36282 
 C                    -1.39958  -2.52622  -0.67839 
 C                    -1.54566  -1.27684  -1.30594 
 C                    -2.81612  -0.75238  -1.54998 
 C                    -3.98147  -1.45625  -1.19368 
 C                    -3.82027  -2.71298  -0.57851 
 C                    -2.5533   -3.24864  -0.3342 
 C                    -5.36794  -0.84841  -1.41089 
 N                    -5.90079   0.08573  -0.40185 
 C                    -5.35755   1.46106  -0.3369 
 C                    -4.21154   1.65708   0.68885 
 N                    -4.53841   1.20006   2.05937 
 C                    -5.30764   2.12706   2.89801 
 C                    -5.03344  -0.19623   1.99265 
 C                    -6.17026  -0.42608   0.96218 
 O                     0.11869  -4.34132  -0.42136 
 C                     6.71901  -2.59545   0.43912 
 H                    -0.2238    5.07842  -2.6946 
 H                     1.90009   5.087    -1.41365 
 H                     1.91313   0.77179  -1.76025 
 H                    -1.19217   2.88764  -3.4292 
 H                     3.83167   4.90374  -0.16834 
 H                     5.81301   4.25832   1.20307 
 H                     6.21154  -0.07442   0.76173 
 H                     4.94802  -4.62875   0.14505 
 H                     2.49563  -4.59853  -0.06668 
 H                     2.57898  -0.32777   0.3796 
 H                     0.65445  -1.31011   0.1286 
 H                    -0.66266  -0.71669  -1.60735 
 H                    -2.89088   0.22444  -2.02789 
 H                    -4.69561  -3.2864   -0.2741 
 H                    -2.43723  -4.21957   0.14092 
 H                    -5.36953  -0.31673  -2.37375 
 H                    -6.09706  -1.66705  -1.49759 
 H                    -5.10559   1.81109  -1.29841 
 H                    -6.53374   2.38287   0.17759 
 H                    -3.91004   3.11546   0.73704 
 H                    -3.23306   1.09712   0.34429 
 H                    -6.31366   2.28303   2.49266 
 H                    -4.79724   3.09496   2.9592 
 H                    -5.39564   1.73035   3.91607 
 H                    -5.35987  -0.54538   3.06382 
 H                    -3.88275  -1.03985   1.58054 
 H                    -7.4042    0.385     1.52052 
 H                    -6.4789   -1.48169   0.92294 
 H                     7.09394  -2.221     1.40233 
 H                     7.20276  -2.00923  -0.35498 
 H                     7.08776  -3.62561   0.33748 
 
 NAtoms=     68 NQM=     68 NQMF=      0 NMic=      0 NMicF=      0 NTot=     68.
                    Isotopes and Nuclear Properties:
 (Nuclear quadrupole moments (NQMom) in fm**2, nuclear magnetic moments (NMagM)
  in nuclear magnetons)

  Atom         1           2           3           4           5           6           7           8           9          10
 IAtWgt=          12          12          12          12          14          12          12          12          12          14
 AtmWgt=  12.0000000  12.0000000  12.0000000  12.0000000  14.0030740  12.0000000  12.0000000  12.0000000  12.0000000  14.0030740
 NucSpn=           0           0           0           0           2           0           0           0           0           2
 AtZEff=   0.0000000   0.0000000   0.0000000   0.0000000   0.0000000   0.0000000   0.0000000   0.0000000   0.0000000   0.0000000
 NQMom=    0.0000000   0.0000000   0.0000000   0.0000000   2.0440000   0.0000000   0.0000000   0.0000000   0.0000000   2.0440000
 NMagM=    0.0000000   0.0000000   0.0000000   0.0000000   0.4037610   0.0000000   0.0000000   0.0000000   0.0000000   0.4037610

  Atom        11          12          13          14          15          16          17          18          19          20
 IAtWgt=          12          14          14          12          12          12          12          12          12          14
 AtmWgt=  12.0000000  14.0030740  14.0030740  12.0000000  12.0000000  12.0000000  12.0000000  12.0000000  12.0000000  14.0030740
 NucSpn=           0           2           2           0           0           0           0           0           0           2
 AtZEff=   0.0000000   0.0000000   0.0000000   0.0000000   0.0000000   0.0000000   0.0000000   0.0000000   0.0000000   0.0000000
 NQMom=    0.0000000   2.0440000   2.0440000   0.0000000   0.0000000   0.0000000   0.0000000   0.0000000   0.0000000   2.0440000
 NMagM=    0.0000000   0.4037610   0.4037610   0.0000000   0.0000000   0.0000000   0.0000000   0.0000000   0.0000000   0.4037610

  Atom        21          22          23          24          25          26          27          28          29          30
 IAtWgt=          12          12          12          12          12          12          12          12          14          12
 AtmWgt=  12.0000000  12.0000000  12.0000000  12.0000000  12.0000000  12.0000000  12.0000000  12.0000000  14.0030740  12.0000000
 NucSpn=           0           0           0           0           0           0           0           0           2           0
 AtZEff=   0.0000000   0.0000000   0.0000000   0.0000000   0.0000000   0.0000000   0.0000000   0.0000000   0.0000000   0.0000000
 NQMom=    0.0000000   0.0000000   0.0000000   0.0000000   0.0000000   0.0000000   0.0000000   0.0000000   2.0440000   0.0000000
 NMagM=    0.0000000   0.0000000   0.0000000   0.0000000   0.0000000   0.0000000   0.0000000   0.0000000   0.4037610   0.0000000

  Atom        31          32          33          34          35          36          37          38          39          40
 IAtWgt=          12          14          12          12          12          16          12           1           1           1
 AtmWgt=  12.0000000  14.0030740  12.0000000  12.0000000  12.0000000  15.9949146  12.0000000   1.0078250   1.0078250   1.0078250
 NucSpn=           0           2           0           0           0           0           0           1           1           1
 AtZEff=   0.0000000   0.0000000   0.0000000   0.0000000   0.0000000   0.0000000   0.0000000   0.0000000   0.0000000   0.0000000
 NQMom=    0.0000000   2.0440000   0.0000000   0.0000000   0.0000000   0.0000000   0.0000000   0.0000000   0.0000000   0.0000000
 NMagM=    0.0000000   0.4037610   0.0000000   0.0000000   0.0000000   0.0000000   0.0000000   2.7928460   2.7928460   2.7928460

  Atom        41          42          43          44          45          46          47          48          49          50
 IAtWgt=           1           1           1           1           1           1           1           1           1           1
 AtmWgt=   1.0078250   1.0078250   1.0078250   1.0078250   1.0078250   1.0078250   1.0078250   1.0078250   1.0078250   1.0078250
 NucSpn=           1           1           1           1           1           1           1           1           1           1
 AtZEff=   0.0000000   0.0000000   0.0000000   0.0000000   0.0000000   0.0000000   0.0000000   0.0000000   0.0000000   0.0000000
 NQMom=    0.0000000   0.0000000   0.0000000   0.0000000   0.0000000   0.0000000   0.0000000   0.0000000   0.0000000   0.0000000
 NMagM=    2.7928460   2.7928460   2.7928460   2.7928460   2.7928460   2.7928460   2.7928460   2.7928460   2.7928460   2.7928460

  Atom        51          52          53          54          55          56          57          58          59          60
 IAtWgt=           1           1           1           1           1           1           1           1           1           1
 AtmWgt=   1.0078250   1.0078250   1.0078250   1.0078250   1.0078250   1.0078250   1.0078250   1.0078250   1.0078250   1.0078250
 NucSpn=           1           1           1           1           1           1           1           1           1           1
 AtZEff=   0.0000000   0.0000000   0.0000000   0.0000000   0.0000000   0.0000000   0.0000000   0.0000000   0.0000000   0.0000000
 NQMom=    0.0000000   0.0000000   0.0000000   0.0000000   0.0000000   0.0000000   0.0000000   0.0000000   0.0000000   0.0000000
 NMagM=    2.7928460   2.7928460   2.7928460   2.7928460   2.7928460   2.7928460   2.7928460   2.7928460   2.7928460   2.7928460

  Atom        61          62          63          64          65          66          67          68
 IAtWgt=           1           1           1           1           1           1           1           1
 AtmWgt=   1.0078250   1.0078250   1.0078250   1.0078250   1.0078250   1.0078250   1.0078250   1.0078250
 NucSpn=           1           1           1           1           1           1           1           1
 AtZEff=   0.0000000   0.0000000   0.0000000   0.0000000   0.0000000   0.0000000   0.0000000   0.0000000
 NQMom=    0.0000000   0.0000000   0.0000000   0.0000000   0.0000000   0.0000000   0.0000000   0.0000000
 NMagM=    2.7928460   2.7928460   2.7928460   2.7928460   2.7928460   2.7928460   2.7928460   2.7928460
 Leave Link  101 at Thu Feb 27 15:04:40 2020, MaxMem= 2684354560 cpu:       0.4
 (Enter /opt/g09gh/gaussian/g09/l103.exe)

 GradGradGradGradGradGradGradGradGradGradGradGradGradGradGradGradGradGrad
 Berny optimization.
 Initialization pass.
                           ----------------------------
                           !    Initial Parameters    !
                           ! (Angstroms and Degrees)  !
 --------------------------                            --------------------------
 ! Name  Definition              Value          Derivative Info.                !
 --------------------------------------------------------------------------------
 ! R1    R(1,2)                  1.4015         estimate D2E/DX2                !
 ! R2    R(1,6)                  1.3995         estimate D2E/DX2                !
 ! R3    R(1,38)                 1.0859         estimate D2E/DX2                !
 ! R4    R(2,3)                  1.4088         estimate D2E/DX2                !
 ! R5    R(2,39)                 1.0872         estimate D2E/DX2                !
 ! R6    R(3,4)                  1.4181         estimate D2E/DX2                !
 ! R7    R(3,7)                  1.5085         estimate D2E/DX2                !
 ! R8    R(4,5)                  1.3394         estimate D2E/DX2                !
 ! R9    R(4,40)                 1.0869         estimate D2E/DX2                !
 ! R10   R(5,6)                  1.3416         estimate D2E/DX2                !
 ! R11   R(6,41)                 1.089          estimate D2E/DX2                !
 ! R12   R(7,8)                  1.4039         estimate D2E/DX2                !
 ! R13   R(7,12)                 1.3445         estimate D2E/DX2                !
 ! R14   R(8,9)                  1.4009         estimate D2E/DX2                !
 ! R15   R(8,42)                 1.0831         estimate D2E/DX2                !
 ! R16   R(9,10)                 1.3313         estimate D2E/DX2                !
 ! R17   R(9,43)                 1.0895         estimate D2E/DX2                !
 ! R18   R(10,11)                1.3483         estimate D2E/DX2                !
 ! R19   R(11,12)                1.3339         estimate D2E/DX2                !
 ! R20   R(11,13)                1.3809         estimate D2E/DX2                !
 ! R21   R(13,14)                1.4421         estimate D2E/DX2                !
 ! R22   R(13,44)                1.0091         estimate D2E/DX2                !
 ! R23   R(14,15)                1.4272         estimate D2E/DX2                !
 ! R24   R(14,19)                1.4008         estimate D2E/DX2                !
 ! R25   R(15,16)                1.4056         estimate D2E/DX2                !
 ! R26   R(15,37)                1.5189         estimate D2E/DX2                !
 ! R27   R(16,17)                1.4003         estimate D2E/DX2                !
 ! R28   R(16,45)                1.0895         estimate D2E/DX2                !
 ! R29   R(17,18)                1.3987         estimate D2E/DX2                !
 ! R30   R(17,46)                1.0832         estimate D2E/DX2                !
 ! R31   R(18,19)                1.4037         estimate D2E/DX2                !
 ! R32   R(18,20)                1.4304         estimate D2E/DX2                !
 ! R33   R(19,47)                1.0799         estimate D2E/DX2                !
 ! R34   R(20,21)                1.3747         estimate D2E/DX2                !
 ! R35   R(20,48)                1.0105         estimate D2E/DX2                !
 ! R36   R(21,22)                1.5168         estimate D2E/DX2                !
 ! R37   R(21,36)                1.2209         estimate D2E/DX2                !
 ! R38   R(22,23)                1.4057         estimate D2E/DX2                !
 ! R39   R(22,27)                1.4041         estimate D2E/DX2                !
 ! R40   R(23,24)                1.3959         estimate D2E/DX2                !
 ! R41   R(23,49)                1.0883         estimate D2E/DX2                !
 ! R42   R(24,25)                1.4073         estimate D2E/DX2                !
 ! R43   R(24,50)                1.09           estimate D2E/DX2                !
 ! R44   R(25,26)                1.4085         estimate D2E/DX2                !
 ! R45   R(25,28)                1.5294         estimate D2E/DX2                !
 ! R46   R(26,27)                1.3971         estimate D2E/DX2                !
 ! R47   R(26,51)                1.0898         estimate D2E/DX2                !
 ! R48   R(27,52)                1.0872         estimate D2E/DX2                !
 ! R49   R(28,29)                1.4747         estimate D2E/DX2                !
 ! R50   R(28,53)                1.0999         estimate D2E/DX2                !
 ! R51   R(28,54)                1.0997         estimate D2E/DX2                !
 ! R52   R(29,30)                1.4802         estimate D2E/DX2                !
 ! R53   R(29,35)                1.4816         estimate D2E/DX2                !
 ! R54   R(30,31)                1.5505         estimate D2E/DX2                !
 ! R55   R(30,55)                1.0538         estimate D2E/DX2                !
 ! R56   R(30,56)                1.5805         estimate D2E/DX2                !
 ! R57   R(31,32)                1.4812         estimate D2E/DX2                !
 ! R58   R(31,57)                1.49           estimate D2E/DX2                !
 ! R59   R(31,58)                1.1789         estimate D2E/DX2                !
 ! R60   R(32,33)                1.4678         estimate D2E/DX2                !
 ! R61   R(32,34)                1.4829         estimate D2E/DX2                !
 ! R62   R(33,59)                1.0958         estimate D2E/DX2                !
 ! R63   R(33,60)                1.0959         estimate D2E/DX2                !
 ! R64   R(33,61)                1.0962         estimate D2E/DX2                !
 ! R65   R(34,35)                1.5515         estimate D2E/DX2                !
 ! R66   R(34,62)                1.173          estimate D2E/DX2                !
 ! R67   R(34,63)                1.4851         estimate D2E/DX2                !
 ! R68   R(35,64)                1.5787         estimate D2E/DX2                !
 ! R69   R(35,65)                1.1005         estimate D2E/DX2                !
 ! R70   R(37,66)                1.0993         estimate D2E/DX2                !
 ! R71   R(37,67)                1.0992         estimate D2E/DX2                !
 ! R72   R(37,68)                1.0989         estimate D2E/DX2                !
 ! A1    A(2,1,6)              118.4105         estimate D2E/DX2                !
 ! A2    A(2,1,38)             121.21           estimate D2E/DX2                !
 ! A3    A(6,1,38)             120.3782         estimate D2E/DX2                !
 ! A4    A(1,2,3)              119.9456         estimate D2E/DX2                !
 ! A5    A(1,2,39)             118.3257         estimate D2E/DX2                !
 ! A6    A(3,2,39)             121.7248         estimate D2E/DX2                !
 ! A7    A(2,3,4)              115.8294         estimate D2E/DX2                !
 ! A8    A(2,3,7)              123.6584         estimate D2E/DX2                !
 ! A9    A(4,3,7)              120.4829         estimate D2E/DX2                !
 ! A10   A(3,4,5)              125.0811         estimate D2E/DX2                !
 ! A11   A(3,4,40)             119.7629         estimate D2E/DX2                !
 ! A12   A(5,4,40)             115.156          estimate D2E/DX2                !
 ! A13   A(4,5,6)              117.3298         estimate D2E/DX2                !
 ! A14   A(1,6,5)              123.3982         estimate D2E/DX2                !
 ! A15   A(1,6,41)             120.7443         estimate D2E/DX2                !
 ! A16   A(5,6,41)             115.8575         estimate D2E/DX2                !
 ! A17   A(3,7,8)              126.3507         estimate D2E/DX2                !
 ! A18   A(3,7,12)             113.7963         estimate D2E/DX2                !
 ! A19   A(8,7,12)             119.7684         estimate D2E/DX2                !
 ! A20   A(7,8,9)              115.644          estimate D2E/DX2                !
 ! A21   A(7,8,42)             124.0145         estimate D2E/DX2                !
 ! A22   A(9,8,42)             120.3264         estimate D2E/DX2                !
 ! A23   A(8,9,10)             124.6004         estimate D2E/DX2                !
 ! A24   A(8,9,43)             120.1197         estimate D2E/DX2                !
 ! A25   A(10,9,43)            115.2739         estimate D2E/DX2                !
 ! A26   A(9,10,11)            115.5129         estimate D2E/DX2                !
 ! A27   A(10,11,12)           124.5123         estimate D2E/DX2                !
 ! A28   A(10,11,13)           116.7026         estimate D2E/DX2                !
 ! A29   A(12,11,13)           118.785          estimate D2E/DX2                !
 ! A30   A(7,12,11)            119.9532         estimate D2E/DX2                !
 ! A31   A(11,13,14)           131.4689         estimate D2E/DX2                !
 ! A32   A(11,13,44)           110.2593         estimate D2E/DX2                !
 ! A33   A(14,13,44)           118.0108         estimate D2E/DX2                !
 ! A34   A(13,14,15)           119.7647         estimate D2E/DX2                !
 ! A35   A(13,14,19)           121.2298         estimate D2E/DX2                !
 ! A36   A(15,14,19)           119.0055         estimate D2E/DX2                !
 ! A37   A(14,15,16)           117.0971         estimate D2E/DX2                !
 ! A38   A(14,15,37)           123.2886         estimate D2E/DX2                !
 ! A39   A(16,15,37)           119.6118         estimate D2E/DX2                !
 ! A40   A(15,16,17)           123.9249         estimate D2E/DX2                !
 ! A41   A(15,16,45)           119.1738         estimate D2E/DX2                !
 ! A42   A(17,16,45)           116.8775         estimate D2E/DX2                !
 ! A43   A(16,17,18)           118.2189         estimate D2E/DX2                !
 ! A44   A(16,17,46)           121.6438         estimate D2E/DX2                !
 ! A45   A(18,17,46)           120.1283         estimate D2E/DX2                !
 ! A46   A(17,18,19)           119.2556         estimate D2E/DX2                !
 ! A47   A(17,18,20)           126.1731         estimate D2E/DX2                !
 ! A48   A(19,18,20)           114.553          estimate D2E/DX2                !
 ! A49   A(14,19,18)           122.437          estimate D2E/DX2                !
 ! A50   A(14,19,47)           117.9671         estimate D2E/DX2                !
 ! A51   A(18,19,47)           119.5248         estimate D2E/DX2                !
 ! A52   A(18,20,21)           131.4357         estimate D2E/DX2                !
 ! A53   A(18,20,48)           114.0652         estimate D2E/DX2                !
 ! A54   A(21,20,48)           114.3135         estimate D2E/DX2                !
 ! A55   A(20,21,22)           117.0066         estimate D2E/DX2                !
 ! A56   A(20,21,36)           122.5774         estimate D2E/DX2                !
 ! A57   A(22,21,36)           120.4077         estimate D2E/DX2                !
 ! A58   A(21,22,23)           122.7633         estimate D2E/DX2                !
 ! A59   A(21,22,27)           118.4634         estimate D2E/DX2                !
 ! A60   A(23,22,27)           118.7724         estimate D2E/DX2                !
 ! A61   A(22,23,24)           120.433          estimate D2E/DX2                !
 ! A62   A(22,23,49)           119.7878         estimate D2E/DX2                !
 ! A63   A(24,23,49)           119.7786         estimate D2E/DX2                !
 ! A64   A(23,24,25)           121.4311         estimate D2E/DX2                !
 ! A65   A(23,24,50)           118.4085         estimate D2E/DX2                !
 ! A66   A(25,24,50)           120.1604         estimate D2E/DX2                !
 ! A67   A(24,25,26)           117.5216         estimate D2E/DX2                !
 ! A68   A(24,25,28)           121.0621         estimate D2E/DX2                !
 ! A69   A(26,25,28)           121.3608         estimate D2E/DX2                !
 ! A70   A(25,26,27)           121.4853         estimate D2E/DX2                !
 ! A71   A(25,26,51)           119.9695         estimate D2E/DX2                !
 ! A72   A(27,26,51)           118.5432         estimate D2E/DX2                !
 ! A73   A(22,27,26)           120.3334         estimate D2E/DX2                !
 ! A74   A(22,27,52)           118.6147         estimate D2E/DX2                !
 ! A75   A(26,27,52)           121.0418         estimate D2E/DX2                !
 ! A76   A(25,28,29)           118.8258         estimate D2E/DX2                !
 ! A77   A(25,28,53)           108.528          estimate D2E/DX2                !
 ! A78   A(25,28,54)           108.4453         estimate D2E/DX2                !
 ! A79   A(29,28,53)           106.9937         estimate D2E/DX2                !
 ! A80   A(29,28,54)           106.6146         estimate D2E/DX2                !
 ! A81   A(53,28,54)           106.8504         estimate D2E/DX2                !
 ! A82   A(28,29,30)           119.0779         estimate D2E/DX2                !
 ! A83   A(28,29,35)           118.4794         estimate D2E/DX2                !
 ! A84   A(30,29,35)           110.3241         estimate D2E/DX2                !
 ! A85   A(29,30,31)           114.6947         estimate D2E/DX2                !
 ! A86   A(29,30,55)           110.8764         estimate D2E/DX2                !
 ! A87   A(29,30,56)           106.4455         estimate D2E/DX2                !
 ! A88   A(31,30,55)           112.638          estimate D2E/DX2                !
 ! A89   A(31,30,56)           105.1276         estimate D2E/DX2                !
 ! A90   A(55,30,56)           106.3332         estimate D2E/DX2                !
 ! A91   A(30,31,32)           114.2056         estimate D2E/DX2                !
 ! A92   A(30,31,57)           107.1403         estimate D2E/DX2                !
 ! A93   A(30,31,58)           111.1053         estimate D2E/DX2                !
 ! A94   A(32,31,57)           108.4648         estimate D2E/DX2                !
 ! A95   A(32,31,58)           107.8811         estimate D2E/DX2                !
 ! A96   A(57,31,58)           107.8437         estimate D2E/DX2                !
 ! A97   A(31,32,33)           116.7084         estimate D2E/DX2                !
 ! A98   A(31,32,34)           108.8171         estimate D2E/DX2                !
 ! A99   A(33,32,34)           116.4502         estimate D2E/DX2                !
 ! A100  A(32,33,59)           111.0811         estimate D2E/DX2                !
 ! A101  A(32,33,60)           110.2189         estimate D2E/DX2                !
 ! A102  A(32,33,61)           110.131          estimate D2E/DX2                !
 ! A103  A(59,33,60)           108.8151         estimate D2E/DX2                !
 ! A104  A(59,33,61)           108.7461         estimate D2E/DX2                !
 ! A105  A(60,33,61)           107.7677         estimate D2E/DX2                !
 ! A106  A(32,34,35)           114.4548         estimate D2E/DX2                !
 ! A107  A(32,34,62)           109.3952         estimate D2E/DX2                !
 ! A108  A(32,34,63)           106.7798         estimate D2E/DX2                !
 ! A109  A(35,34,62)           111.0096         estimate D2E/DX2                !
 ! A110  A(35,34,63)           107.4131         estimate D2E/DX2                !
 ! A111  A(62,34,63)           107.4546         estimate D2E/DX2                !
 ! A112  A(29,35,34)           115.2799         estimate D2E/DX2                !
 ! A113  A(29,35,64)           106.8755         estimate D2E/DX2                !
 ! A114  A(29,35,65)           110.4586         estimate D2E/DX2                !
 ! A115  A(34,35,64)           105.1711         estimate D2E/DX2                !
 ! A116  A(34,35,65)           111.7951         estimate D2E/DX2                !
 ! A117  A(64,35,65)           106.6314         estimate D2E/DX2                !
 ! A118  A(15,37,66)           111.3693         estimate D2E/DX2                !
 ! A119  A(15,37,67)           111.4468         estimate D2E/DX2                !
 ! A120  A(15,37,68)           112.9633         estimate D2E/DX2                !
 ! A121  A(66,37,67)           107.531          estimate D2E/DX2                !
 ! A122  A(66,37,68)           106.6126         estimate D2E/DX2                !
 ! A123  A(67,37,68)           106.5866         estimate D2E/DX2                !
 ! D1    D(6,1,2,3)              0.1486         estimate D2E/DX2                !
 ! D2    D(6,1,2,39)          -179.1418         estimate D2E/DX2                !
 ! D3    D(38,1,2,3)           179.7438         estimate D2E/DX2                !
 ! D4    D(38,1,2,39)            0.4534         estimate D2E/DX2                !
 ! D5    D(2,1,6,5)             -0.321          estimate D2E/DX2                !
 ! D6    D(2,1,6,41)           179.7318         estimate D2E/DX2                !
 ! D7    D(38,1,6,5)          -179.9197         estimate D2E/DX2                !
 ! D8    D(38,1,6,41)            0.133          estimate D2E/DX2                !
 ! D9    D(1,2,3,4)              0.3984         estimate D2E/DX2                !
 ! D10   D(1,2,3,7)           -177.6353         estimate D2E/DX2                !
 ! D11   D(39,2,3,4)           179.6641         estimate D2E/DX2                !
 ! D12   D(39,2,3,7)             1.6303         estimate D2E/DX2                !
 ! D13   D(2,3,4,5)             -0.8886         estimate D2E/DX2                !
 ! D14   D(2,3,4,40)           179.1551         estimate D2E/DX2                !
 ! D15   D(7,3,4,5)            177.2123         estimate D2E/DX2                !
 ! D16   D(7,3,4,40)            -2.744          estimate D2E/DX2                !
 ! D17   D(2,3,7,8)              0.4953         estimate D2E/DX2                !
 ! D18   D(2,3,7,12)           177.1149         estimate D2E/DX2                !
 ! D19   D(4,3,7,8)           -177.451          estimate D2E/DX2                !
 ! D20   D(4,3,7,12)            -0.8314         estimate D2E/DX2                !
 ! D21   D(3,4,5,6)              0.746          estimate D2E/DX2                !
 ! D22   D(40,4,5,6)          -179.2959         estimate D2E/DX2                !
 ! D23   D(4,5,6,1)             -0.1089         estimate D2E/DX2                !
 ! D24   D(4,5,6,41)           179.8407         estimate D2E/DX2                !
 ! D25   D(3,7,8,9)            176.2813         estimate D2E/DX2                !
 ! D26   D(3,7,8,42)            -2.3065         estimate D2E/DX2                !
 ! D27   D(12,7,8,9)            -0.1552         estimate D2E/DX2                !
 ! D28   D(12,7,8,42)         -178.7431         estimate D2E/DX2                !
 ! D29   D(3,7,12,11)         -175.977          estimate D2E/DX2                !
 ! D30   D(8,7,12,11)            0.8867         estimate D2E/DX2                !
 ! D31   D(7,8,9,10)            -0.5843         estimate D2E/DX2                !
 ! D32   D(7,8,9,43)          -179.6552         estimate D2E/DX2                !
 ! D33   D(42,8,9,10)          178.0597         estimate D2E/DX2                !
 ! D34   D(42,8,9,43)           -1.0113         estimate D2E/DX2                !
 ! D35   D(8,9,10,11)            0.5411         estimate D2E/DX2                !
 ! D36   D(43,9,10,11)         179.6524         estimate D2E/DX2                !
 ! D37   D(9,10,11,12)           0.2581         estimate D2E/DX2                !
 ! D38   D(9,10,11,13)        -179.5886         estimate D2E/DX2                !
 ! D39   D(10,11,12,7)          -0.9793         estimate D2E/DX2                !
 ! D40   D(13,11,12,7)         178.8645         estimate D2E/DX2                !
 ! D41   D(10,11,13,14)        160.0109         estimate D2E/DX2                !
 ! D42   D(10,11,13,44)        -26.118          estimate D2E/DX2                !
 ! D43   D(12,11,13,14)        -19.845          estimate D2E/DX2                !
 ! D44   D(12,11,13,44)        154.026          estimate D2E/DX2                !
 ! D45   D(11,13,14,15)        163.2273         estimate D2E/DX2                !
 ! D46   D(11,13,14,19)        -16.6822         estimate D2E/DX2                !
 ! D47   D(44,13,14,15)        -10.2584         estimate D2E/DX2                !
 ! D48   D(44,13,14,19)        169.8321         estimate D2E/DX2                !
 ! D49   D(13,14,15,16)       -179.0875         estimate D2E/DX2                !
 ! D50   D(13,14,15,37)          0.3371         estimate D2E/DX2                !
 ! D51   D(19,14,15,16)          0.8241         estimate D2E/DX2                !
 ! D52   D(19,14,15,37)       -179.7514         estimate D2E/DX2                !
 ! D53   D(13,14,19,18)        177.2283         estimate D2E/DX2                !
 ! D54   D(13,14,19,47)          0.3135         estimate D2E/DX2                !
 ! D55   D(15,14,19,18)         -2.6819         estimate D2E/DX2                !
 ! D56   D(15,14,19,47)       -179.5967         estimate D2E/DX2                !
 ! D57   D(14,15,16,17)          1.1358         estimate D2E/DX2                !
 ! D58   D(14,15,16,45)        179.3032         estimate D2E/DX2                !
 ! D59   D(37,15,16,17)       -178.3109         estimate D2E/DX2                !
 ! D60   D(37,15,16,45)         -0.1435         estimate D2E/DX2                !
 ! D61   D(14,15,37,66)         62.2698         estimate D2E/DX2                !
 ! D62   D(14,15,37,67)        -57.8117         estimate D2E/DX2                !
 ! D63   D(14,15,37,68)       -177.7819         estimate D2E/DX2                !
 ! D64   D(16,15,37,66)       -118.3194         estimate D2E/DX2                !
 ! D65   D(16,15,37,67)        121.5991         estimate D2E/DX2                !
 ! D66   D(16,15,37,68)          1.6289         estimate D2E/DX2                !
 ! D67   D(15,16,17,18)         -1.2769         estimate D2E/DX2                !
 ! D68   D(15,16,17,46)        177.6333         estimate D2E/DX2                !
 ! D69   D(45,16,17,18)       -179.483          estimate D2E/DX2                !
 ! D70   D(45,16,17,46)         -0.5728         estimate D2E/DX2                !
 ! D71   D(16,17,18,19)         -0.5621         estimate D2E/DX2                !
 ! D72   D(16,17,18,20)        177.7932         estimate D2E/DX2                !
 ! D73   D(46,17,18,19)       -179.4894         estimate D2E/DX2                !
 ! D74   D(46,17,18,20)         -1.1341         estimate D2E/DX2                !
 ! D75   D(17,18,19,14)          2.5568         estimate D2E/DX2                !
 ! D76   D(17,18,19,47)        179.4252         estimate D2E/DX2                !
 ! D77   D(20,18,19,14)       -175.9836         estimate D2E/DX2                !
 ! D78   D(20,18,19,47)          0.8849         estimate D2E/DX2                !
 ! D79   D(17,18,20,21)         -8.1693         estimate D2E/DX2                !
 ! D80   D(17,18,20,48)        177.1523         estimate D2E/DX2                !
 ! D81   D(19,18,20,21)        170.2532         estimate D2E/DX2                !
 ! D82   D(19,18,20,48)         -4.4253         estimate D2E/DX2                !
 ! D83   D(18,20,21,22)       -168.1605         estimate D2E/DX2                !
 ! D84   D(18,20,21,36)         12.886          estimate D2E/DX2                !
 ! D85   D(48,20,21,22)          6.5076         estimate D2E/DX2                !
 ! D86   D(48,20,21,36)       -172.446          estimate D2E/DX2                !
 ! D87   D(20,21,22,23)         35.435          estimate D2E/DX2                !
 ! D88   D(20,21,22,27)       -144.9068         estimate D2E/DX2                !
 ! D89   D(36,21,22,23)       -145.5874         estimate D2E/DX2                !
 ! D90   D(36,21,22,27)         34.0707         estimate D2E/DX2                !
 ! D91   D(21,22,23,24)       -178.7415         estimate D2E/DX2                !
 ! D92   D(21,22,23,49)          1.5206         estimate D2E/DX2                !
 ! D93   D(27,22,23,24)          1.6014         estimate D2E/DX2                !
 ! D94   D(27,22,23,49)       -178.1366         estimate D2E/DX2                !
 ! D95   D(21,22,27,26)        178.5052         estimate D2E/DX2                !
 ! D96   D(21,22,27,52)         -0.3489         estimate D2E/DX2                !
 ! D97   D(23,22,27,26)         -1.8228         estimate D2E/DX2                !
 ! D98   D(23,22,27,52)        179.3231         estimate D2E/DX2                !
 ! D99   D(22,23,24,25)         -0.7347         estimate D2E/DX2                !
 ! D100  D(22,23,24,50)        179.2865         estimate D2E/DX2                !
 ! D101  D(49,23,24,25)        179.0032         estimate D2E/DX2                !
 ! D102  D(49,23,24,50)         -0.9755         estimate D2E/DX2                !
 ! D103  D(23,24,25,26)          0.0607         estimate D2E/DX2                !
 ! D104  D(23,24,25,28)        177.3877         estimate D2E/DX2                !
 ! D105  D(50,24,25,26)       -179.9609         estimate D2E/DX2                !
 ! D106  D(50,24,25,28)         -2.6339         estimate D2E/DX2                !
 ! D107  D(24,25,26,27)         -0.2875         estimate D2E/DX2                !
 ! D108  D(24,25,26,51)        179.1916         estimate D2E/DX2                !
 ! D109  D(28,25,26,27)       -177.606          estimate D2E/DX2                !
 ! D110  D(28,25,26,51)          1.8731         estimate D2E/DX2                !
 ! D111  D(24,25,28,29)        -82.8704         estimate D2E/DX2                !
 ! D112  D(24,25,28,53)         39.5604         estimate D2E/DX2                !
 ! D113  D(24,25,28,54)        155.2857         estimate D2E/DX2                !
 ! D114  D(26,25,28,29)         94.3534         estimate D2E/DX2                !
 ! D115  D(26,25,28,53)       -143.2158         estimate D2E/DX2                !
 ! D116  D(26,25,28,54)        -27.4905         estimate D2E/DX2                !
 ! D117  D(25,26,27,22)          1.1894         estimate D2E/DX2                !
 ! D118  D(25,26,27,52)       -179.9848         estimate D2E/DX2                !
 ! D119  D(51,26,27,22)       -178.297          estimate D2E/DX2                !
 ! D120  D(51,26,27,52)          0.5289         estimate D2E/DX2                !
 ! D121  D(25,28,29,30)         74.5498         estimate D2E/DX2                !
 ! D122  D(25,28,29,35)        -64.3715         estimate D2E/DX2                !
 ! D123  D(53,28,29,30)        -48.6433         estimate D2E/DX2                !
 ! D124  D(53,28,29,35)        172.4354         estimate D2E/DX2                !
 ! D125  D(54,28,29,30)       -162.6916         estimate D2E/DX2                !
 ! D126  D(54,28,29,35)         58.3871         estimate D2E/DX2                !
 ! D127  D(28,29,30,31)        -94.5254         estimate D2E/DX2                !
 ! D128  D(28,29,30,55)         34.4359         estimate D2E/DX2                !
 ! D129  D(28,29,30,56)        149.6751         estimate D2E/DX2                !
 ! D130  D(35,29,30,31)         47.4555         estimate D2E/DX2                !
 ! D131  D(35,29,30,55)        176.4167         estimate D2E/DX2                !
 ! D132  D(35,29,30,56)        -68.3441         estimate D2E/DX2                !
 ! D133  D(28,29,35,34)         95.7712         estimate D2E/DX2                !
 ! D134  D(28,29,35,64)       -147.7601         estimate D2E/DX2                !
 ! D135  D(28,29,35,65)        -32.1401         estimate D2E/DX2                !
 ! D136  D(30,29,35,34)        -46.4655         estimate D2E/DX2                !
 ! D137  D(30,29,35,64)         70.0032         estimate D2E/DX2                !
 ! D138  D(30,29,35,65)       -174.3768         estimate D2E/DX2                !
 ! D139  D(29,30,31,32)        -53.0284         estimate D2E/DX2                !
 ! D140  D(29,30,31,57)       -173.1631         estimate D2E/DX2                !
 ! D141  D(29,30,31,58)         69.2717         estimate D2E/DX2                !
 ! D142  D(55,30,31,32)        178.8936         estimate D2E/DX2                !
 ! D143  D(55,30,31,57)         58.759          estimate D2E/DX2                !
 ! D144  D(55,30,31,58)        -58.8063         estimate D2E/DX2                !
 ! D145  D(56,30,31,32)         63.5291         estimate D2E/DX2                !
 ! D146  D(56,30,31,57)        -56.6056         estimate D2E/DX2                !
 ! D147  D(56,30,31,58)       -174.1708         estimate D2E/DX2                !
 ! D148  D(30,31,32,33)        -81.9713         estimate D2E/DX2                !
 ! D149  D(30,31,32,34)         52.3131         estimate D2E/DX2                !
 ! D150  D(57,31,32,33)         37.4196         estimate D2E/DX2                !
 ! D151  D(57,31,32,34)        171.7039         estimate D2E/DX2                !
 ! D152  D(58,31,32,33)        153.9824         estimate D2E/DX2                !
 ! D153  D(58,31,32,34)        -71.7332         estimate D2E/DX2                !
 ! D154  D(31,32,33,59)         65.5298         estimate D2E/DX2                !
 ! D155  D(31,32,33,60)        -55.1556         estimate D2E/DX2                !
 ! D156  D(31,32,33,61)       -173.93           estimate D2E/DX2                !
 ! D157  D(34,32,33,59)        -65.2832         estimate D2E/DX2                !
 ! D158  D(34,32,33,60)        174.0314         estimate D2E/DX2                !
 ! D159  D(34,32,33,61)         55.257          estimate D2E/DX2                !
 ! D160  D(31,32,34,35)        -51.1345         estimate D2E/DX2                !
 ! D161  D(31,32,34,62)       -176.421          estimate D2E/DX2                !
 ! D162  D(31,32,34,63)         67.5837         estimate D2E/DX2                !
 ! D163  D(33,32,34,35)         83.282          estimate D2E/DX2                !
 ! D164  D(33,32,34,62)        -42.0044         estimate D2E/DX2                !
 ! D165  D(33,32,34,63)       -157.9998         estimate D2E/DX2                !
 ! D166  D(32,34,35,29)         50.7009         estimate D2E/DX2                !
 ! D167  D(32,34,35,64)        -66.7306         estimate D2E/DX2                !
 ! D168  D(32,34,35,65)        177.941          estimate D2E/DX2                !
 ! D169  D(62,34,35,29)        175.1345         estimate D2E/DX2                !
 ! D170  D(62,34,35,64)         57.7029         estimate D2E/DX2                !
 ! D171  D(62,34,35,65)        -57.6255         estimate D2E/DX2                !
 ! D172  D(63,34,35,29)        -67.6592         estimate D2E/DX2                !
 ! D173  D(63,34,35,64)        174.9093         estimate D2E/DX2                !
 ! D174  D(63,34,35,65)         59.5809         estimate D2E/DX2                !
 --------------------------------------------------------------------------------
 Trust Radius=3.00D-01 FncErr=1.00D-07 GrdErr=1.00D-06
 Number of steps in this run= 400 maximum allowed number of steps= 408.
 GradGradGradGradGradGradGradGradGradGradGradGradGradGradGradGradGradGrad

 Leave Link  103 at Thu Feb 27 15:04:41 2020, MaxMem= 2684354560 cpu:       0.1
 (Enter /opt/g09gh/gaussian/g09/l202.exe)
 Stoichiometry    C29H31N7O
 Framework group  C1[X(C29H31N7O)]
 Deg. of freedom   198
 Full point group                 C1      NOp   1
 Largest Abelian subgroup         C1      NOp   1
 Largest concise Abelian subgroup C1      NOp   1
                         Standard orientation:                         
 ---------------------------------------------------------------------
 Center     Atomic      Atomic             Coordinates (Angstroms)
 Number     Number       Type             X           Y           Z
 ---------------------------------------------------------------------
      1          6           0        0.259205    4.362227   -1.829631
      2          6           0        1.446716    4.260852   -1.092155
      3          6           0        2.056473    3.003917   -0.910289
      4          6           0        1.398753    1.904373   -1.518139
      5          7           0        0.259533    1.980143   -2.218540
      6          6           0       -0.292642    3.193816   -2.367073
      7          6           0        3.304705    2.790995   -0.090529
      8          6           0        4.022858    3.777685    0.603413
      9          6           0        5.107441    3.317746    1.361499
     10          7           0        5.471455    2.041241    1.463242
     11          6           0        4.722245    1.166122    0.762766
     12          7           0        3.680780    1.503420    0.000609
     13          7           0        5.072959   -0.166135    0.857689
     14          6           0        4.328408   -1.371244    0.587484
     15          6           0        5.019538   -2.608762    0.421049
     16          6           0        4.240448   -3.744459    0.140207
     17          6           0        2.847867   -3.720480   -0.005090
     18          6           0        2.186224   -2.499865    0.163900
     19          6           0        2.931660   -1.353782    0.482111
     20          7           0        0.782212   -2.272455    0.011847
     21          6           0       -0.224707   -3.081466   -0.458587
     22          6           0       -1.562430   -2.423789   -0.738990
     23          6           0       -1.676624   -1.116869   -1.244007
     24          6           0       -2.933696   -0.549494   -1.459695
     25          6           0       -4.116670   -1.264737   -1.196152
     26          6           0       -3.987213   -2.578019   -0.703890
     27          6           0       -2.733800   -3.156504   -0.489092
     28          6           0       -5.489006   -0.615018   -1.379201
     29          7           0       -6.028308    0.225272   -0.293954
     30          6           0       -5.465759    1.578240   -0.084492
     31          6           0       -4.338269    1.653738    0.977114
     32          7           0       -4.700167    1.070945    2.289906
     33          6           0       -5.472377    1.924781    3.200408
     34          6           0       -5.214809   -0.303530    2.077551
     35          6           0       -6.333522   -0.412385    1.008112
     36          8           0       -0.077441   -4.280968   -0.631886
     37          6           0        6.529452   -2.740299    0.520534
     38          1           0       -0.230357    5.319971   -1.979082
     39          1           0        1.866600    5.167366   -0.663295
     40          1           0        1.821420    0.906903   -1.429944
     41          1           0       -1.216468    3.228098   -2.942699
     42          1           0        3.769126    4.830610    0.594622
     43          1           0        5.711809    4.020833    1.933750
     44          1           0        6.053680   -0.254425    1.078443
     45          1           0        4.734295   -4.704702   -0.004595
     46          1           0        2.287526   -4.612098   -0.258936
     47          1           0        2.426335   -0.407224    0.604386
     48          1           0        0.492727   -1.327396    0.221969
     49          1           0       -0.779226   -0.545178   -1.472341
     50          1           0       -2.983806    0.470392   -1.841111
     51          1           0       -4.877220   -3.163336   -0.473714
     52          1           0       -2.642258   -4.170963   -0.109089
     53          1           0       -5.462721    0.007934   -2.285302
     54          1           0       -6.228503   -1.408739   -1.559393
     55          1           0       -5.188779    2.015978   -1.002192
     56          1           0       -6.638195    2.465472    0.495228
     57          1           0       -4.015770    3.095110    1.173427
     58          1           0       -3.361491    1.113395    0.598104
     59          1           0       -6.467364    2.136686    2.793198
     60          1           0       -4.948746    2.873250    3.365657
     61          1           0       -5.587319    1.432285    4.172934
     62          1           0       -5.568481   -0.749806    3.103034
     63          1           0       -4.068792   -1.122496    1.606856
     64          1           0       -7.566272    0.361367    1.619541
     65          1           0       -6.657241   -1.453716    0.859961
     66          1           0        6.890101   -2.467990    1.522698
     67          1           0        7.038272   -2.087813   -0.203081
     68          1           0        6.884573   -3.761797    0.325665
 ---------------------------------------------------------------------
 Rotational constants (GHZ):      0.1309954      0.0587813      0.0464576
 Leave Link  202 at Thu Feb 27 15:04:41 2020, MaxMem= 2684354560 cpu:       0.1
 (Enter /opt/g09gh/gaussian/g09/l301.exe)
 Standard basis: 6-31G(d) (6D, 7F)
 Ernie: Thresh=  0.10000D-02 Tol=  0.10000D-05 Strict=F.
 There are   617 symmetry adapted basis functions of A   symmetry.
 Integral buffers will be    131072 words long.
 Raffenetti 2 integral format.
 Two-electron integral symmetry is turned on.
   617 basis functions,  1160 primitive gaussians,   617 cartesian basis functions
   131 alpha electrons      131 beta electrons
       nuclear repulsion energy      3772.4711632963 Hartrees.
 IExCor= 4639 DFT=T Ex+Corr=wB97XD ExCW=0 ScaHFX=  1.000000
 ScaDFX=  1.000000  1.000000  1.000000  1.000000 ScalE2=  1.000000  1.000000
 IRadAn=      0 IRanWt=     -1 IRanGd=            0 ICorTp=0
  HFx wShort=  0.000000 wLong=  0.200000 cFull=  0.222036 cShort=  0.000000 cLong=  0.777964
  DFx wShort=  0.000000 wLong=  0.200000 cFull=  0.000000 cShort=  0.000000 cLong=  1.000000
 NAtoms=   68 NActive=   68 NUniq=   68 SFac= 7.50D-01 NAtFMM=   80 NAOKFM=F Big=T
 R6Disp: Dispersion energy =        -0.0580123673 Hartrees.
 Nuclear repulsion after empirical dispersion term =     3772.4131509290 Hartrees.
 Leave Link  301 at Thu Feb 27 15:04:41 2020, MaxMem= 2684354560 cpu:       0.3
 (Enter /opt/g09gh/gaussian/g09/l302.exe)
 NPDir=0 NMtPBC=     1 NCelOv=     1 NCel=       1 NClECP=     1 NCelD=      1
         NCelK=      1 NCelE2=     1 NClLst=     1 CellRange=     0.0.
 One-electron integrals computed using PRISM.
 NBasis=   617 RedAO= T  NBF=   617
 NBsUse=   617 1.00D-06 NBFU=   617
 Precomputing XC quadrature grid using
 IXCGrd= 2 IRadAn=           0 IRanWt=          -1 IRanGd=           0 AccXCQ= 1.00D-10.
 NRdTot=    4374 NPtTot=      559232 NUsed=      590747 NTot=      590779
 NSgBfM=   600   600   600   600   600 NAtAll=    68    68.
 Leave Link  302 at Thu Feb 27 15:04:42 2020, MaxMem= 2684354560 cpu:       7.7
 (Enter /opt/g09gh/gaussian/g09/l303.exe)
 DipDrv:  MaxL=1.
 Leave Link  303 at Thu Feb 27 15:04:42 2020, MaxMem= 2684354560 cpu:       0.7
 (Enter /opt/g09gh/gaussian/g09/l401.exe)
 Harris functional with IExCor= 4639 diagonalized for initial guess.
 ExpMin= 1.61D-01 ExpMax= 5.48D+03 ExpMxC= 8.25D+02 IAcc=1 IRadAn=         1 AccDes= 0.00D+00
 HarFok:  IExCor= 4639 AccDes= 0.00D+00 IRadAn=         1 IDoV= 1
 ScaDFX=  1.000000  1.000000  1.000000  1.000000
 FoFCou: FMM=F IPFlag=           0 FMFlag=      100000 FMFlg1=           1
         NFxFlg=           0 DoJE=T BraDBF=F KetDBF=T FulRan=T
         Omega=  0.000000  0.000000  1.000000  0.000000  0.000000 ICntrl=     500 IOpCl=  0
         NMat0=    1 NMatS0=    1 NMatT0=    0 NMatD0=    1 NMtDS0=    0 NMtDT0=    0
         I1Cent=           4 NGrid=           0.
 Petite list used in FoFCou.
 Harris En= -1512.39808137705    
 Initial guess orbital symmetries:
       Occupied  (A) (A) (A) (A) (A) (A) (A) (A) (A) (A) (A) (A)
                 (A) (A) (A) (A) (A) (A) (A) (A) (A) (A) (A) (A)
                 (A) (A) (A) (A) (A) (A) (A) (A) (A) (A) (A) (A)
                 (A) (A) (A) (A) (A) (A) (A) (A) (A) (A) (A) (A)
                 (A) (A) (A) (A) (A) (A) (A) (A) (A) (A) (A) (A)
                 (A) (A) (A) (A) (A) (A) (A) (A) (A) (A) (A) (A)
                 (A) (A) (A) (A) (A) (A) (A) (A) (A) (A) (A) (A)
                 (A) (A) (A) (A) (A) (A) (A) (A) (A) (A) (A) (A)
                 (A) (A) (A) (A) (A) (A) (A) (A) (A) (A) (A) (A)
                 (A) (A) (A) (A) (A) (A) (A) (A) (A) (A) (A) (A)
                 (A) (A) (A) (A) (A) (A) (A) (A) (A) (A) (A)
       Virtual   (A) (A) (A) (A) (A) (A) (A) (A) (A) (A) (A) (A)
                 (A) (A) (A) (A) (A) (A) (A) (A) (A) (A) (A) (A)
                 (A) (A) (A) (A) (A) (A) (A) (A) (A) (A) (A) (A)
                 (A) (A) (A) (A) (A) (A) (A) (A) (A) (A) (A) (A)
                 (A) (A) (A) (A) (A) (A) (A) (A) (A) (A) (A) (A)
                 (A) (A) (A) (A) (A) (A) (A) (A) (A) (A) (A) (A)
                 (A) (A) (A) (A) (A) (A) (A) (A) (A) (A) (A) (A)
                 (A) (A) (A) (A) (A) (A) (A) (A) (A) (A) (A) (A)
                 (A) (A) (A) (A) (A) (A) (A) (A) (A) (A) (A) (A)
                 (A) (A) (A) (A) (A) (A) (A) (A) (A) (A) (A) (A)
                 (A) (A) (A) (A) (A) (A) (A) (A) (A) (A) (A) (A)
                 (A) (A) (A) (A) (A) (A) (A) (A) (A) (A) (A) (A)
                 (A) (A) (A) (A) (A) (A) (A) (A) (A) (A) (A) (A)
                 (A) (A) (A) (A) (A) (A) (A) (A) (A) (A) (A) (A)
                 (A) (A) (A) (A) (A) (A) (A) (A) (A) (A) (A) (A)
                 (A) (A) (A) (A) (A) (A) (A) (A) (A) (A) (A) (A)
                 (A) (A) (A) (A) (A) (A) (A) (A) (A) (A) (A) (A)
                 (A) (A) (A) (A) (A) (A) (A) (A) (A) (A) (A) (A)
                 (A) (A) (A) (A) (A) (A) (A) (A) (A) (A) (A) (A)
                 (A) (A) (A) (A) (A) (A) (A) (A) (A) (A) (A) (A)
                 (A) (A) (A) (A) (A) (A) (A) (A) (A) (A) (A) (A)
                 (A) (A) (A) (A) (A) (A) (A) (A) (A) (A) (A) (A)
                 (A) (A) (A) (A) (A) (A) (A) (A) (A) (A) (A) (A)
                 (A) (A) (A) (A) (A) (A) (A) (A) (A) (A) (A) (A)
                 (A) (A) (A) (A) (A) (A) (A) (A) (A) (A) (A) (A)
                 (A) (A) (A) (A) (A) (A) (A) (A) (A) (A) (A) (A)
                 (A) (A) (A) (A) (A) (A) (A) (A) (A) (A) (A) (A)
                 (A) (A) (A) (A) (A) (A) (A) (A) (A) (A) (A) (A)
                 (A) (A) (A) (A) (A) (A) (A) (A) (A) (A) (A) (A)
                 (A) (A) (A) (A) (A) (A) (A) (A) (A) (A) (A) (A)
                 (A) (A) (A) (A) (A) (A) (A) (A) (A) (A) (A) (A)
                 (A) (A) (A) (A) (A) (A) (A) (A) (A) (A) (A) (A)
                 (A) (A) (A) (A) (A) (A) (A) (A) (A) (A) (A) (A)
                 (A) (A) (A) (A) (A) (A) (A) (A) (A) (A) (A) (A)
                 (A) (A) (A) (A) (A) (A) (A) (A) (A) (A) (A) (A)
                 (A) (A) (A) (A) (A) (A) (A) (A) (A) (A) (A) (A)
                 (A) (A) (A) (A) (A) (A) (A) (A) (A) (A) (A) (A)
                 (A) (A) (A) (A) (A) (A) (A) (A) (A) (A) (A) (A)
                 (A) (A) (A) (A) (A) (A) (A) (A) (A) (A) (A) (A)
                 (A) (A) (A) (A) (A) (A) (A) (A) (A) (A) (A) (A)
                 (A) (A) (A) (A) (A) (A)
 The electronic state of the initial guess is 1-A.
 Leave Link  401 at Thu Feb 27 15:04:45 2020, MaxMem= 2684354560 cpu:      14.6
 (Enter /opt/g09gh/gaussian/g09/l502.exe)
 Closed shell SCF:
 Requested convergence on RMS density matrix=1.00D-08 within 128 cycles.
 Requested convergence on MAX density matrix=1.00D-06.
 Requested convergence on             energy=1.00D-06.
 No special actions if energy rises.
 Using DIIS extrapolation, IDIIS=  1040.
 Integral symmetry usage will be decided dynamically.
       590122 words used for storage of precomputed grid.
 IEnd=     1758702 IEndB=     1758702 NGot=  2684354560 MDV=  2682993805
 LenX=  2682993805 LenY=  2682612499
 Fock matrices will be formed incrementally for  20 cycles.
 Integral accuracy reduced to 1.0D-05 until final iterations.

 Cycle   1  Pass 0  IDiag  1:
 FoFJK:  IHMeth= 1 ICntrl=     0 DoSepK=T KAlg= 1 I1Cent= 0 FoldK=F
 FoFCou: FMM=T IPFlag=           0 FMFlag=      100000 FMFlg1=           1
         NFxFlg=           0 DoJE=T BraDBF=F KetDBF=F FulRan=T
         Omega=  0.000000  0.000000  1.000000  0.000000  0.000000 ICntrl=     500 IOpCl=  0
         NMat0=    1 NMatS0=    1 NMatT0=    0 NMatD0=    1 NMtDS0=    0 NMtDT0=    0
         I1Cent=           0 NGrid=           0.
 Symmetry not used in FoFCou.
 FMM levels:  10  Number of levels for PrismC:   9
 E= -1581.16048370741    
 DIIS: error= 5.61D-02 at cycle   1 NSaved=   1.
 NSaved= 1 IEnMin= 1 EnMin= -1581.16048370741     IErMin= 1 ErrMin= 5.61D-02
 ErrMax= 5.61D-02 EMaxC= 1.00D-01 BMatC= 1.46D+00 BMatP= 1.46D+00
 IDIUse=3 WtCom= 4.39D-01 WtEn= 5.61D-01
 Coeff-Com:  0.100D+01
 Coeff-En:   0.100D+01
 Coeff:      0.100D+01
 Gap=     0.270 Goal=   None    Shift=    0.000
 GapD=    0.270 DampG=1.000 DampE=0.500 DampFc=0.5000 IDamp=-1.
 Damping current iteration by 5.00D-01
 RMSDP=1.88D-03 MaxDP=8.71D-02              OVMax= 1.69D-01

 Cycle   2  Pass 0  IDiag  1:
 RMSU=  6.64D-04    CP:  1.00D+00
 FoFJK:  IHMeth= 1 ICntrl=     0 DoSepK=T KAlg= 1 I1Cent= 0 FoldK=F
 E= -1581.33574044701     Delta-E=       -0.175256739596 Rises=F Damp=T
 DIIS: error= 2.85D-02 at cycle   2 NSaved=   2.
 NSaved= 2 IEnMin= 2 EnMin= -1581.33574044701     IErMin= 2 ErrMin= 2.85D-02
 ErrMax= 2.85D-02 EMaxC= 1.00D-01 BMatC= 3.22D-01 BMatP= 1.46D+00
 IDIUse=3 WtCom= 7.15D-01 WtEn= 2.85D-01
 Coeff-Com: -0.656D+00 0.166D+01
 Coeff-En:   0.000D+00 0.100D+01
 Coeff:     -0.469D+00 0.147D+01
 Gap=     0.282 Goal=   None    Shift=    0.000
 RMSDP=8.80D-04 MaxDP=3.78D-02 DE=-1.75D-01 OVMax= 1.19D-01

 Cycle   3  Pass 0  IDiag  1:
 RMSU=  5.67D-04    CP:  1.00D+00  1.39D+00
 FoFJK:  IHMeth= 1 ICntrl=     0 DoSepK=T KAlg= 1 I1Cent= 0 FoldK=F
 E= -1581.46391602309     Delta-E=       -0.128175576077 Rises=F Damp=F
 DIIS: error= 9.45D-03 at cycle   3 NSaved=   3.
 NSaved= 3 IEnMin= 3 EnMin= -1581.46391602309     IErMin= 3 ErrMin= 9.45D-03
 ErrMax= 9.45D-03 EMaxC= 1.00D-01 BMatC= 6.32D-02 BMatP= 3.22D-01
 IDIUse=3 WtCom= 9.06D-01 WtEn= 9.45D-02
 Coeff-Com: -0.366D+00 0.757D+00 0.609D+00
 Coeff-En:   0.000D+00 0.000D+00 0.100D+01
 Coeff:     -0.332D+00 0.685D+00 0.646D+00
 Gap=     0.262 Goal=   None    Shift=    0.000
 RMSDP=4.80D-04 MaxDP=3.08D-02 DE=-1.28D-01 OVMax= 6.26D-02

 Cycle   4  Pass 0  IDiag  1:
 RMSU=  1.45D-04    CP:  1.00D+00  1.68D+00  5.82D-01
 FoFJK:  IHMeth= 1 ICntrl=     0 DoSepK=T KAlg= 1 I1Cent= 0 FoldK=F
 E= -1581.51932543154     Delta-E=       -0.055409408452 Rises=F Damp=F
 DIIS: error= 2.40D-03 at cycle   4 NSaved=   4.
 NSaved= 4 IEnMin= 4 EnMin= -1581.51932543154     IErMin= 4 ErrMin= 2.40D-03
 ErrMax= 2.40D-03 EMaxC= 1.00D-01 BMatC= 4.22D-03 BMatP= 6.32D-02
 IDIUse=3 WtCom= 9.76D-01 WtEn= 2.40D-02
 Coeff-Com: -0.162D+00 0.330D+00 0.350D+00 0.481D+00
 Coeff-En:   0.000D+00 0.000D+00 0.000D+00 0.100D+01
 Coeff:     -0.158D+00 0.322D+00 0.342D+00 0.494D+00
 Gap=     0.255 Goal=   None    Shift=    0.000
 RMSDP=1.09D-04 MaxDP=9.22D-03 DE=-5.54D-02 OVMax= 1.05D-02

 Cycle   5  Pass 0  IDiag  1:
 RMSU=  4.60D-05    CP:  1.00D+00  1.66D+00  6.58D-01  7.12D-01
 FoFJK:  IHMeth= 1 ICntrl=     0 DoSepK=T KAlg= 1 I1Cent= 0 FoldK=F
 E= -1581.52300068235     Delta-E=       -0.003675250809 Rises=F Damp=F
 DIIS: error= 5.98D-04 at cycle   5 NSaved=   5.
 NSaved= 5 IEnMin= 5 EnMin= -1581.52300068235     IErMin= 5 ErrMin= 5.98D-04
 ErrMax= 5.98D-04 EMaxC= 1.00D-01 BMatC= 9.06D-05 BMatP= 4.22D-03
 IDIUse=3 WtCom= 9.94D-01 WtEn= 5.98D-03
 Coeff-Com: -0.143D-01 0.281D-01 0.537D-01 0.158D+00 0.775D+00
 Coeff-En:   0.000D+00 0.000D+00 0.000D+00 0.000D+00 0.100D+01
 Coeff:     -0.142D-01 0.279D-01 0.534D-01 0.157D+00 0.776D+00
 Gap=     0.254 Goal=   None    Shift=    0.000
 RMSDP=2.46D-05 MaxDP=2.53D-03 DE=-3.68D-03 OVMax= 2.89D-03

 Cycle   6  Pass 0  IDiag  1:
 RMSU=  1.33D-05    CP:  1.00D+00  1.66D+00  6.64D-01  7.79D-01  9.92D-01
 FoFJK:  IHMeth= 1 ICntrl=     0 DoSepK=T KAlg= 1 I1Cent= 0 FoldK=F
 E= -1581.52309042973     Delta-E=       -0.000089747378 Rises=F Damp=F
 DIIS: error= 3.15D-04 at cycle   6 NSaved=   6.
 NSaved= 6 IEnMin= 6 EnMin= -1581.52309042973     IErMin= 6 ErrMin= 3.15D-04
 ErrMax= 3.15D-04 EMaxC= 1.00D-01 BMatC= 2.64D-05 BMatP= 9.06D-05
 IDIUse=3 WtCom= 9.97D-01 WtEn= 3.15D-03
 Coeff-Com:  0.230D-01-0.476D-01-0.362D-01-0.139D-01 0.391D+00 0.683D+00
 Coeff-En:   0.000D+00 0.000D+00 0.000D+00 0.000D+00 0.000D+00 0.100D+01
 Coeff:      0.229D-01-0.474D-01-0.361D-01-0.138D-01 0.390D+00 0.684D+00
 Gap=     0.255 Goal=   None    Shift=    0.000
 RMSDP=1.30D-05 MaxDP=8.05D-04 DE=-8.97D-05 OVMax= 1.64D-03

 Cycle   7  Pass 0  IDiag  1:
 RMSU=  5.75D-06    CP:  1.00D+00  1.67D+00  6.68D-01  8.05D-01  1.11D+00
                    CP:  8.98D-01
 FoFJK:  IHMeth= 1 ICntrl=     0 DoSepK=T KAlg= 1 I1Cent= 0 FoldK=F
 E= -1581.52312007330     Delta-E=       -0.000029643571 Rises=F Damp=F
 DIIS: error= 7.57D-05 at cycle   7 NSaved=   7.
 NSaved= 7 IEnMin= 7 EnMin= -1581.52312007330     IErMin= 7 ErrMin= 7.57D-05
 ErrMax= 7.57D-05 EMaxC= 1.00D-01 BMatC= 1.78D-06 BMatP= 2.64D-05
 IDIUse=1 WtCom= 1.00D+00 WtEn= 0.00D+00
 Coeff-Com:  0.964D-02-0.197D-01-0.174D-01-0.205D-01 0.640D-01 0.243D+00
 Coeff-Com:  0.741D+00
 Coeff:      0.964D-02-0.197D-01-0.174D-01-0.205D-01 0.640D-01 0.243D+00
 Coeff:      0.741D+00
 Gap=     0.255 Goal=   None    Shift=    0.000
 RMSDP=4.14D-06 MaxDP=2.52D-04 DE=-2.96D-05 OVMax= 6.37D-04

 Initial convergence to 1.0D-05 achieved.  Increase integral accuracy.
 Cycle   8  Pass 1  IDiag  1:
 FoFJK:  IHMeth= 1 ICntrl=     0 DoSepK=T KAlg= 1 I1Cent= 0 FoldK=F
 E= -1581.52147184197     Delta-E=        0.001648231332 Rises=F Damp=F
 DIIS: error= 9.56D-05 at cycle   1 NSaved=   1.
 NSaved= 1 IEnMin= 1 EnMin= -1581.52147184197     IErMin= 1 ErrMin= 9.56D-05
 ErrMax= 9.56D-05 EMaxC= 1.00D-01 BMatC= 1.32D-05 BMatP= 1.32D-05
 IDIUse=1 WtCom= 1.00D+00 WtEn= 0.00D+00
 Coeff-Com:  0.100D+01
 Coeff:      0.100D+01
 Gap=     0.255 Goal=   None    Shift=    0.000
 RMSDP=4.14D-06 MaxDP=2.52D-04 DE= 1.65D-03 OVMax= 3.90D-04

 Cycle   9  Pass 1  IDiag  1:
 RMSU=  1.80D-05    CP:  1.00D+00
 FoFJK:  IHMeth= 1 ICntrl=     0 DoSepK=T KAlg= 1 I1Cent= 0 FoldK=F
 E= -1581.52148244876     Delta-E=       -0.000010606793 Rises=F Damp=F
 DIIS: error= 4.67D-05 at cycle   2 NSaved=   2.
 NSaved= 2 IEnMin= 2 EnMin= -1581.52148244876     IErMin= 2 ErrMin= 4.67D-05
 ErrMax= 4.67D-05 EMaxC= 1.00D-01 BMatC= 8.39D-07 BMatP= 1.32D-05
 IDIUse=1 WtCom= 1.00D+00 WtEn= 0.00D+00
 Coeff-Com:  0.431D-01 0.957D+00
 Coeff:      0.431D-01 0.957D+00
 Gap=     0.255 Goal=   None    Shift=    0.000
 RMSDP=3.31D-06 MaxDP=2.62D-04 DE=-1.06D-05 OVMax= 3.27D-04

 Cycle  10  Pass 1  IDiag  1:
 RMSU=  2.17D-06    CP:  1.00D+00  1.05D+00
 FoFJK:  IHMeth= 1 ICntrl=     0 DoSepK=T KAlg= 1 I1Cent= 0 FoldK=F
 E= -1581.52148255537     Delta-E=       -0.000000106616 Rises=F Damp=F
 DIIS: error= 4.96D-05 at cycle   3 NSaved=   3.
 NSaved= 3 IEnMin= 3 EnMin= -1581.52148255537     IErMin= 2 ErrMin= 4.67D-05
 ErrMax= 4.96D-05 EMaxC= 1.00D-01 BMatC= 1.00D-06 BMatP= 8.39D-07
 IDIUse=1 WtCom= 1.00D+00 WtEn= 0.00D+00
 Coeff-Com: -0.394D-01 0.538D+00 0.502D+00
 Coeff:     -0.394D-01 0.538D+00 0.502D+00
 Gap=     0.255 Goal=   None    Shift=    0.000
 RMSDP=1.60D-06 MaxDP=1.54D-04 DE=-1.07D-07 OVMax= 1.39D-04

 Cycle  11  Pass 1  IDiag  1:
 RMSU=  6.73D-07    CP:  1.00D+00  1.06D+00  5.93D-01
 FoFJK:  IHMeth= 1 ICntrl=     0 DoSepK=T KAlg= 1 I1Cent= 0 FoldK=F
 E= -1581.52148339283     Delta-E=       -0.000000837459 Rises=F Damp=F
 DIIS: error= 8.94D-06 at cycle   4 NSaved=   4.
 NSaved= 4 IEnMin= 4 EnMin= -1581.52148339283     IErMin= 4 ErrMin= 8.94D-06
 ErrMax= 8.94D-06 EMaxC= 1.00D-01 BMatC= 2.58D-08 BMatP= 8.39D-07
 IDIUse=1 WtCom= 1.00D+00 WtEn= 0.00D+00
 Coeff-Com: -0.187D-01 0.139D+00 0.181D+00 0.698D+00
 Coeff:     -0.187D-01 0.139D+00 0.181D+00 0.698D+00
 Gap=     0.255 Goal=   None    Shift=    0.000
 RMSDP=3.65D-07 MaxDP=3.71D-05 DE=-8.37D-07 OVMax= 3.69D-05

 Cycle  12  Pass 1  IDiag  1:
 RMSU=  2.36D-07    CP:  1.00D+00  1.06D+00  6.38D-01  1.04D+00
 FoFJK:  IHMeth= 1 ICntrl=     0 DoSepK=T KAlg= 1 I1Cent= 0 FoldK=F
 E= -1581.52148341817     Delta-E=       -0.000000025335 Rises=F Damp=F
 DIIS: error= 3.46D-06 at cycle   5 NSaved=   5.
 NSaved= 5 IEnMin= 5 EnMin= -1581.52148341817     IErMin= 5 ErrMin= 3.46D-06
 ErrMax= 3.46D-06 EMaxC= 1.00D-01 BMatC= 5.09D-09 BMatP= 2.58D-08
 IDIUse=1 WtCom= 1.00D+00 WtEn= 0.00D+00
 Coeff-Com:  0.926D-04-0.408D-01-0.207D-01 0.289D+00 0.772D+00
 Coeff:      0.926D-04-0.408D-01-0.207D-01 0.289D+00 0.772D+00
 Gap=     0.255 Goal=   None    Shift=    0.000
 RMSDP=2.08D-07 MaxDP=1.30D-05 DE=-2.53D-08 OVMax= 3.44D-05

 Cycle  13  Pass 1  IDiag  1:
 RMSU=  9.08D-08    CP:  1.00D+00  1.06D+00  6.55D-01  1.20D+00  9.73D-01
 FoFJK:  IHMeth= 1 ICntrl=     0 DoSepK=T KAlg= 1 I1Cent= 0 FoldK=F
 E= -1581.52148342551     Delta-E=       -0.000000007345 Rises=F Damp=F
 DIIS: error= 8.74D-07 at cycle   6 NSaved=   6.
 NSaved= 6 IEnMin= 6 EnMin= -1581.52148342551     IErMin= 6 ErrMin= 8.74D-07
 ErrMax= 8.74D-07 EMaxC= 1.00D-01 BMatC= 6.68D-10 BMatP= 5.09D-09
 IDIUse=1 WtCom= 1.00D+00 WtEn= 0.00D+00
 Coeff-Com:  0.224D-02-0.315D-01-0.306D-01 0.228D-01 0.301D+00 0.736D+00
 Coeff:      0.224D-02-0.315D-01-0.306D-01 0.228D-01 0.301D+00 0.736D+00
 Gap=     0.255 Goal=   None    Shift=    0.000
 RMSDP=8.47D-08 MaxDP=3.98D-06 DE=-7.35D-09 OVMax= 1.41D-05

 Cycle  14  Pass 1  IDiag  1:
 RMSU=  3.72D-08    CP:  1.00D+00  1.06D+00  6.59D-01  1.25D+00  1.10D+00
                    CP:  1.04D+00
 FoFJK:  IHMeth= 1 ICntrl=     0 DoSepK=T KAlg= 1 I1Cent= 0 FoldK=F
 E= -1581.52148342676     Delta-E=       -0.000000001247 Rises=F Damp=F
 DIIS: error= 3.12D-07 at cycle   7 NSaved=   7.
 NSaved= 7 IEnMin= 7 EnMin= -1581.52148342676     IErMin= 7 ErrMin= 3.12D-07
 ErrMax= 3.12D-07 EMaxC= 1.00D-01 BMatC= 1.08D-10 BMatP= 6.68D-10
 IDIUse=1 WtCom= 1.00D+00 WtEn= 0.00D+00
 Coeff-Com:  0.749D-03-0.359D-02-0.812D-02-0.511D-01-0.361D-01 0.265D+00
 Coeff-Com:  0.833D+00
 Coeff:      0.749D-03-0.359D-02-0.812D-02-0.511D-01-0.361D-01 0.265D+00
 Coeff:      0.833D+00
 Gap=     0.255 Goal=   None    Shift=    0.000
 RMSDP=4.62D-08 MaxDP=1.92D-06 DE=-1.25D-09 OVMax= 9.00D-06

 Cycle  15  Pass 1  IDiag  1:
 RMSU=  1.55D-08    CP:  1.00D+00  1.06D+00  6.63D-01  1.27D+00  1.15D+00
                    CP:  1.26D+00  1.08D+00
 FoFJK:  IHMeth= 1 ICntrl=     0 DoSepK=T KAlg= 1 I1Cent= 0 FoldK=F
 E= -1581.52148342706     Delta-E=       -0.000000000299 Rises=F Damp=F
 DIIS: error= 1.67D-07 at cycle   8 NSaved=   8.
 NSaved= 8 IEnMin= 8 EnMin= -1581.52148342706     IErMin= 8 ErrMin= 1.67D-07
 ErrMax= 1.67D-07 EMaxC= 1.00D-01 BMatC= 1.78D-11 BMatP= 1.08D-10
 IDIUse=1 WtCom= 1.00D+00 WtEn= 0.00D+00
 Coeff-Com: -0.596D-04 0.359D-02 0.158D-02-0.216D-01-0.561D-01-0.130D-01
 Coeff-Com:  0.318D+00 0.768D+00
 Coeff:     -0.596D-04 0.359D-02 0.158D-02-0.216D-01-0.561D-01-0.130D-01
 Coeff:      0.318D+00 0.768D+00
 Gap=     0.255 Goal=   None    Shift=    0.000
 RMSDP=1.70D-08 MaxDP=7.12D-07 DE=-2.99D-10 OVMax= 3.68D-06

 Cycle  16  Pass 1  IDiag  1:
 RMSU=  6.17D-09    CP:  1.00D+00  1.06D+00  6.63D-01  1.28D+00  1.17D+00
                    CP:  1.31D+00  1.26D+00  1.03D+00
 FoFJK:  IHMeth= 1 ICntrl=     0 DoSepK=T KAlg= 1 I1Cent= 0 FoldK=F
 E= -1581.52148342702     Delta-E=        0.000000000040 Rises=F Damp=F
 DIIS: error= 5.17D-08 at cycle   9 NSaved=   9.
 NSaved= 9 IEnMin= 8 EnMin= -1581.52148342706     IErMin= 9 ErrMin= 5.17D-08
 ErrMax= 5.17D-08 EMaxC= 1.00D-01 BMatC= 3.17D-12 BMatP= 1.78D-11
 IDIUse=1 WtCom= 1.00D+00 WtEn= 0.00D+00
 Coeff-Com: -0.165D-03 0.215D-02 0.220D-02 0.792D-03-0.171D-01-0.592D-01
 Coeff-Com: -0.352D-01 0.285D+00 0.822D+00
 Coeff:     -0.165D-03 0.215D-02 0.220D-02 0.792D-03-0.171D-01-0.592D-01
 Coeff:     -0.352D-01 0.285D+00 0.822D+00
 Gap=     0.255 Goal=   None    Shift=    0.000
 RMSDP=8.11D-09 MaxDP=3.56D-07 DE= 4.00D-11 OVMax= 1.61D-06

 SCF Done:  E(RwB97XD) =  -1581.52148343     A.U. after   16 cycles
             Convg  =    0.8106D-08             -V/T =  2.0110
 KE= 1.564375630199D+03 PE=-1.121315464332D+04 EE= 4.294844378768D+03
 Leave Link  502 at Thu Feb 27 15:07:23 2020, MaxMem= 2684354560 cpu:     949.8
 (Enter /opt/g09gh/gaussian/g09/l601.exe)
 Copying SCF densities to generalized density rwf, IOpCl= 0 IROHF=0.

 **********************************************************************

            Population analysis using the SCF density.

 **********************************************************************

 Orbital symmetries:
       Occupied  (A) (A) (A) (A) (A) (A) (A) (A) (A) (A) (A) (A)
                 (A) (A) (A) (A) (A) (A) (A) (A) (A) (A) (A) (A)
                 (A) (A) (A) (A) (A) (A) (A) (A) (A) (A) (A) (A)
                 (A) (A) (A) (A) (A) (A) (A) (A) (A) (A) (A) (A)
                 (A) (A) (A) (A) (A) (A) (A) (A) (A) (A) (A) (A)
                 (A) (A) (A) (A) (A) (A) (A) (A) (A) (A) (A) (A)
                 (A) (A) (A) (A) (A) (A) (A) (A) (A) (A) (A) (A)
                 (A) (A) (A) (A) (A) (A) (A) (A) (A) (A) (A) (A)
                 (A) (A) (A) (A) (A) (A) (A) (A) (A) (A) (A) (A)
                 (A) (A) (A) (A) (A) (A) (A) (A) (A) (A) (A) (A)
                 (A) (A) (A) (A) (A) (A) (A) (A) (A) (A) (A)
       Virtual   (A) (A) (A) (A) (A) (A) (A) (A) (A) (A) (A) (A)
                 (A) (A) (A) (A) (A) (A) (A) (A) (A) (A) (A) (A)
                 (A) (A) (A) (A) (A) (A) (A) (A) (A) (A) (A) (A)
                 (A) (A) (A) (A) (A) (A) (A) (A) (A) (A) (A) (A)
                 (A) (A) (A) (A) (A) (A) (A) (A) (A) (A) (A) (A)
                 (A) (A) (A) (A) (A) (A) (A) (A) (A) (A) (A) (A)
                 (A) (A) (A) (A) (A) (A) (A) (A) (A) (A) (A) (A)
                 (A) (A) (A) (A) (A) (A) (A) (A) (A) (A) (A) (A)
                 (A) (A) (A) (A) (A) (A) (A) (A) (A) (A) (A) (A)
                 (A) (A) (A) (A) (A) (A) (A) (A) (A) (A) (A) (A)
                 (A) (A) (A) (A) (A) (A) (A) (A) (A) (A) (A) (A)
                 (A) (A) (A) (A) (A) (A) (A) (A) (A) (A) (A) (A)
                 (A) (A) (A) (A) (A) (A) (A) (A) (A) (A) (A) (A)
                 (A) (A) (A) (A) (A) (A) (A) (A) (A) (A) (A) (A)
                 (A) (A) (A) (A) (A) (A) (A) (A) (A) (A) (A) (A)
                 (A) (A) (A) (A) (A) (A) (A) (A) (A) (A) (A) (A)
                 (A) (A) (A) (A) (A) (A) (A) (A) (A) (A) (A) (A)
                 (A) (A) (A) (A) (A) (A) (A) (A) (A) (A) (A) (A)
                 (A) (A) (A) (A) (A) (A) (A) (A) (A) (A) (A) (A)
                 (A) (A) (A) (A) (A) (A) (A) (A) (A) (A) (A) (A)
                 (A) (A) (A) (A) (A) (A) (A) (A) (A) (A) (A) (A)
                 (A) (A) (A) (A) (A) (A) (A) (A) (A) (A) (A) (A)
                 (A) (A) (A) (A) (A) (A) (A) (A) (A) (A) (A) (A)
                 (A) (A) (A) (A) (A) (A) (A) (A) (A) (A) (A) (A)
                 (A) (A) (A) (A) (A) (A) (A) (A) (A) (A) (A) (A)
                 (A) (A) (A) (A) (A) (A) (A) (A) (A) (A) (A) (A)
                 (A) (A) (A) (A) (A) (A) (A) (A) (A) (A) (A) (A)
                 (A) (A) (A) (A) (A) (A) (A) (A) (A) (A) (A) (A)
                 (A) (A) (A) (A) (A) (A) (A) (A) (A) (A) (A) (A)
                 (A) (A) (A) (A) (A) (A) (A) (A) (A) (A) (A) (A)
                 (A) (A) (A) (A) (A) (A) (A) (A) (A) (A) (A) (A)
                 (A) (A) (A) (A) (A) (A) (A) (A) (A) (A) (A) (A)
                 (A) (A) (A) (A) (A) (A) (A) (A) (A) (A) (A) (A)
                 (A) (A) (A) (A) (A) (A) (A) (A) (A) (A) (A) (A)
                 (A) (A) (A) (A) (A) (A) (A) (A) (A) (A) (A) (A)
                 (A) (A) (A) (A) (A) (A) (A) (A) (A) (A) (A) (A)
                 (A) (A) (A) (A) (A) (A) (A) (A) (A) (A) (A) (A)
                 (A) (A) (A) (A) (A) (A) (A) (A) (A) (A) (A) (A)
                 (A) (A) (A) (A) (A) (A) (A) (A) (A) (A) (A) (A)
                 (A) (A) (A) (A) (A) (A) (A) (A) (A) (A) (A) (A)
                 (A) (A) (A) (A) (A) (A)
 The electronic state is 1-A.
 Alpha  occ. eigenvalues --  -19.23566 -14.49197 -14.49025 -14.46686 -14.46604
 Alpha  occ. eigenvalues --  -14.46217 -14.45768 -14.44748 -10.41895 -10.40672
 Alpha  occ. eigenvalues --  -10.38216 -10.36508 -10.36457 -10.36238 -10.36170
 Alpha  occ. eigenvalues --  -10.35947 -10.35814 -10.35314 -10.35114 -10.35007
 Alpha  occ. eigenvalues --  -10.34339 -10.34305 -10.34153 -10.32930 -10.32425
 Alpha  occ. eigenvalues --  -10.31986 -10.31918 -10.31375 -10.31357 -10.31142
 Alpha  occ. eigenvalues --  -10.31103 -10.31086 -10.31006 -10.30377 -10.30227
 Alpha  occ. eigenvalues --  -10.29949 -10.29181  -1.13653  -1.11702  -1.05585
 Alpha  occ. eigenvalues --   -1.03798  -1.03563  -1.03140  -1.00239  -0.99594
 Alpha  occ. eigenvalues --   -0.96173  -0.94586  -0.92458  -0.89404  -0.88119
 Alpha  occ. eigenvalues --   -0.87141  -0.86474  -0.85014  -0.83890  -0.83753
 Alpha  occ. eigenvalues --   -0.81999  -0.79556  -0.77959  -0.77932  -0.76033
 Alpha  occ. eigenvalues --   -0.73368  -0.72880  -0.72439  -0.71785  -0.70787
 Alpha  occ. eigenvalues --   -0.70472  -0.69713  -0.68270  -0.66412  -0.64773
 Alpha  occ. eigenvalues --   -0.63330  -0.62400  -0.61597  -0.60993  -0.60361
 Alpha  occ. eigenvalues --   -0.58603  -0.58551  -0.57100  -0.56673  -0.56164
 Alpha  occ. eigenvalues --   -0.55983  -0.55683  -0.54993  -0.54145  -0.53888
 Alpha  occ. eigenvalues --   -0.53470  -0.52705  -0.52421  -0.51922  -0.51737
 Alpha  occ. eigenvalues --   -0.51593  -0.51306  -0.51143  -0.50899  -0.50480
 Alpha  occ. eigenvalues --   -0.50057  -0.50021  -0.49869  -0.49563  -0.48361
 Alpha  occ. eigenvalues --   -0.47454  -0.47162  -0.46446  -0.46252  -0.46216
 Alpha  occ. eigenvalues --   -0.45412  -0.44864  -0.44387  -0.43946  -0.43820
 Alpha  occ. eigenvalues --   -0.43452  -0.42907  -0.42273  -0.41517  -0.40340
 Alpha  occ. eigenvalues --   -0.40238  -0.38214  -0.37879  -0.37317  -0.35778
 Alpha  occ. eigenvalues --   -0.35665  -0.35253  -0.33935  -0.33690  -0.33209
 Alpha  occ. eigenvalues --   -0.33122  -0.32245  -0.31255  -0.29427  -0.27509
 Alpha  occ. eigenvalues --   -0.26186
 Alpha virt. eigenvalues --   -0.00705   0.02654   0.02919   0.04441   0.05727
 Alpha virt. eigenvalues --    0.07205   0.07390   0.07891   0.09649   0.10057
 Alpha virt. eigenvalues --    0.12195   0.13572   0.14211   0.14870   0.15842
 Alpha virt. eigenvalues --    0.16415   0.17111   0.18359   0.18759   0.19210
 Alpha virt. eigenvalues --    0.19580   0.19694   0.20160   0.21452   0.21772
 Alpha virt. eigenvalues --    0.22230   0.22577   0.22988   0.23430   0.23738
 Alpha virt. eigenvalues --    0.23990   0.24127   0.24659   0.24897   0.25063
 Alpha virt. eigenvalues --    0.25603   0.25918   0.26189   0.26533   0.26873
 Alpha virt. eigenvalues --    0.27575   0.27801   0.28150   0.28202   0.28660
 Alpha virt. eigenvalues --    0.28863   0.29194   0.30101   0.30456   0.30983
 Alpha virt. eigenvalues --    0.31159   0.31903   0.32090   0.32340   0.32965
 Alpha virt. eigenvalues --    0.33740   0.33924   0.35433   0.36106   0.37499
 Alpha virt. eigenvalues --    0.37875   0.38229   0.38410   0.39421   0.39482
 Alpha virt. eigenvalues --    0.39821   0.40446   0.41107   0.41206   0.41609
 Alpha virt. eigenvalues --    0.42571   0.44515   0.45015   0.46351   0.46765
 Alpha virt. eigenvalues --    0.48142   0.49364   0.51447   0.52679   0.53446
 Alpha virt. eigenvalues --    0.55386   0.55992   0.56974   0.57567   0.58138
 Alpha virt. eigenvalues --    0.58294   0.58969   0.59379   0.59529   0.59966
 Alpha virt. eigenvalues --    0.60189   0.60924   0.61351   0.61634   0.61910
 Alpha virt. eigenvalues --    0.62234   0.62842   0.62976   0.63805   0.64003
 Alpha virt. eigenvalues --    0.64371   0.64678   0.64734   0.65344   0.65460
 Alpha virt. eigenvalues --    0.65508   0.65673   0.65877   0.66443   0.66544
 Alpha virt. eigenvalues --    0.66851   0.66964   0.67231   0.67907   0.68669
 Alpha virt. eigenvalues --    0.68849   0.69207   0.69479   0.69725   0.70511
 Alpha virt. eigenvalues --    0.70804   0.70837   0.70993   0.71521   0.71992
 Alpha virt. eigenvalues --    0.72254   0.72639   0.72726   0.73113   0.73831
 Alpha virt. eigenvalues --    0.74165   0.74604   0.75642   0.75856   0.76315
 Alpha virt. eigenvalues --    0.77148   0.77422   0.78016   0.79147   0.80392
 Alpha virt. eigenvalues --    0.80815   0.81052   0.81613   0.81842   0.82792
 Alpha virt. eigenvalues --    0.83048   0.83389   0.84452   0.84849   0.85386
 Alpha virt. eigenvalues --    0.86156   0.86784   0.87290   0.87679   0.87941
 Alpha virt. eigenvalues --    0.88394   0.89142   0.89628   0.90244   0.90823
 Alpha virt. eigenvalues --    0.91081   0.91641   0.92068   0.92315   0.92662
 Alpha virt. eigenvalues --    0.92927   0.93168   0.93328   0.93708   0.94273
 Alpha virt. eigenvalues --    0.94596   0.94626   0.94770   0.95387   0.96052
 Alpha virt. eigenvalues --    0.96698   0.97196   0.97507   0.97630   0.97968
 Alpha virt. eigenvalues --    0.98397   0.99085   0.99421   0.99972   1.00160
 Alpha virt. eigenvalues --    1.00908   1.01475   1.01976   1.02270   1.02796
 Alpha virt. eigenvalues --    1.03490   1.03880   1.04546   1.05343   1.06078
 Alpha virt. eigenvalues --    1.06648   1.06928   1.07336   1.07834   1.08601
[...]
                 (A) (A) (A) (A) (A) (A) (A) (A) (A) (A) (A) (A)
                 (A) (A) (A) (A) (A) (A) (A) (A) (A) (A) (A) (A)
                 (A) (A) (A) (A) (A) (A) (A) (A) (A) (A) (A) (A)
                 (A) (A) (A) (A) (A) (A) (A) (A) (A) (A) (A) (A)
                 (A) (A) (A) (A) (A) (A) (A) (A) (A) (A) (A) (A)
                 (A) (A) (A) (A) (A) (A) (A) (A) (A) (A) (A) (A)
                 (A) (A) (A) (A) (A) (A) (A) (A) (A) (A) (A) (A)
                 (A) (A) (A) (A) (A) (A) (A) (A) (A) (A) (A) (A)
                 (A) (A) (A) (A) (A) (A) (A) (A) (A) (A) (A) (A)
                 (A) (A) (A) (A) (A) (A) (A) (A) (A) (A) (A) (A)
                 (A) (A) (A) (A) (A) (A) (A) (A) (A) (A) (A) (A)
                 (A) (A) (A) (A) (A) (A) (A) (A) (A) (A) (A) (A)
                 (A) (A) (A) (A) (A) (A) (A) (A) (A) (A) (A) (A)
                 (A) (A) (A) (A) (A) (A) (A) (A) (A) (A) (A) (A)
                 (A) (A) (A) (A) (A) (A) (A) (A) (A) (A) (A) (A)
                 (A) (A) (A) (A) (A) (A) (A) (A) (A) (A) (A) (A)
                 (A) (A) (A) (A) (A) (A) (A) (A) (A) (A) (A) (A)
                 (A) (A) (A) (A) (A) (A) (A) (A) (A) (A) (A) (A)
                 (A) (A) (A) (A) (A) (A) (A) (A) (A) (A) (A) (A)
                 (A) (A) (A) (A) (A) (A) (A) (A) (A) (A) (A) (A)
                 (A) (A) (A) (A) (A) (A) (A) (A) (A) (A) (A) (A)
                 (A) (A) (A) (A) (A) (A) (A) (A) (A) (A) (A) (A)
                 (A) (A) (A) (A) (A) (A) (A) (A) (A) (A) (A) (A)
                 (A) (A) (A) (A) (A) (A) (A) (A) (A) (A) (A) (A)
                 (A) (A) (A) (A) (A) (A) (A) (A) (A) (A) (A) (A)
                 (A) (A) (A) (A) (A) (A) (A) (A) (A) (A) (A) (A)
                 (A) (A) (A) (A) (A) (A) (A) (A) (A) (A) (A) (A)
                 (A) (A) (A) (A) (A) (A) (A) (A) (A) (A) (A) (A)
                 (A) (A) (A) (A) (A) (A) (A) (A) (A) (A) (A) (A)
                 (A) (A) (A) (A) (A) (A) (A) (A) (A) (A) (A) (A)
                 (A) (A) (A) (A) (A) (A) (A) (A) (A) (A) (A) (A)
                 (A) (A) (A) (A) (A) (A) (A) (A) (A) (A) (A) (A)
                 (A) (A) (A) (A) (A) (A)
 The electronic state is 1-A.
 Alpha  occ. eigenvalues --  -19.23411 -14.49282 -14.48321 -14.46751 -14.46096
 Alpha  occ. eigenvalues --  -14.45763 -14.43616 -14.43135 -10.41778 -10.40081
 Alpha  occ. eigenvalues --  -10.37614 -10.36338 -10.35324 -10.35084 -10.34624
 Alpha  occ. eigenvalues --  -10.34135 -10.34016 -10.33622 -10.32863 -10.32367
 Alpha  occ. eigenvalues --  -10.31860 -10.31491 -10.31180 -10.30935 -10.30708
 Alpha  occ. eigenvalues --  -10.30687 -10.30677 -10.30585 -10.30532 -10.30402
 Alpha  occ. eigenvalues --  -10.30377 -10.30220 -10.30020 -10.29975 -10.29575
 Alpha  occ. eigenvalues --  -10.28740 -10.28405  -1.13443  -1.12295  -1.06322
 Alpha  occ. eigenvalues --   -1.04565  -1.03828  -1.03633  -1.00715  -0.99557
 Alpha  occ. eigenvalues --   -0.96086  -0.94671  -0.93098  -0.89777  -0.88124
 Alpha  occ. eigenvalues --   -0.87388  -0.86228  -0.85399  -0.84541  -0.83783
 Alpha  occ. eigenvalues --   -0.81888  -0.79581  -0.78270  -0.77798  -0.76320
 Alpha  occ. eigenvalues --   -0.73881  -0.73300  -0.73024  -0.72621  -0.70870
 Alpha  occ. eigenvalues --   -0.70314  -0.69614  -0.68039  -0.66413  -0.65150
 Alpha  occ. eigenvalues --   -0.63656  -0.63408  -0.62228  -0.61762  -0.60211
 Alpha  occ. eigenvalues --   -0.58848  -0.58045  -0.57570  -0.56611  -0.56101
 Alpha  occ. eigenvalues --   -0.55817  -0.55236  -0.55134  -0.54965  -0.54255
 Alpha  occ. eigenvalues --   -0.53867  -0.53239  -0.53154  -0.52612  -0.52174
 Alpha  occ. eigenvalues --   -0.51912  -0.51509  -0.51371  -0.50999  -0.50575
 Alpha  occ. eigenvalues --   -0.50365  -0.50116  -0.49974  -0.49497  -0.48335
 Alpha  occ. eigenvalues --   -0.47217  -0.46906  -0.46619  -0.46319  -0.46210
 Alpha  occ. eigenvalues --   -0.45762  -0.45235  -0.44798  -0.44045  -0.43931
 Alpha  occ. eigenvalues --   -0.43327  -0.43016  -0.42141  -0.41766  -0.41439
 Alpha  occ. eigenvalues --   -0.40964  -0.40776  -0.39912  -0.38187  -0.37592
 Alpha  occ. eigenvalues --   -0.35821  -0.35293  -0.34001  -0.33446  -0.33373
 Alpha  occ. eigenvalues --   -0.32818  -0.31904  -0.30772  -0.29115  -0.27079
 Alpha  occ. eigenvalues --   -0.24996
 Alpha virt. eigenvalues --   -0.00292   0.02872   0.03585   0.04480   0.06434
 Alpha virt. eigenvalues --    0.07258   0.08204   0.10372   0.13887   0.14814
 Alpha virt. eigenvalues --    0.15729   0.16386   0.17253   0.17441   0.18252
 Alpha virt. eigenvalues --    0.19198   0.19760   0.20074   0.20199   0.20629
 Alpha virt. eigenvalues --    0.21235   0.21900   0.22615   0.22766   0.23136
 Alpha virt. eigenvalues --    0.23343   0.23537   0.24191   0.24363   0.24839
 Alpha virt. eigenvalues --    0.25118   0.25124   0.26081   0.26489   0.26550
 Alpha virt. eigenvalues --    0.27065   0.27431   0.27681   0.27997   0.28429
 Alpha virt. eigenvalues --    0.28563   0.28863   0.29437   0.29707   0.30281
 Alpha virt. eigenvalues --    0.31015   0.31165   0.31764   0.32125   0.32245
 Alpha virt. eigenvalues --    0.32892   0.33213   0.33675   0.33955   0.34428
 Alpha virt. eigenvalues --    0.35001   0.36033   0.36538   0.37755   0.38124
 Alpha virt. eigenvalues --    0.38652   0.38808   0.39299   0.40139   0.40740
 Alpha virt. eigenvalues --    0.41235   0.41464   0.42064   0.42207   0.42713
 Alpha virt. eigenvalues --    0.43813   0.45043   0.46208   0.47058   0.47330
 Alpha virt. eigenvalues --    0.48355   0.49428   0.51939   0.53014   0.54230
 Alpha virt. eigenvalues --    0.55738   0.56536   0.57256   0.57912   0.58308
 Alpha virt. eigenvalues --    0.59047   0.59370   0.59611   0.60510   0.60896
 Alpha virt. eigenvalues --    0.61370   0.61485   0.61680   0.62222   0.62698
 Alpha virt. eigenvalues --    0.63199   0.63356   0.63864   0.64090   0.64889
 Alpha virt. eigenvalues --    0.64931   0.65336   0.65507   0.65529   0.65821
 Alpha virt. eigenvalues --    0.66021   0.66272   0.66897   0.66982   0.67472
 Alpha virt. eigenvalues --    0.67615   0.67787   0.68308   0.68614   0.69045
 Alpha virt. eigenvalues --    0.69766   0.70018   0.70549   0.71043   0.71241
 Alpha virt. eigenvalues --    0.71764   0.72092   0.72269   0.72585   0.73056
 Alpha virt. eigenvalues --    0.73333   0.73462   0.74254   0.75227   0.75347
 Alpha virt. eigenvalues --    0.75594   0.75945   0.76256   0.76931   0.77676
 Alpha virt. eigenvalues --    0.77801   0.79111   0.80382   0.80454   0.81763
 Alpha virt. eigenvalues --    0.81971   0.82305   0.83131   0.83261   0.84196
 Alpha virt. eigenvalues --    0.84656   0.85718   0.86628   0.86884   0.87422
 Alpha virt. eigenvalues --    0.88279   0.89046   0.89673   0.90200   0.90737
 Alpha virt. eigenvalues --    0.90923   0.91158   0.91467   0.92209   0.92296
 Alpha virt. eigenvalues --    0.92392   0.92543   0.93563   0.93886   0.94046
 Alpha virt. eigenvalues --    0.94341   0.94529   0.94676   0.95250   0.95604
 Alpha virt. eigenvalues --    0.95948   0.96540   0.97598   0.98198   0.98360
 Alpha virt. eigenvalues --    0.98516   0.99007   0.99057   0.99699   0.99824
 Alpha virt. eigenvalues --    1.00451   1.00620   1.01372   1.01926   1.02024
 Alpha virt. eigenvalues --    1.02503   1.02650   1.03217   1.03674   1.04407
 Alpha virt. eigenvalues --    1.05625   1.05882   1.06647   1.06767   1.07381
 Alpha virt. eigenvalues --    1.07617   1.08219   1.08750   1.08901   1.09056
 Alpha virt. eigenvalues --    1.10206   1.10701   1.11027   1.11714   1.12088
 Alpha virt. eigenvalues --    1.12633   1.13090   1.13790   1.14260   1.15631
 Alpha virt. eigenvalues --    1.16461   1.16986   1.17691   1.18301   1.19272
 Alpha virt. eigenvalues --    1.20082   1.21178   1.21737   1.23134   1.23417
 Alpha virt. eigenvalues --    1.24741   1.25513   1.26102   1.26963   1.27427
 Alpha virt. eigenvalues --    1.29021   1.29351   1.29705   1.30411   1.30876
 Alpha virt. eigenvalues --    1.31932   1.33070   1.33762   1.33901   1.34767
 Alpha virt. eigenvalues --    1.35495   1.36942   1.37300   1.37887   1.38646
 Alpha virt. eigenvalues --    1.39296   1.42347   1.43369   1.43712   1.44585
 Alpha virt. eigenvalues --    1.46485   1.47298   1.47751   1.48439   1.48543
 Alpha virt. eigenvalues --    1.48651   1.49179   1.49470   1.50260   1.51638
 Alpha virt. eigenvalues --    1.51971   1.52736   1.53659   1.54081   1.54528
 Alpha virt. eigenvalues --    1.55183   1.55559   1.56282   1.56869   1.56983
 Alpha virt. eigenvalues --    1.57525   1.57807   1.58454   1.59180   1.59302
 Alpha virt. eigenvalues --    1.59663   1.60105   1.60821   1.61986   1.62519
 Alpha virt. eigenvalues --    1.63910   1.64943   1.65123   1.65691   1.67669
 Alpha virt. eigenvalues --    1.68409   1.69750   1.72014   1.75169   1.76231
 Alpha virt. eigenvalues --    1.78748   1.80597   1.81507   1.82525   1.84279
 Alpha virt. eigenvalues --    1.84719   1.85643   1.86428   1.86959   1.87886
 Alpha virt. eigenvalues --    1.87956   1.88949   1.89942   1.90639   1.90826
 Alpha virt. eigenvalues --    1.91215   1.92460   1.92802   1.93435   1.94263
 Alpha virt. eigenvalues --    1.94426   1.94936   1.95569   1.96614   1.97941
 Alpha virt. eigenvalues --    1.98717   1.99604   2.00121   2.00239   2.01198
 Alpha virt. eigenvalues --    2.01310   2.01498   2.01783   2.02574   2.03679
 Alpha virt. eigenvalues --    2.05536   2.06501   2.06637   2.07326   2.08210
 Alpha virt. eigenvalues --    2.08612   2.08850   2.09735   2.10839   2.11394
 Alpha virt. eigenvalues --    2.12239   2.12580   2.13556   2.14168   2.14817
 Alpha virt. eigenvalues --    2.15878   2.16188   2.17687   2.19548   2.20432
 Alpha virt. eigenvalues --    2.21104   2.21286   2.21687   2.22411   2.22784
 Alpha virt. eigenvalues --    2.22976   2.23634   2.23942   2.24603   2.25134
 Alpha virt. eigenvalues --    2.25945   2.26148   2.26369   2.26886   2.28049
 Alpha virt. eigenvalues --    2.28542   2.29387   2.29952   2.31587   2.32594
 Alpha virt. eigenvalues --    2.34097   2.34929   2.36375   2.37133   2.37172
 Alpha virt. eigenvalues --    2.37913   2.38058   2.38211   2.39475   2.39887
 Alpha virt. eigenvalues --    2.40252   2.40811   2.42122   2.42799   2.43232
 Alpha virt. eigenvalues --    2.43389   2.44333   2.44771   2.44890   2.46222
 Alpha virt. eigenvalues --    2.46451   2.47886   2.48102   2.49416   2.49810
 Alpha virt. eigenvalues --    2.50304   2.50934   2.52053   2.53874   2.56003
 Alpha virt. eigenvalues --    2.58457   2.59877   2.60854   2.62127   2.63398
 Alpha virt. eigenvalues --    2.64708   2.65082   2.65952   2.66088   2.67625
 Alpha virt. eigenvalues --    2.68704   2.70009   2.71801   2.72055   2.72665
 Alpha virt. eigenvalues --    2.74011   2.74386   2.75463   2.76174   2.76863
 Alpha virt. eigenvalues --    2.77167   2.78479   2.78949   2.80940   2.81727
 Alpha virt. eigenvalues --    2.82744   2.83154   2.83724   2.84482   2.85525
 Alpha virt. eigenvalues --    2.86030   2.86478   2.87314   2.88411   2.89255
 Alpha virt. eigenvalues --    2.89960   2.91946   2.92697   2.93388   2.94568
 Alpha virt. eigenvalues --    2.94833   2.96132   2.97874   3.01370   3.02993
 Alpha virt. eigenvalues --    3.04142   3.06695   3.09290   3.10086   3.12017
 Alpha virt. eigenvalues --    3.18948   3.26898   3.29152   3.39172   3.41513
 Alpha virt. eigenvalues --    3.45040   3.53455   3.56408   3.57588   4.12660
 Alpha virt. eigenvalues --    4.13540   4.15201   4.16849   4.18259   4.19132
 Alpha virt. eigenvalues --    4.19562   4.20445   4.21989   4.23540   4.25288
 Alpha virt. eigenvalues --    4.26036   4.27472   4.28697   4.30763   4.31719
 Alpha virt. eigenvalues --    4.33379   4.34588   4.36933   4.40132   4.40369
 Alpha virt. eigenvalues --    4.41614   4.44510   4.46128   4.49150   4.49442
 Alpha virt. eigenvalues --    4.49747   4.52847   4.57341   4.60739   4.61925
 Alpha virt. eigenvalues --    4.64161   4.67475   4.69411   4.79023   4.85077
 Alpha virt. eigenvalues --    4.89518
          Condensed to atoms (all electrons):
 Mulliken atomic charges:
              1
     1  C   -0.197839
     2  C   -0.154401
     3  C    0.035479
     4  C    0.009588
     5  N   -0.437531
     6  C    0.035730
     7  C    0.295184
     8  C   -0.254773
     9  C    0.049022
    10  N   -0.493037
    11  C    0.714388
    12  N   -0.568422
    13  N   -0.802090
    14  C    0.291486
    15  C    0.119855
    16  C   -0.240379
    17  C   -0.191296
    18  C    0.358113
    19  C   -0.269679
    20  N   -0.757943
    21  C    0.585737
    22  C    0.015191
    23  C   -0.205342
    24  C   -0.217921
    25  C    0.155961
    26  C   -0.223081
    27  C   -0.178373
    28  C   -0.263565
    29  N   -0.382224
    30  C   -0.183887
    31  C   -0.181799
    32  N   -0.385721
    33  C   -0.349275
    34  C   -0.182626
    35  C   -0.186527
    36  O   -0.513291
    37  C   -0.607373
    38  H    0.186138
    39  H    0.186727
    40  H    0.198138
    41  H    0.179045
    42  H    0.180748
    43  H    0.189490
    44  H    0.369213
    45  H    0.160819
    46  H    0.213089
    47  H    0.199370
    48  H    0.361562
    49  H    0.185479
    50  H    0.172048
    51  H    0.163619
    52  H    0.195614
    53  H    0.170282
    54  H    0.168925
    55  H    0.148151
    56  H    0.158378
    57  H    0.141665
    58  H    0.174873
    59  H    0.135275
    60  H    0.164116
    61  H    0.167877
    62  H    0.153489
    63  H    0.172948
    64  H    0.159378
    65  H    0.154999
    66  H    0.178043
    67  H    0.182741
    68  H    0.190421
 Sum of Mulliken atomic charges =   0.00000
 Mulliken charges with hydrogens summed into heavy atoms:
              1
     1  C   -0.011700
     2  C    0.032326
     3  C    0.035479
     4  C    0.207727
     5  N   -0.437531
     6  C    0.214775
     7  C    0.295184
     8  C   -0.074025
     9  C    0.238512
    10  N   -0.493037
    11  C    0.714388
    12  N   -0.568422
    13  N   -0.432876
    14  C    0.291486
    15  C    0.119855
    16  C   -0.079560
    17  C    0.021794
    18  C    0.358113
    19  C   -0.070309
    20  N   -0.396382
    21  C    0.585737
    22  C    0.015191
    23  C   -0.019863
    24  C   -0.045873
    25  C    0.155961
    26  C   -0.059462
    27  C    0.017241
    28  C    0.075641
    29  N   -0.382224
    30  C    0.122642
    31  C    0.134738
    32  N   -0.385721
    33  C    0.117993
    34  C    0.143811
    35  C    0.127850
    36  O   -0.513291
    37  C   -0.056168
 Sum of Mulliken charges with hydrogens summed into heavy atoms =   0.00000
 Electronic spatial extent (au):  <R**2>=          21213.2630
 Charge=              0.0000 electrons
 Dipole moment (field-independent basis, Debye):
    X=              0.5813    Y=              6.5714    Z=              0.4341  Tot=              6.6114
 Quadrupole moment (field-independent basis, Debye-Ang):
   XX=           -193.2998   YY=           -202.4981   ZZ=           -220.4851
   XY=              3.1047   XZ=             -1.2767   YZ=             -5.2201
 Traceless Quadrupole moment (field-independent basis, Debye-Ang):
   XX=             12.1279   YY=              2.9296   ZZ=            -15.0574
   XY=              3.1047   XZ=             -1.2767   YZ=             -5.2201
 Octapole moment (field-independent basis, Debye-Ang**2):
  XXX=             80.0751  YYY=            204.3358  ZZZ=             11.3561  XYY=             33.4665
  XXY=            -43.1002  XXZ=             31.6170  XZZ=            -22.7271  YZZ=              1.3417
  YYZ=             17.7590  XYZ=              2.2798
 Hexadecapole moment (field-independent basis, Debye-Ang**3):
 XXXX=         -18572.9328 YYYY=          -7864.5471 ZZZZ=          -1607.6270 XXXY=            -50.8613
 XXXZ=           -102.7665 YYYX=            149.0611 YYYZ=            -76.2134 ZZZX=            -50.0472
 ZZZY=             15.0204 XXYY=          -4005.5111 XXZZ=          -3409.5559 YYZZ=          -1721.4374
 XXYZ=            -52.7670 YYXZ=            -15.8286 ZZXY=            -24.6155
 N-N= 3.895035170484D+03 E-N=-1.146166618455D+04  KE= 1.567155676578D+03
 No NMR shielding tensors so no spin-rotation constants.
 Leave Link  601 at Thu Feb 27 16:55:10 2020, MaxMem= 2684354560 cpu:       2.9
 (Enter /opt/g09gh/gaussian/g09/l9999.exe)
 1\1\GINC-NODE42\FOpt\RwB97XD\6-31G(d)\C29H31N7O1\BDW2292\27-Feb-2020\0
 \\#P opt=(,maxcycle=400) wB97XD/6-31G* MaxDisk=100GB\\MOLECULE0 Rotata
 ble Bond Optimization on g2-node38.bme.utexas.edu\\0,1\C,-0.3500633992
 ,4.1966311519,-1.2408539532\C,0.9917372812,4.1280775172,-0.885951209\C
 ,1.6613514613,2.9112760247,-1.0035111004\C,0.9312795949,1.817994991,-1
 .4885825099\N,-0.3551524839,1.8681093607,-1.8297050848\C,-0.9776133337
 ,3.0433992847,-1.6991996584\C,3.0793973064,2.7262723613,-0.6038400113\
 C,4.0168024218,3.7545177532,-0.5658143143\C,5.2976364329,3.399991289,-
 0.1436119368\N,5.6467612962,2.1681385472,0.2011577445\C,4.6680066005,1
 .2446190901,0.1127518505\N,3.4119953084,1.4775737356,-0.2677596904\N,5
 .0463081883,-0.0242323539,0.4572121407\C,4.32292014,-1.2307941628,0.41
 34012456\C,5.038322308,-2.443559727,0.4828490156\C,4.310395508,-3.6284
 005888,0.4147901667\C,2.9253011821,-3.6699079413,0.2657113259\C,2.2423
 45106,-2.4590501058,0.203321814\C,2.9378791513,-1.2545962963,0.3051221
 213\N,0.8579158726,-2.324031029,0.0076515081\C,-0.0860461658,-3.267390
 4258,-0.3077609109\C,-1.3989708753,-2.651446301,-0.7015392174\C,-1.461
 766422,-1.452179695,-1.4173225101\C,-2.6885072719,-0.8837205597,-1.726
 7445469\C,-3.8785018831,-1.4812511656,-1.3114908044\C,-3.8089672507,-2
 .7083933821,-0.6460042976\C,-2.5844703522,-3.2952974187,-0.3489132859\
 C,-5.2097727647,-0.7789655204,-1.5233289721\N,-5.6002441758,0.22012435
 56,-0.5401150581\C,-4.9253168577,1.5134067738,-0.5685044295\C,-3.72085
 53709,1.6231641627,0.384198114\N,-4.0294809033,1.2044588947,1.74870657
 18\C,-4.8174382809,2.169329945,2.494879523\C,-4.6035536011,-0.13914393
 75,1.7339261658\C,-5.8335121954,-0.2569877352,0.8185005704\O,0.0978735
 505,-4.4720768845,-0.2612248668\C,6.5401781054,-2.4612746404,0.6133998
 434\H,-0.9042986476,5.1248002108,-1.1521089132\H,1.499713918,5.0051948
 961,-0.4954437792\H,1.4302419157,0.859512355,-1.6069785147\H,-2.030697
 8462,3.0594635774,-1.971772905\H,3.786363702,4.7708194405,-0.860373363
 7\H,6.0836295811,4.1502474736,-0.0846125202\H,6.0255730383,-0.08174681
 26,0.6937273766\H,4.8521474928,-4.5694803799,0.4670156733\H,2.39070389
 29,-4.6070810983,0.1930924316\H,2.3991796488,-0.3200303054,0.265495823
 8\H,0.5253254164,-1.3714799999,0.0345963218\H,-0.559867552,-0.95448489
 23,-1.761625039\H,-2.706795694,0.0516854726,-2.2801788752\H,-4.7288789
 593,-3.2034878466,-0.3427169236\H,-2.5302225528,-4.2462848069,0.171599
 6815\H,-5.2058664253,-0.286582795,-2.503311898\H,-6.006655436,-1.53308
 24986,-1.5536077495\H,-4.6156430783,1.726009645,-1.598777471\H,-5.6637
 587526,2.2826540113,-0.2967283239\H,-3.3575091181,2.6585470995,0.40831
 68743\H,-2.8973793409,0.9976918429,0.0221006833\H,-5.8237562793,2.3772
 161094,2.0903844995\H,-4.2744159949,3.120064391,2.5362211043\H,-4.9417
 752131,1.8095190984,3.5220782558\H,-4.8703630309,-0.4197208928,2.76011
 29778\H,-3.8236336402,-0.831102006,1.3955898947\H,-6.6617166993,0.3260
 422538,1.2484702625\H,-6.1730906663,-1.2978422961,0.7734028641\H,6.882
 4594567,-1.9901305982,1.5449920423\H,7.0294912338,-1.9416802842,-0.220
 6900632\H,6.9137244023,-3.4883377322,0.6192262189\\Version=EM64L-G09Re
 vA.02\State=1-A\HF=-1581.7632162\RMSD=5.214e-09\RMSF=1.303e-05\Dipole=
 0.2449507,2.5895529,0.0026573\Quadrupole=9.0589067,1.5853222,-10.64422
 88,2.22601,-0.9958868,-4.7001511\PG=C01 [X(C29H31N7O1)]\\@


 I DON'T PRETEND TO UNDERSTAND THE UNIVERSE --
 IT'S A GREAT DEAL BIGGER THAN I AM.
       -- ATTR. TO WILLIAM ALLINGHAM (1828-89)
 Job cpu time:  0 days 10 hours 59 minutes 54.0 seconds.
 File lengths (MBytes):  RWF=    244 Int=      0 D2E=      0 Chk=     25 Scr=      1
 Normal termination of Gaussian 09 at Thu Feb 27 16:55:11 2020.
