 Entering Gaussian System, Link 0=g09
 Input=MOLECULE0-opt-2-3-7-8-003.com
 Output=MOLECULE0-opt-2-3-7-8-003.log
 Initial command:
 /opt/g09gh/gaussian/g09/l1.exe /scratch/bdw2292/Gau-MOLECULE0/Gau-42859.inp -scrdir=/scratch/bdw2292/Gau-MOLECULE0/
 Entering Link 1 = /opt/g09gh/gaussian/g09/l1.exe PID=     42860.
  
 Copyright (c) 1988,1990,1992,1993,1995,1998,2003,2009, Gaussian, Inc.
                  All Rights Reserved.
  
 This is part of the Gaussian(R) 09 program.  It is based on
 the Gaussian(R) 03 system (copyright 2003, Gaussian, Inc.),
 the Gaussian(R) 98 system (copyright 1998, Gaussian, Inc.),
 the Gaussian(R) 94 system (copyright 1995, Gaussian, Inc.),
 the Gaussian 92(TM) system (copyright 1992, Gaussian, Inc.),
 the Gaussian 90(TM) system (copyright 1990, Gaussian, Inc.),
 the Gaussian 88(TM) system (copyright 1988, Gaussian, Inc.),
 the Gaussian 86(TM) system (copyright 1986, Carnegie Mellon
 University), and the Gaussian 82(TM) system (copyright 1983,
 Carnegie Mellon University). Gaussian is a federally registered
 trademark of Gaussian, Inc.
  
 This software contains proprietary and confidential information,
 including trade secrets, belonging to Gaussian, Inc.
  
 This software is provided under written license and may be
 used, copied, transmitted, or stored only in accord with that
 written license.
  
 The following legend is applicable only to US Government
 contracts under FAR:
  
                    RESTRICTED RIGHTS LEGEND
  
 Use, reproduction and disclosure by the US Government is
 subject to restrictions as set forth in subparagraphs (a)
 and (c) of the Commercial Computer Software - Restricted
 Rights clause in FAR 52.227-19.
  
 Gaussian, Inc.
 340 Quinnipiac St., Bldg. 40, Wallingford CT 06492
  
  
 ---------------------------------------------------------------
 Warning -- This program may not be used in any manner that
 competes with the business of Gaussian, Inc. or will provide
 assistance to any competitor of Gaussian, Inc.  The licensee
 of this program is prohibited from giving any competitor of
 Gaussian, Inc. access to this program.  By using this program,
 the user acknowledges that Gaussian, Inc. is engaged in the
 business of creating and licensing software in the field of
 computational chemistry and represents and warrants to the
 licensee that it is not a competitor of Gaussian, Inc. and that
 it will not use this program in any manner prohibited above.
 ---------------------------------------------------------------
  

 Cite this work as:
 Gaussian 09, Revision A.02,
 M. J. Frisch, G. W. Trucks, H. B. Schlegel, G. E. Scuseria, 
 M. A. Robb, J. R. Cheeseman, G. Scalmani, V. Barone, B. Mennucci, 
 G. A. Petersson, H. Nakatsuji, M. Caricato, X. Li, H. P. Hratchian, 
 A. F. Izmaylov, J. Bloino, G. Zheng, J. L. Sonnenberg, M. Hada, 
 M. Ehara, K. Toyota, R. Fukuda, J. Hasegawa, M. Ishida, T. Nakajima, 
 Y. Honda, O. Kitao, H. Nakai, T. Vreven, J. A. Montgomery, Jr., 
 J. E. Peralta, F. Ogliaro, M. Bearpark, J. J. Heyd, E. Brothers, 
 K. N. Kudin, V. N. Staroverov, R. Kobayashi, J. Normand, 
 K. Raghavachari, A. Rendell, J. C. Burant, S. S. Iyengar, J. Tomasi, 
 M. Cossi, N. Rega, J. M. Millam, M. Klene, J. E. Knox, J. B. Cross, 
 V. Bakken, C. Adamo, J. Jaramillo, R. Gomperts, R. E. Stratmann, 
 O. Yazyev, A. J. Austin, R. Cammi, C. Pomelli, J. W. Ochterski, 
 R. L. Martin, K. Morokuma, V. G. Zakrzewski, G. A. Voth, 
 P. Salvador, J. J. Dannenberg, S. Dapprich, A. D. Daniels, 
 O. Farkas, J. B. Foresman, J. V. Ortiz, J. Cioslowski, 
 and D. J. Fox, Gaussian, Inc., Wallingford CT, 2009.
 
 ******************************************
 Gaussian 09:  EM64L-G09RevA.02 11-Jun-2009
                25-Mar-2020 
 ******************************************
 %RWF=/scratch/bdw2292/Gau-MOLECULE0/,100GB
 %Nosave
 %Chk=MOLECULE0-opt-2-3-7-8-003.chk
 %Mem=20GB
 %Nproc=6
 Will use up to    6 processors via shared memory.
 --------------------------------------------------
 #P opt=(,maxcycle=400) wB97XD/6-31G* MaxDisk=100GB
 --------------------------------------------------
 1/6=400,14=-1,18=20,19=15,26=3,38=1/1,3;
 2/9=110,12=2,17=6,18=5,40=1/2;
 3/5=1,6=6,7=1,11=2,16=1,25=1,30=1,71=1,74=-58/1,2,3;
 4//1;
 5/5=2,38=5/2;
 6/7=2,8=2,9=2,10=2,28=1/1;
 7//1,2,3,16;
 1/6=400,14=-1,18=20,19=15/3(2);
 2/9=110/2;
 99//99;
 2/9=110/2;
 3/5=1,6=6,7=1,11=2,16=1,25=1,30=1,71=1,74=-58/1,2,3;
 4/5=5,16=3/1;
 5/5=2,38=5/2;
 7//1,2,3,16;
 1/6=400,14=-1,18=20,19=15/3(-5);
 2/9=110/2;
 6/7=2,8=2,9=2,10=2,19=2,28=1/1;
 99/9=1/99;
 Leave Link    1 at Wed Mar 25 12:48:52 2020, MaxMem= 2684354560 cpu:       0.3
 (Enter /opt/g09gh/gaussian/g09/l101.exe)
 --------------------------------------------------------------
 MOLECULE0 Rotatable Bond Optimization on node37.bme.utexas.edu
 --------------------------------------------------------------
 Symbolic Z-matrix:
 Charge =  0 Multiplicity = 1
 C                    -0.42495   4.40554  -0.82121 
 C                     0.91246   4.29823  -0.41448 
 C                     1.62972   3.10843  -0.65198 
 C                     0.9117    2.08695  -1.32168 
 N                    -0.36256   2.17039  -1.72538 
 C                    -1.0149    3.31375  -1.46812 
 C                     3.05797   2.89263  -0.20899 
 C                     3.82791   3.80538   0.53057 
 C                     5.14284   3.41114   0.80166 
 N                     5.67203   2.24908   0.43049 
 C                     4.8527    1.41895  -0.24855 
 N                     3.58709   1.70672  -0.57084 
 N                     5.41329   0.19932  -0.60781 
 C                     4.9371   -0.92193  -1.38023 
 C                     5.86401  -1.88565  -1.8809 
 C                     5.3395   -2.94645  -2.64075 
 C                     3.97869  -3.10243  -2.93392 
 C                     3.08335  -2.15953  -2.42038 
 C                     3.57612  -1.09344  -1.65186 
 N                     1.66926  -2.13727  -2.61867 
 C                     0.84045  -2.87614  -3.42946 
 C                    -0.58191  -2.36514  -3.5655 
 C                    -0.88019  -0.99189  -3.5889 
 C                    -2.20361  -0.55509  -3.63127 
 C                    -3.27425  -1.4667   -3.65606 
 C                    -2.96029  -2.83955  -3.69348 
 C                    -1.63557  -3.28601  -3.67736 
 C                    -4.71682  -0.96591  -3.58108 
 N                    -5.29041  -0.66118  -2.25715 
 C                    -4.86893   0.57664  -1.56106 
 C                    -3.71375   0.39241  -0.543 
 N                    -3.95379  -0.67325   0.45809 
 C                    -4.78327  -0.31011   1.61325 
 C                    -4.31839  -1.92479  -0.24986 
 C                    -5.46234  -1.76552  -1.28585 
 O                     1.2016   -3.89393  -3.99821 
 C                     7.3627   -1.80078  -1.64745 
 H                    -0.99542   5.31219  -0.64254 
 H                     1.36714   5.14966   0.08557 
 H                     1.40391   1.15276  -1.56193 
 H                    -2.05055   3.35561  -1.80258 
 H                     3.46737   4.76674   0.87594 
 H                     5.81142   4.07125   1.35375 
 H                     6.37878   0.17268  -0.31589 
 H                     6.01889  -3.6953   -3.04608 
 H                     3.61503  -3.92262  -3.5414 
 H                     2.89289  -0.36501  -1.24857 
 H                     1.2018   -1.39407  -2.1192 
 H                    -0.07579  -0.26151  -3.54838 
 H                    -2.39399   0.51771  -3.60891 
 H                    -3.76005  -3.57924  -3.71875 
 H                    -1.39838  -4.34644  -3.70556 
 H                    -4.80434  -0.05345  -4.1886 
 H                    -5.37186  -1.71676  -4.04637 
 H                    -4.68148   1.34977  -2.25116 
 H                    -6.11068   1.04699  -0.69111 
 H                    -3.54486   1.68015   0.17111 
 H                    -2.67583   0.14576  -1.10475 
 H                    -5.81002  -0.08273   1.30518 
 H                    -4.36326   0.56621   2.12 
 H                    -4.80687  -1.13495   2.33479 
 H                    -4.55134  -2.72266   0.49916 
 H                    -3.09951  -2.36269  -1.00347 
 H                    -6.74807  -1.43558  -0.43865 
 H                    -5.66876  -2.74428  -1.83023 
 H                     7.60825  -1.88265  -0.57921 
 H                     7.77277  -0.84673  -2.00749 
 H                     7.92264  -2.59472  -2.16051 
 
 NAtoms=     68 NQM=     68 NQMF=      0 NMic=      0 NMicF=      0 NTot=     68.
                    Isotopes and Nuclear Properties:
 (Nuclear quadrupole moments (NQMom) in fm**2, nuclear magnetic moments (NMagM)
  in nuclear magnetons)

  Atom         1           2           3           4           5           6           7           8           9          10
 IAtWgt=          12          12          12          12          14          12          12          12          12          14
 AtmWgt=  12.0000000  12.0000000  12.0000000  12.0000000  14.0030740  12.0000000  12.0000000  12.0000000  12.0000000  14.0030740
 NucSpn=           0           0           0           0           2           0           0           0           0           2
 AtZEff=   0.0000000   0.0000000   0.0000000   0.0000000   0.0000000   0.0000000   0.0000000   0.0000000   0.0000000   0.0000000
 NQMom=    0.0000000   0.0000000   0.0000000   0.0000000   2.0440000   0.0000000   0.0000000   0.0000000   0.0000000   2.0440000
 NMagM=    0.0000000   0.0000000   0.0000000   0.0000000   0.4037610   0.0000000   0.0000000   0.0000000   0.0000000   0.4037610

  Atom        11          12          13          14          15          16          17          18          19          20
 IAtWgt=          12          14          14          12          12          12          12          12          12          14
 AtmWgt=  12.0000000  14.0030740  14.0030740  12.0000000  12.0000000  12.0000000  12.0000000  12.0000000  12.0000000  14.0030740
 NucSpn=           0           2           2           0           0           0           0           0           0           2
 AtZEff=   0.0000000   0.0000000   0.0000000   0.0000000   0.0000000   0.0000000   0.0000000   0.0000000   0.0000000   0.0000000
 NQMom=    0.0000000   2.0440000   2.0440000   0.0000000   0.0000000   0.0000000   0.0000000   0.0000000   0.0000000   2.0440000
 NMagM=    0.0000000   0.4037610   0.4037610   0.0000000   0.0000000   0.0000000   0.0000000   0.0000000   0.0000000   0.4037610

  Atom        21          22          23          24          25          26          27          28          29          30
 IAtWgt=          12          12          12          12          12          12          12          12          14          12
 AtmWgt=  12.0000000  12.0000000  12.0000000  12.0000000  12.0000000  12.0000000  12.0000000  12.0000000  14.0030740  12.0000000
 NucSpn=           0           0           0           0           0           0           0           0           2           0
 AtZEff=   0.0000000   0.0000000   0.0000000   0.0000000   0.0000000   0.0000000   0.0000000   0.0000000   0.0000000   0.0000000
 NQMom=    0.0000000   0.0000000   0.0000000   0.0000000   0.0000000   0.0000000   0.0000000   0.0000000   2.0440000   0.0000000
 NMagM=    0.0000000   0.0000000   0.0000000   0.0000000   0.0000000   0.0000000   0.0000000   0.0000000   0.4037610   0.0000000

  Atom        31          32          33          34          35          36          37          38          39          40
 IAtWgt=          12          14          12          12          12          16          12           1           1           1
 AtmWgt=  12.0000000  14.0030740  12.0000000  12.0000000  12.0000000  15.9949146  12.0000000   1.0078250   1.0078250   1.0078250
 NucSpn=           0           2           0           0           0           0           0           1           1           1
 AtZEff=   0.0000000   0.0000000   0.0000000   0.0000000   0.0000000   0.0000000   0.0000000   0.0000000   0.0000000   0.0000000
 NQMom=    0.0000000   2.0440000   0.0000000   0.0000000   0.0000000   0.0000000   0.0000000   0.0000000   0.0000000   0.0000000
 NMagM=    0.0000000   0.4037610   0.0000000   0.0000000   0.0000000   0.0000000   0.0000000   2.7928460   2.7928460   2.7928460

  Atom        41          42          43          44          45          46          47          48          49          50
 IAtWgt=           1           1           1           1           1           1           1           1           1           1
 AtmWgt=   1.0078250   1.0078250   1.0078250   1.0078250   1.0078250   1.0078250   1.0078250   1.0078250   1.0078250   1.0078250
 NucSpn=           1           1           1           1           1           1           1           1           1           1
 AtZEff=   0.0000000   0.0000000   0.0000000   0.0000000   0.0000000   0.0000000   0.0000000   0.0000000   0.0000000   0.0000000
 NQMom=    0.0000000   0.0000000   0.0000000   0.0000000   0.0000000   0.0000000   0.0000000   0.0000000   0.0000000   0.0000000
 NMagM=    2.7928460   2.7928460   2.7928460   2.7928460   2.7928460   2.7928460   2.7928460   2.7928460   2.7928460   2.7928460

  Atom        51          52          53          54          55          56          57          58          59          60
 IAtWgt=           1           1           1           1           1           1           1           1           1           1
 AtmWgt=   1.0078250   1.0078250   1.0078250   1.0078250   1.0078250   1.0078250   1.0078250   1.0078250   1.0078250   1.0078250
 NucSpn=           1           1           1           1           1           1           1           1           1           1
 AtZEff=   0.0000000   0.0000000   0.0000000   0.0000000   0.0000000   0.0000000   0.0000000   0.0000000   0.0000000   0.0000000
 NQMom=    0.0000000   0.0000000   0.0000000   0.0000000   0.0000000   0.0000000   0.0000000   0.0000000   0.0000000   0.0000000
 NMagM=    2.7928460   2.7928460   2.7928460   2.7928460   2.7928460   2.7928460   2.7928460   2.7928460   2.7928460   2.7928460

  Atom        61          62          63          64          65          66          67          68
 IAtWgt=           1           1           1           1           1           1           1           1
 AtmWgt=   1.0078250   1.0078250   1.0078250   1.0078250   1.0078250   1.0078250   1.0078250   1.0078250
 NucSpn=           1           1           1           1           1           1           1           1
 AtZEff=   0.0000000   0.0000000   0.0000000   0.0000000   0.0000000   0.0000000   0.0000000   0.0000000
 NQMom=    0.0000000   0.0000000   0.0000000   0.0000000   0.0000000   0.0000000   0.0000000   0.0000000
 NMagM=    2.7928460   2.7928460   2.7928460   2.7928460   2.7928460   2.7928460   2.7928460   2.7928460
 Leave Link  101 at Wed Mar 25 12:48:52 2020, MaxMem= 2684354560 cpu:       0.5
 (Enter /opt/g09gh/gaussian/g09/l103.exe)

 GradGradGradGradGradGradGradGradGradGradGradGradGradGradGradGradGradGrad
 Berny optimization.
 Initialization pass.
                           ----------------------------
                           !    Initial Parameters    !
                           ! (Angstroms and Degrees)  !
 --------------------------                            --------------------------
 ! Name  Definition              Value          Derivative Info.                !
 --------------------------------------------------------------------------------
 ! R1    R(1,2)                  1.402          estimate D2E/DX2                !
 ! R2    R(1,6)                  1.3995         estimate D2E/DX2                !
 ! R3    R(1,38)                 1.086          estimate D2E/DX2                !
 ! R4    R(2,3)                  1.4094         estimate D2E/DX2                !
 ! R5    R(2,39)                 1.0871         estimate D2E/DX2                !
 ! R6    R(3,4)                  1.4168         estimate D2E/DX2                !
 ! R7    R(3,7)                  1.5109         estimate D2E/DX2                !
 ! R8    R(4,5)                  1.3393         estimate D2E/DX2                !
 ! R9    R(4,40)                 1.0829         estimate D2E/DX2                !
 ! R10   R(5,6)                  1.3413         estimate D2E/DX2                !
 ! R11   R(6,41)                 1.0891         estimate D2E/DX2                !
 ! R12   R(7,8)                  1.4046         estimate D2E/DX2                !
 ! R13   R(7,12)                 1.3481         estimate D2E/DX2                !
 ! R14   R(8,9)                  1.3993         estimate D2E/DX2                !
 ! R15   R(8,42)                 1.0833         estimate D2E/DX2                !
 ! R16   R(9,10)                 1.3297         estimate D2E/DX2                !
 ! R17   R(9,43)                 1.0897         estimate D2E/DX2                !
 ! R18   R(10,11)                1.3496         estimate D2E/DX2                !
 ! R19   R(11,12)                1.3373         estimate D2E/DX2                !
 ! R20   R(11,13)                1.3895         estimate D2E/DX2                !
 ! R21   R(13,14)                1.4424         estimate D2E/DX2                !
 ! R22   R(13,44)                1.009          estimate D2E/DX2                !
 ! R23   R(14,15)                1.4278         estimate D2E/DX2                !
 ! R24   R(14,19)                1.3984         estimate D2E/DX2                !
 ! R25   R(15,16)                1.4063         estimate D2E/DX2                !
 ! R26   R(15,37)                1.5191         estimate D2E/DX2                !
 ! R27   R(16,17)                1.4007         estimate D2E/DX2                !
 ! R28   R(16,45)                1.0893         estimate D2E/DX2                !
 ! R29   R(17,18)                1.398          estimate D2E/DX2                !
 ! R30   R(17,46)                1.0835         estimate D2E/DX2                !
 ! R31   R(18,19)                1.4036         estimate D2E/DX2                !
 ! R32   R(18,20)                1.4281         estimate D2E/DX2                !
 ! R33   R(19,47)                1.0771         estimate D2E/DX2                !
 ! R34   R(20,21)                1.3749         estimate D2E/DX2                !
 ! R35   R(20,48)                1.0101         estimate D2E/DX2                !
 ! R36   R(21,22)                1.5175         estimate D2E/DX2                !
 ! R37   R(21,36)                1.2206         estimate D2E/DX2                !
 ! R38   R(22,23)                1.4055         estimate D2E/DX2                !
 ! R39   R(22,27)                1.4038         estimate D2E/DX2                !
 ! R40   R(23,24)                1.3943         estimate D2E/DX2                !
 ! R41   R(23,49)                1.0873         estimate D2E/DX2                !
 ! R42   R(24,25)                1.4064         estimate D2E/DX2                !
 ! R43   R(24,50)                1.0898         estimate D2E/DX2                !
 ! R44   R(25,26)                1.4088         estimate D2E/DX2                !
 ! R45   R(25,28)                1.5289         estimate D2E/DX2                !
 ! R46   R(26,27)                1.398          estimate D2E/DX2                !
 ! R47   R(26,51)                1.0897         estimate D2E/DX2                !
 ! R48   R(27,52)                1.087          estimate D2E/DX2                !
 ! R49   R(28,29)                1.4747         estimate D2E/DX2                !
 ! R50   R(28,53)                1.0997         estimate D2E/DX2                !
 ! R51   R(28,54)                1.0997         estimate D2E/DX2                !
 ! R52   R(29,30)                1.4813         estimate D2E/DX2                !
 ! R53   R(29,35)                1.4807         estimate D2E/DX2                !
 ! R54   R(30,31)                1.5508         estimate D2E/DX2                !
 ! R55   R(30,55)                1.0531         estimate D2E/DX2                !
 ! R56   R(30,56)                1.5874         estimate D2E/DX2                !
 ! R57   R(31,32)                1.4817         estimate D2E/DX2                !
 ! R58   R(31,57)                1.4821         estimate D2E/DX2                !
 ! R59   R(31,58)                1.2057         estimate D2E/DX2                !
 ! R60   R(32,33)                1.4678         estimate D2E/DX2                !
 ! R61   R(32,34)                1.4834         estimate D2E/DX2                !
 ! R62   R(33,59)                1.0958         estimate D2E/DX2                !
 ! R63   R(33,60)                1.096          estimate D2E/DX2                !
 ! R64   R(33,61)                1.0961         estimate D2E/DX2                !
 ! R65   R(34,35)                1.5515         estimate D2E/DX2                !
 ! R66   R(34,62)                1.1189         estimate D2E/DX2                !
 ! R67   R(34,63)                1.4984         estimate D2E/DX2                !
 ! R68   R(35,64)                1.5747         estimate D2E/DX2                !
 ! R69   R(35,65)                1.1388         estimate D2E/DX2                !
 ! R70   R(37,66)                1.0992         estimate D2E/DX2                !
 ! R71   R(37,67)                1.0991         estimate D2E/DX2                !
 ! R72   R(37,68)                1.0987         estimate D2E/DX2                !
 ! A1    A(2,1,6)              118.458          estimate D2E/DX2                !
 ! A2    A(2,1,38)             121.1494         estimate D2E/DX2                !
 ! A3    A(6,1,38)             120.3926         estimate D2E/DX2                !
 ! A4    A(1,2,3)              120.0782         estimate D2E/DX2                !
 ! A5    A(1,2,39)             118.1954         estimate D2E/DX2                !
 ! A6    A(3,2,39)             121.7259         estimate D2E/DX2                !
 ! A7    A(2,3,4)              115.4906         estimate D2E/DX2                !
 ! A8    A(2,3,7)              123.5208         estimate D2E/DX2                !
 ! A9    A(4,3,7)              120.9755         estimate D2E/DX2                !
 ! A10   A(3,4,5)              125.4316         estimate D2E/DX2                !
 ! A11   A(3,4,40)             119.7665         estimate D2E/DX2                !
 ! A12   A(5,4,40)             114.7917         estimate D2E/DX2                !
 ! A13   A(4,5,6)              117.2605         estimate D2E/DX2                !
 ! A14   A(1,6,5)              123.2755         estimate D2E/DX2                !
 ! A15   A(1,6,41)             120.8521         estimate D2E/DX2                !
 ! A16   A(5,6,41)             115.8708         estimate D2E/DX2                !
 ! A17   A(3,7,8)              125.4325         estimate D2E/DX2                !
 ! A18   A(3,7,12)             114.7077         estimate D2E/DX2                !
 ! A19   A(8,7,12)             119.858          estimate D2E/DX2                !
 ! A20   A(7,8,9)              115.7237         estimate D2E/DX2                !
 ! A21   A(7,8,42)             124.2036         estimate D2E/DX2                !
 ! A22   A(9,8,42)             120.0685         estimate D2E/DX2                !
 ! A23   A(8,9,10)             124.4805         estimate D2E/DX2                !
 ! A24   A(8,9,43)             120.2661         estimate D2E/DX2                !
 ! A25   A(10,9,43)            115.2533         estimate D2E/DX2                !
 ! A26   A(9,10,11)            115.8715         estimate D2E/DX2                !
 ! A27   A(10,11,12)           124.293          estimate D2E/DX2                !
 ! A28   A(10,11,13)           115.1521         estimate D2E/DX2                !
 ! A29   A(12,11,13)           120.5547         estimate D2E/DX2                !
 ! A30   A(7,12,11)            119.7394         estimate D2E/DX2                !
 ! A31   A(11,13,14)           133.4361         estimate D2E/DX2                !
 ! A32   A(11,13,44)           109.5369         estimate D2E/DX2                !
 ! A33   A(14,13,44)           116.7627         estimate D2E/DX2                !
 ! A34   A(13,14,15)           119.8771         estimate D2E/DX2                !
 ! A35   A(13,14,19)           121.3766         estimate D2E/DX2                !
 ! A36   A(15,14,19)           118.7461         estimate D2E/DX2                !
 ! A37   A(14,15,16)           117.1595         estimate D2E/DX2                !
 ! A38   A(14,15,37)           123.2888         estimate D2E/DX2                !
 ! A39   A(16,15,37)           119.5455         estimate D2E/DX2                !
 ! A40   A(15,16,17)           124.0153         estimate D2E/DX2                !
 ! A41   A(15,16,45)           119.1413         estimate D2E/DX2                !
 ! A42   A(17,16,45)           116.838          estimate D2E/DX2                !
 ! A43   A(16,17,18)           118.047          estimate D2E/DX2                !
 ! A44   A(16,17,46)           121.8506         estimate D2E/DX2                !
 ! A45   A(18,17,46)           120.1022         estimate D2E/DX2                !
 ! A46   A(17,18,19)           119.2475         estimate D2E/DX2                !
 ! A47   A(17,18,20)           126.418          estimate D2E/DX2                !
 ! A48   A(19,18,20)           114.3192         estimate D2E/DX2                !
 ! A49   A(14,19,18)           122.7659         estimate D2E/DX2                !
 ! A50   A(14,19,47)           117.4968         estimate D2E/DX2                !
 ! A51   A(18,19,47)           119.7371         estimate D2E/DX2                !
 ! A52   A(18,20,21)           132.0998         estimate D2E/DX2                !
 ! A53   A(18,20,48)           113.6439         estimate D2E/DX2                !
 ! A54   A(21,20,48)           114.0813         estimate D2E/DX2                !
 ! A55   A(20,21,22)           115.9088         estimate D2E/DX2                !
 ! A56   A(20,21,36)           122.9941         estimate D2E/DX2                !
 ! A57   A(22,21,36)           121.0889         estimate D2E/DX2                !
 ! A58   A(21,22,23)           121.9676         estimate D2E/DX2                !
 ! A59   A(21,22,27)           119.3252         estimate D2E/DX2                !
 ! A60   A(23,22,27)           118.7066         estimate D2E/DX2                !
 ! A61   A(22,23,24)           120.5337         estimate D2E/DX2                !
 ! A62   A(22,23,49)           119.9161         estimate D2E/DX2                !
 ! A63   A(24,23,49)           119.5321         estimate D2E/DX2                !
 ! A64   A(23,24,25)           121.3355         estimate D2E/DX2                !
 ! A65   A(23,24,50)           118.268          estimate D2E/DX2                !
 ! A66   A(25,24,50)           120.3614         estimate D2E/DX2                !
 ! A67   A(24,25,26)           117.5463         estimate D2E/DX2                !
 ! A68   A(24,25,28)           120.339          estimate D2E/DX2                !
 ! A69   A(26,25,28)           122.0588         estimate D2E/DX2                !
 ! A70   A(25,26,27)           121.4712         estimate D2E/DX2                !
 ! A71   A(25,26,51)           119.9035         estimate D2E/DX2                !
 ! A72   A(27,26,51)           118.6172         estimate D2E/DX2                !
 ! A73   A(22,27,26)           120.1753         estimate D2E/DX2                !
 ! A74   A(22,27,52)           118.57           estimate D2E/DX2                !
 ! A75   A(26,27,52)           121.1985         estimate D2E/DX2                !
 ! A76   A(25,28,29)           118.6025         estimate D2E/DX2                !
 ! A77   A(25,28,53)           108.6495         estimate D2E/DX2                !
 ! A78   A(25,28,54)           108.5191         estimate D2E/DX2                !
 ! A79   A(29,28,53)           107.0717         estimate D2E/DX2                !
 ! A80   A(29,28,54)           106.8142         estimate D2E/DX2                !
 ! A81   A(53,28,54)           106.5813         estimate D2E/DX2                !
 ! A82   A(28,29,30)           118.9385         estimate D2E/DX2                !
 ! A83   A(28,29,35)           118.6823         estimate D2E/DX2                !
 ! A84   A(30,29,35)           110.3652         estimate D2E/DX2                !
 ! A85   A(29,30,31)           114.9088         estimate D2E/DX2                !
 ! A86   A(29,30,55)           110.8649         estimate D2E/DX2                !
 ! A87   A(29,30,56)           106.4113         estimate D2E/DX2                !
 ! A88   A(31,30,55)           112.6315         estimate D2E/DX2                !
 ! A89   A(31,30,56)           104.959          estimate D2E/DX2                !
 ! A90   A(55,30,56)           106.3088         estimate D2E/DX2                !
 ! A91   A(30,31,32)           114.0987         estimate D2E/DX2                !
 ! A92   A(30,31,57)           107.3359         estimate D2E/DX2                !
 ! A93   A(30,31,58)           111.0811         estimate D2E/DX2                !
 ! A94   A(32,31,57)           108.5308         estimate D2E/DX2                !
 ! A95   A(32,31,58)           107.886          estimate D2E/DX2                !
 ! A96   A(57,31,58)           107.706          estimate D2E/DX2                !
 ! A97   A(31,32,33)           116.4456         estimate D2E/DX2                !
 ! A98   A(31,32,34)           108.9155         estimate D2E/DX2                !
 ! A99   A(33,32,34)           116.452          estimate D2E/DX2                !
 ! A100  A(32,33,59)           111.0753         estimate D2E/DX2                !
 ! A101  A(32,33,60)           110.1909         estimate D2E/DX2                !
 ! A102  A(32,33,61)           110.1235         estimate D2E/DX2                !
 ! A103  A(59,33,60)           108.8543         estimate D2E/DX2                !
 ! A104  A(59,33,61)           108.7247         estimate D2E/DX2                !
 ! A105  A(60,33,61)           107.7928         estimate D2E/DX2                !
 ! A106  A(32,34,35)           114.4109         estimate D2E/DX2                !
 ! A107  A(32,34,62)           109.4705         estimate D2E/DX2                !
 ! A108  A(32,34,63)           106.6575         estimate D2E/DX2                !
 ! A109  A(35,34,62)           111.5117         estimate D2E/DX2                !
 ! A110  A(35,34,63)           107.0932         estimate D2E/DX2                !
 ! A111  A(62,34,63)           107.3161         estimate D2E/DX2                !
 ! A112  A(29,35,34)           115.4007         estimate D2E/DX2                !
 ! A113  A(29,35,64)           106.9446         estimate D2E/DX2                !
 ! A114  A(29,35,65)           110.3939         estimate D2E/DX2                !
 ! A115  A(34,35,64)           105.3236         estimate D2E/DX2                !
 ! A116  A(34,35,65)           111.3824         estimate D2E/DX2                !
 ! A117  A(64,35,65)           106.8138         estimate D2E/DX2                !
 ! A118  A(15,37,66)           111.4433         estimate D2E/DX2                !
 ! A119  A(15,37,67)           111.4835         estimate D2E/DX2                !
 ! A120  A(15,37,68)           112.995          estimate D2E/DX2                !
 ! A121  A(66,37,67)           107.4381         estimate D2E/DX2                !
 ! A122  A(66,37,68)           106.6287         estimate D2E/DX2                !
 ! A123  A(67,37,68)           106.5078         estimate D2E/DX2                !
 ! D1    D(6,1,2,3)             -0.3746         estimate D2E/DX2                !
 ! D2    D(6,1,2,39)           179.8612         estimate D2E/DX2                !
 ! D3    D(38,1,2,3)           179.687          estimate D2E/DX2                !
 ! D4    D(38,1,2,39)           -0.0772         estimate D2E/DX2                !
 ! D5    D(2,1,6,5)             -0.3572         estimate D2E/DX2                !
 ! D6    D(2,1,6,41)          -179.861          estimate D2E/DX2                !
 ! D7    D(38,1,6,5)           179.5816         estimate D2E/DX2                !
 ! D8    D(38,1,6,41)            0.0779         estimate D2E/DX2                !
 ! D9    D(1,2,3,4)              0.6782         estimate D2E/DX2                !
 ! D10   D(1,2,3,7)           -178.0119         estimate D2E/DX2                !
 ! D11   D(39,2,3,4)          -179.5662         estimate D2E/DX2                !
 ! D12   D(39,2,3,7)             1.7438         estimate D2E/DX2                !
 ! D13   D(2,3,4,5)             -0.3273         estimate D2E/DX2                !
 ! D14   D(2,3,4,40)           178.444          estimate D2E/DX2                !
 ! D15   D(7,3,4,5)            178.399          estimate D2E/DX2                !
 ! D16   D(7,3,4,40)            -2.8297         estimate D2E/DX2                !
 ! D17   D(2,3,7,8)              2.7475         estimate D2E/DX2                !
 ! D18   D(2,3,7,12)          -177.7378         estimate D2E/DX2                !
 ! D19   D(4,3,7,8)           -175.8734         estimate D2E/DX2                !
 ! D20   D(4,3,7,12)             3.6413         estimate D2E/DX2                !
 ! D21   D(3,4,5,6)             -0.3559         estimate D2E/DX2                !
 ! D22   D(40,4,5,6)          -179.181          estimate D2E/DX2                !
 ! D23   D(4,5,6,1)              0.7093         estimate D2E/DX2                !
 ! D24   D(4,5,6,41)          -179.7641         estimate D2E/DX2                !
 ! D25   D(3,7,8,9)           -178.3936         estimate D2E/DX2                !
 ! D26   D(3,7,8,42)             0.8646         estimate D2E/DX2                !
 ! D27   D(12,7,8,9)             2.1147         estimate D2E/DX2                !
 ! D28   D(12,7,8,42)         -178.627          estimate D2E/DX2                !
 ! D29   D(3,7,12,11)          178.9749         estimate D2E/DX2                !
 ! D30   D(8,7,12,11)           -1.481          estimate D2E/DX2                !
 ! D31   D(7,8,9,10)            -1.3025         estimate D2E/DX2                !
 ! D32   D(7,8,9,43)           178.8197         estimate D2E/DX2                !
 ! D33   D(42,8,9,10)          179.4064         estimate D2E/DX2                !
 ! D34   D(42,8,9,43)           -0.4714         estimate D2E/DX2                !
 ! D35   D(8,9,10,11)           -0.1949         estimate D2E/DX2                !
 ! D36   D(43,9,10,11)         179.6885         estimate D2E/DX2                !
 ! D37   D(9,10,11,12)           0.9842         estimate D2E/DX2                !
 ! D38   D(9,10,11,13)        -178.881          estimate D2E/DX2                !
 ! D39   D(10,11,12,7)          -0.1452         estimate D2E/DX2                !
 ! D40   D(13,11,12,7)         179.7132         estimate D2E/DX2                !
 ! D41   D(10,11,13,14)       -176.0624         estimate D2E/DX2                !
 ! D42   D(10,11,13,44)         -2.3468         estimate D2E/DX2                !
 ! D43   D(12,11,13,14)          4.0669         estimate D2E/DX2                !
 ! D44   D(12,11,13,44)        177.7824         estimate D2E/DX2                !
 ! D45   D(11,13,14,15)        163.1224         estimate D2E/DX2                !
 ! D46   D(11,13,14,19)        -17.0341         estimate D2E/DX2                !
 ! D47   D(44,13,14,15)        -10.2429         estimate D2E/DX2                !
 ! D48   D(44,13,14,19)        169.6006         estimate D2E/DX2                !
 ! D49   D(13,14,15,16)       -179.2303         estimate D2E/DX2                !
 ! D50   D(13,14,15,37)         -0.1401         estimate D2E/DX2                !
 ! D51   D(19,14,15,16)          0.922          estimate D2E/DX2                !
 ! D52   D(19,14,15,37)       -179.9878         estimate D2E/DX2                !
 ! D53   D(13,14,19,18)        178.8059         estimate D2E/DX2                !
 ! D54   D(13,14,19,47)         -0.9936         estimate D2E/DX2                !
 ! D55   D(15,14,19,18)         -1.3488         estimate D2E/DX2                !
 ! D56   D(15,14,19,47)        178.8516         estimate D2E/DX2                !
 ! D57   D(14,15,16,17)          0.3277         estimate D2E/DX2                !
 ! D58   D(14,15,16,45)        179.4593         estimate D2E/DX2                !
 ! D59   D(37,15,16,17)       -178.7981         estimate D2E/DX2                !
 ! D60   D(37,15,16,45)          0.3334         estimate D2E/DX2                !
 ! D61   D(14,15,37,66)         63.5842         estimate D2E/DX2                !
 ! D62   D(14,15,37,67)        -56.4547         estimate D2E/DX2                !
 ! D63   D(14,15,37,68)       -176.3716         estimate D2E/DX2                !
 ! D64   D(16,15,37,66)       -117.3463         estimate D2E/DX2                !
 ! D65   D(16,15,37,67)        122.6149         estimate D2E/DX2                !
 ! D66   D(16,15,37,68)          2.6979         estimate D2E/DX2                !
 ! D67   D(15,16,17,18)         -1.1845         estimate D2E/DX2                !
 ! D68   D(15,16,17,46)        178.6551         estimate D2E/DX2                !
 ! D69   D(45,16,17,18)        179.6656         estimate D2E/DX2                !
 ! D70   D(45,16,17,46)         -0.4948         estimate D2E/DX2                !
 ! D71   D(16,17,18,19)          0.7628         estimate D2E/DX2                !
 ! D72   D(16,17,18,20)        179.253          estimate D2E/DX2                !
 ! D73   D(46,17,18,19)       -179.0798         estimate D2E/DX2                !
 ! D74   D(46,17,18,20)         -0.5896         estimate D2E/DX2                !
 ! D75   D(17,18,19,14)          0.4848         estimate D2E/DX2                !
 ! D76   D(17,18,19,47)       -179.72           estimate D2E/DX2                !
 ! D77   D(20,18,19,14)       -178.182          estimate D2E/DX2                !
 ! D78   D(20,18,19,47)          1.6132         estimate D2E/DX2                !
 ! D79   D(17,18,20,21)         -8.1642         estimate D2E/DX2                !
 ! D80   D(17,18,20,48)        177.0271         estimate D2E/DX2                !
 ! D81   D(19,18,20,21)        170.3903         estimate D2E/DX2                !
 ! D82   D(19,18,20,48)         -4.4184         estimate D2E/DX2                !
 ! D83   D(18,20,21,22)       -168.028          estimate D2E/DX2                !
 ! D84   D(18,20,21,36)         13.0003         estimate D2E/DX2                !
 ! D85   D(48,20,21,22)          6.7631         estimate D2E/DX2                !
 ! D86   D(48,20,21,36)       -172.2086         estimate D2E/DX2                !
 ! D87   D(20,21,22,23)         35.8296         estimate D2E/DX2                !
 ! D88   D(20,21,22,27)       -144.4419         estimate D2E/DX2                !
 ! D89   D(36,21,22,23)       -145.1775         estimate D2E/DX2                !
 ! D90   D(36,21,22,27)         34.551          estimate D2E/DX2                !
 ! D91   D(21,22,23,24)       -175.991          estimate D2E/DX2                !
 ! D92   D(21,22,23,49)          2.4542         estimate D2E/DX2                !
 ! D93   D(27,22,23,24)          4.2788         estimate D2E/DX2                !
 ! D94   D(27,22,23,49)       -177.276          estimate D2E/DX2                !
 ! D95   D(21,22,27,26)        174.7645         estimate D2E/DX2                !
 ! D96   D(21,22,27,52)         -2.5431         estimate D2E/DX2                !
 ! D97   D(23,22,27,26)         -5.4981         estimate D2E/DX2                !
 ! D98   D(23,22,27,52)        177.1943         estimate D2E/DX2                !
 ! D99   D(22,23,24,25)         -0.2032         estimate D2E/DX2                !
 ! D100  D(22,23,24,50)        177.6467         estimate D2E/DX2                !
 ! D101  D(49,23,24,25)       -178.6544         estimate D2E/DX2                !
 ! D102  D(49,23,24,50)         -0.8045         estimate D2E/DX2                !
 ! D103  D(23,24,25,26)         -2.6133         estimate D2E/DX2                !
 ! D104  D(23,24,25,28)        174.7253         estimate D2E/DX2                !
 ! D105  D(50,24,25,26)        179.5813         estimate D2E/DX2                !
 ! D106  D(50,24,25,28)         -3.08           estimate D2E/DX2                !
 ! D107  D(24,25,26,27)          1.3612         estimate D2E/DX2                !
 ! D108  D(24,25,26,51)       -179.6879         estimate D2E/DX2                !
 ! D109  D(28,25,26,27)       -175.9286         estimate D2E/DX2                !
 ! D110  D(28,25,26,51)          3.0223         estimate D2E/DX2                !
 ! D111  D(24,25,28,29)        -82.7609         estimate D2E/DX2                !
 ! D112  D(24,25,28,53)         39.7144         estimate D2E/DX2                !
 ! D113  D(24,25,28,54)        155.2257         estimate D2E/DX2                !
 ! D114  D(26,25,28,29)         94.4548         estimate D2E/DX2                !
 ! D115  D(26,25,28,53)       -143.07           estimate D2E/DX2                !
 ! D116  D(26,25,28,54)        -27.5586         estimate D2E/DX2                !
 ! D117  D(25,26,27,22)          2.7139         estimate D2E/DX2                !
 ! D118  D(25,26,27,52)        179.9495         estimate D2E/DX2                !
 ! D119  D(51,26,27,22)       -176.2501         estimate D2E/DX2                !
 ! D120  D(51,26,27,52)          0.9855         estimate D2E/DX2                !
 ! D121  D(25,28,29,30)         74.6528         estimate D2E/DX2                !
 ! D122  D(25,28,29,35)        -64.4389         estimate D2E/DX2                !
 ! D123  D(53,28,29,30)        -48.6093         estimate D2E/DX2                !
 ! D124  D(53,28,29,35)        172.299          estimate D2E/DX2                !
 ! D125  D(54,28,29,30)       -162.4794         estimate D2E/DX2                !
 ! D126  D(54,28,29,35)         58.4289         estimate D2E/DX2                !
 ! D127  D(28,29,30,31)        -95.1538         estimate D2E/DX2                !
 ! D128  D(28,29,30,55)         33.9734         estimate D2E/DX2                !
 ! D129  D(28,29,30,56)        149.1588         estimate D2E/DX2                !
 ! D130  D(35,29,30,31)         47.0539         estimate D2E/DX2                !
 ! D131  D(35,29,30,55)        176.1811         estimate D2E/DX2                !
 ! D132  D(35,29,30,56)        -68.6335         estimate D2E/DX2                !
 ! D133  D(28,29,35,34)         96.2004         estimate D2E/DX2                !
 ! D134  D(28,29,35,64)       -147.0237         estimate D2E/DX2                !
 ! D135  D(28,29,35,65)        -31.1823         estimate D2E/DX2                !
 ! D136  D(30,29,35,34)        -46.1164         estimate D2E/DX2                !
 ! D137  D(30,29,35,64)         70.6595         estimate D2E/DX2                !
 ! D138  D(30,29,35,65)       -173.499          estimate D2E/DX2                !
 ! D139  D(29,30,31,32)        -52.7134         estimate D2E/DX2                !
 ! D140  D(29,30,31,57)       -173.0018         estimate D2E/DX2                !
 ! D141  D(29,30,31,58)         69.4956         estimate D2E/DX2                !
 ! D142  D(55,30,31,32)        179.0395         estimate D2E/DX2                !
 ! D143  D(55,30,31,57)         58.7512         estimate D2E/DX2                !
 ! D144  D(55,30,31,58)        -58.7515         estimate D2E/DX2                !
 ! D145  D(56,30,31,32)         63.8063         estimate D2E/DX2                !
 ! D146  D(56,30,31,57)        -56.482          estimate D2E/DX2                !
 ! D147  D(56,30,31,58)       -173.9847         estimate D2E/DX2                !
 ! D148  D(30,31,32,33)        -81.8734         estimate D2E/DX2                !
 ! D149  D(30,31,32,34)         52.2619         estimate D2E/DX2                !
 ! D150  D(57,31,32,33)         37.7438         estimate D2E/DX2                !
 ! D151  D(57,31,32,34)        171.8791         estimate D2E/DX2                !
 ! D152  D(58,31,32,33)        154.1817         estimate D2E/DX2                !
 ! D153  D(58,31,32,34)        -71.683          estimate D2E/DX2                !
 ! D154  D(31,32,33,59)         65.4197         estimate D2E/DX2                !
 ! D155  D(31,32,33,60)        -55.2924         estimate D2E/DX2                !
 ! D156  D(31,32,33,61)       -174.0758         estimate D2E/DX2                !
 ! D157  D(34,32,33,59)        -65.2631         estimate D2E/DX2                !
 ! D158  D(34,32,33,60)        174.0248         estimate D2E/DX2                !
 ! D159  D(34,32,33,61)         55.2415         estimate D2E/DX2                !
 ! D160  D(31,32,34,35)        -51.2244         estimate D2E/DX2                !
 ! D161  D(31,32,34,62)       -177.2089         estimate D2E/DX2                !
 ! D162  D(31,32,34,63)         66.9863         estimate D2E/DX2                !
 ! D163  D(33,32,34,35)         82.9077         estimate D2E/DX2                !
 ! D164  D(33,32,34,62)        -43.0768         estimate D2E/DX2                !
 ! D165  D(33,32,34,63)       -158.8816         estimate D2E/DX2                !
 ! D166  D(32,34,35,29)         50.6108         estimate D2E/DX2                !
 ! D167  D(32,34,35,64)        -67.0763         estimate D2E/DX2                !
 ! D168  D(32,34,35,65)        177.4953         estimate D2E/DX2                !
 ! D169  D(62,34,35,29)        175.5238         estimate D2E/DX2                !
 ! D170  D(62,34,35,64)         57.8367         estimate D2E/DX2                !
 ! D171  D(62,34,35,65)        -57.5917         estimate D2E/DX2                !
 ! D172  D(63,34,35,29)        -67.3523         estimate D2E/DX2                !
 ! D173  D(63,34,35,64)        174.9606         estimate D2E/DX2                !
 ! D174  D(63,34,35,65)         59.5322         estimate D2E/DX2                !
 --------------------------------------------------------------------------------
 Trust Radius=3.00D-01 FncErr=1.00D-07 GrdErr=1.00D-06
 Number of steps in this run= 400 maximum allowed number of steps= 408.
 GradGradGradGradGradGradGradGradGradGradGradGradGradGradGradGradGradGrad

 Leave Link  103 at Wed Mar 25 12:48:52 2020, MaxMem= 2684354560 cpu:       0.1
 (Enter /opt/g09gh/gaussian/g09/l202.exe)
 Stoichiometry    C29H31N7O
 Framework group  C1[X(C29H31N7O)]
 Deg. of freedom   198
 Full point group                 C1      NOp   1
 Largest Abelian subgroup         C1      NOp   1
 Largest concise Abelian subgroup C1      NOp   1
                         Standard orientation:                         
 ---------------------------------------------------------------------
 Center     Atomic      Atomic             Coordinates (Angstroms)
 Number     Number       Type             X           Y           Z
 ---------------------------------------------------------------------
      1          6           0       -0.207607    4.490452   -1.385680
      2          6           0        1.131455    4.365190   -0.989634
      3          6           0        1.656745    3.098016   -0.665877
      4          6           0        0.752644    2.013930   -0.787577
      5          7           0       -0.527101    2.109474   -1.170728
      6          6           0       -0.993054    3.334333   -1.456426
      7          6           0        3.073602    2.879152   -0.189075
      8          6           0        4.019820    3.890732    0.043822
      9          6           0        5.286153    3.455901    0.450389
     10          7           0        5.618570    2.183126    0.644642
     11          6           0        4.639910    1.279249    0.428420
     12          7           0        3.403446    1.589599    0.024357
     13          7           0        4.996419   -0.043810    0.659196
     14          6           0        4.308862   -1.300341    0.488963
     15          6           0        5.050356   -2.520386    0.473081
     16          6           0        4.324422   -3.710415    0.286976
     17          6           0        2.935563   -3.761913    0.112399
     18          6           0        2.223435   -2.559435    0.148886
     19          6           0        2.919468   -1.355788    0.340635
     20          7           0        0.814242   -2.403117   -0.022034
     21          6           0       -0.172145   -3.284409   -0.397019
     22          6           0       -1.517361   -2.669137   -0.735513
     23          6           0       -1.625476   -1.424719   -1.379761
     24          6           0       -2.875459   -0.848423   -1.602155
     25          6           0       -4.059319   -1.490069   -1.196312
     26          6           0       -3.940681   -2.763950   -0.606525
     27          6           0       -2.692905   -3.360720   -0.403095
     28          6           0       -5.408450   -0.785799   -1.342176
     29          7           0       -5.823514    0.168112   -0.296984
     30          6           0       -5.180282    1.501584   -0.247255
     31          6           0       -3.981148    1.612280    0.729811
     32          7           0       -4.281486    1.163191    2.109507
     33          6           0       -4.955078    2.133544    2.980717
     34          6           0       -4.871424   -0.196756    2.054858
     35          6           0       -6.064379   -0.339231    1.073102
     36          8           0       -0.002147   -4.492227   -0.442534
     37          6           0        6.560647   -2.580241    0.625452
     38          1           0       -0.631680    5.458845   -1.634180
     39          1           0        1.738285    5.265654   -0.938361
     40          1           0        1.090601    1.006175   -0.580430
     41          1           0       -2.037245    3.386317   -1.761632
     42          1           0        3.824241    4.948551   -0.083656
     43          1           0        6.082207    4.177383    0.632915
     44          1           0        5.969921   -0.090314    0.920396
     45          1           0        4.858929   -4.659237    0.260589
     46          1           0        2.413977   -4.697673   -0.049735
     47          1           0        2.378215   -0.425229    0.374574
     48          1           0        0.495948   -1.450837    0.088337
     49          1           0       -0.727981   -0.892837   -1.685960
     50          1           0       -2.914486    0.135174   -2.069762
     51          1           0       -4.833621   -3.297905   -0.282569
     52          1           0       -2.606469   -4.343540    0.053153
     53          1           0       -5.419937   -0.242408   -2.298162
     54          1           0       -6.196403   -1.550247   -1.406224
     55          1           0       -4.946267    1.841523   -1.216167
     56          1           0       -6.269692    2.503951    0.325835
     57          1           0       -3.578925    3.038070    0.775586
     58          1           0       -3.036829    0.977503    0.331085
     59          1           0       -5.962867    2.359053    2.614222
     60          1           0       -4.378494    3.064429    3.026984
     61          1           0       -5.031841    1.736107    3.999383
     62          1           0       -5.148873   -0.524716    3.087989
     63          1           0       -3.790541   -1.114703    1.570717
     64          1           0       -7.218322    0.536503    1.690524
     65          1           0       -6.447268   -1.411178    1.037744
     66          1           0        6.880049   -2.211801    1.610524
     67          1           0        7.066473   -1.968608   -0.134837
     68          1           0        6.962150   -3.598001    0.525116
 ---------------------------------------------------------------------
 Rotational constants (GHZ):      0.1315698      0.0635247      0.0472520
 Leave Link  202 at Wed Mar 25 12:48:52 2020, MaxMem= 2684354560 cpu:       0.1
 (Enter /opt/g09gh/gaussian/g09/l301.exe)
 Standard basis: 6-31G(d) (6D, 7F)
 Ernie: Thresh=  0.10000D-02 Tol=  0.10000D-05 Strict=F.
 There are   617 symmetry adapted basis functions of A   symmetry.
 Integral buffers will be    131072 words long.
 Raffenetti 2 integral format.
 Two-electron integral symmetry is turned on.
   617 basis functions,  1160 primitive gaussians,   617 cartesian basis functions
   131 alpha electrons      131 beta electrons
       nuclear repulsion energy      3809.1258772306 Hartrees.
 IExCor= 4639 DFT=T Ex+Corr=wB97XD ExCW=0 ScaHFX=  1.000000
 ScaDFX=  1.000000  1.000000  1.000000  1.000000 ScalE2=  1.000000  1.000000
 IRadAn=      0 IRanWt=     -1 IRanGd=            0 ICorTp=0
  HFx wShort=  0.000000 wLong=  0.200000 cFull=  0.222036 cShort=  0.000000 cLong=  0.777964
  DFx wShort=  0.000000 wLong=  0.200000 cFull=  0.000000 cShort=  0.000000 cLong=  1.000000
 NAtoms=   68 NActive=   68 NUniq=   68 SFac= 7.50D-01 NAtFMM=   80 NAOKFM=F Big=T
 R6Disp: Dispersion energy =        -0.0596969151 Hartrees.
 Nuclear repulsion after empirical dispersion term =     3809.0661803154 Hartrees.
 Leave Link  301 at Wed Mar 25 12:48:52 2020, MaxMem= 2684354560 cpu:       0.3
 (Enter /opt/g09gh/gaussian/g09/l302.exe)
 NPDir=0 NMtPBC=     1 NCelOv=     1 NCel=       1 NClECP=     1 NCelD=      1
         NCelK=      1 NCelE2=     1 NClLst=     1 CellRange=     0.0.
 One-electron integrals computed using PRISM.
 NBasis=   617 RedAO= T  NBF=   617
 NBsUse=   617 1.00D-06 NBFU=   617
 Precomputing XC quadrature grid using
 IXCGrd= 2 IRadAn=           0 IRanWt=          -1 IRanGd=           0 AccXCQ= 1.00D-10.
 NRdTot=    4373 NPtTot=      558794 NUsed=      590302 NTot=      590334
 NSgBfM=   604   606   606   606   606 NAtAll=    68    68.
 Leave Link  302 at Wed Mar 25 12:48:54 2020, MaxMem= 2684354560 cpu:       8.6
 (Enter /opt/g09gh/gaussian/g09/l303.exe)
 DipDrv:  MaxL=1.
 Leave Link  303 at Wed Mar 25 12:48:54 2020, MaxMem= 2684354560 cpu:       0.7
 (Enter /opt/g09gh/gaussian/g09/l401.exe)
 Harris functional with IExCor= 4639 diagonalized for initial guess.
 ExpMin= 1.61D-01 ExpMax= 5.48D+03 ExpMxC= 8.25D+02 IAcc=1 IRadAn=         1 AccDes= 0.00D+00
 HarFok:  IExCor= 4639 AccDes= 0.00D+00 IRadAn=         1 IDoV= 1
 ScaDFX=  1.000000  1.000000  1.000000  1.000000
 FoFCou: FMM=F IPFlag=           0 FMFlag=      100000 FMFlg1=           1
         NFxFlg=           0 DoJE=T BraDBF=F KetDBF=T FulRan=T
         Omega=  0.000000  0.000000  1.000000  0.000000  0.000000 ICntrl=     500 IOpCl=  0
         NMat0=    1 NMatS0=    1 NMatT0=    0 NMatD0=    1 NMtDS0=    0 NMtDT0=    0
         I1Cent=           4 NGrid=           0.
 Petite list used in FoFCou.
 Harris En= -1512.40321318681    
 Initial guess orbital symmetries:
       Occupied  (A) (A) (A) (A) (A) (A) (A) (A) (A) (A) (A) (A)
                 (A) (A) (A) (A) (A) (A) (A) (A) (A) (A) (A) (A)
                 (A) (A) (A) (A) (A) (A) (A) (A) (A) (A) (A) (A)
                 (A) (A) (A) (A) (A) (A) (A) (A) (A) (A) (A) (A)
                 (A) (A) (A) (A) (A) (A) (A) (A) (A) (A) (A) (A)
                 (A) (A) (A) (A) (A) (A) (A) (A) (A) (A) (A) (A)
                 (A) (A) (A) (A) (A) (A) (A) (A) (A) (A) (A) (A)
                 (A) (A) (A) (A) (A) (A) (A) (A) (A) (A) (A) (A)
                 (A) (A) (A) (A) (A) (A) (A) (A) (A) (A) (A) (A)
                 (A) (A) (A) (A) (A) (A) (A) (A) (A) (A) (A) (A)
                 (A) (A) (A) (A) (A) (A) (A) (A) (A) (A) (A)
       Virtual   (A) (A) (A) (A) (A) (A) (A) (A) (A) (A) (A) (A)
                 (A) (A) (A) (A) (A) (A) (A) (A) (A) (A) (A) (A)
                 (A) (A) (A) (A) (A) (A) (A) (A) (A) (A) (A) (A)
                 (A) (A) (A) (A) (A) (A) (A) (A) (A) (A) (A) (A)
                 (A) (A) (A) (A) (A) (A) (A) (A) (A) (A) (A) (A)
                 (A) (A) (A) (A) (A) (A) (A) (A) (A) (A) (A) (A)
                 (A) (A) (A) (A) (A) (A) (A) (A) (A) (A) (A) (A)
                 (A) (A) (A) (A) (A) (A) (A) (A) (A) (A) (A) (A)
                 (A) (A) (A) (A) (A) (A) (A) (A) (A) (A) (A) (A)
                 (A) (A) (A) (A) (A) (A) (A) (A) (A) (A) (A) (A)
                 (A) (A) (A) (A) (A) (A) (A) (A) (A) (A) (A) (A)
                 (A) (A) (A) (A) (A) (A) (A) (A) (A) (A) (A) (A)
                 (A) (A) (A) (A) (A) (A) (A) (A) (A) (A) (A) (A)
                 (A) (A) (A) (A) (A) (A) (A) (A) (A) (A) (A) (A)
                 (A) (A) (A) (A) (A) (A) (A) (A) (A) (A) (A) (A)
                 (A) (A) (A) (A) (A) (A) (A) (A) (A) (A) (A) (A)
                 (A) (A) (A) (A) (A) (A) (A) (A) (A) (A) (A) (A)
                 (A) (A) (A) (A) (A) (A) (A) (A) (A) (A) (A) (A)
                 (A) (A) (A) (A) (A) (A) (A) (A) (A) (A) (A) (A)
                 (A) (A) (A) (A) (A) (A) (A) (A) (A) (A) (A) (A)
                 (A) (A) (A) (A) (A) (A) (A) (A) (A) (A) (A) (A)
                 (A) (A) (A) (A) (A) (A) (A) (A) (A) (A) (A) (A)
                 (A) (A) (A) (A) (A) (A) (A) (A) (A) (A) (A) (A)
                 (A) (A) (A) (A) (A) (A) (A) (A) (A) (A) (A) (A)
                 (A) (A) (A) (A) (A) (A) (A) (A) (A) (A) (A) (A)
                 (A) (A) (A) (A) (A) (A) (A) (A) (A) (A) (A) (A)
                 (A) (A) (A) (A) (A) (A) (A) (A) (A) (A) (A) (A)
                 (A) (A) (A) (A) (A) (A) (A) (A) (A) (A) (A) (A)
                 (A) (A) (A) (A) (A) (A) (A) (A) (A) (A) (A) (A)
                 (A) (A) (A) (A) (A) (A) (A) (A) (A) (A) (A) (A)
                 (A) (A) (A) (A) (A) (A) (A) (A) (A) (A) (A) (A)
                 (A) (A) (A) (A) (A) (A) (A) (A) (A) (A) (A) (A)
                 (A) (A) (A) (A) (A) (A) (A) (A) (A) (A) (A) (A)
                 (A) (A) (A) (A) (A) (A) (A) (A) (A) (A) (A) (A)
                 (A) (A) (A) (A) (A) (A) (A) (A) (A) (A) (A) (A)
                 (A) (A) (A) (A) (A) (A) (A) (A) (A) (A) (A) (A)
                 (A) (A) (A) (A) (A) (A) (A) (A) (A) (A) (A) (A)
                 (A) (A) (A) (A) (A) (A) (A) (A) (A) (A) (A) (A)
                 (A) (A) (A) (A) (A) (A) (A) (A) (A) (A) (A) (A)
                 (A) (A) (A) (A) (A) (A) (A) (A) (A) (A) (A) (A)
                 (A) (A) (A) (A) (A) (A)
 The electronic state of the initial guess is 1-A.
 Leave Link  401 at Wed Mar 25 12:48:57 2020, MaxMem= 2684354560 cpu:      17.6
 (Enter /opt/g09gh/gaussian/g09/l502.exe)
 Closed shell SCF:
 Requested convergence on RMS density matrix=1.00D-08 within 128 cycles.
 Requested convergence on MAX density matrix=1.00D-06.
 Requested convergence on             energy=1.00D-06.
 No special actions if energy rises.
 Using DIIS extrapolation, IDIIS=  1040.
 Integral symmetry usage will be decided dynamically.
       589677 words used for storage of precomputed grid.
 IEnd=     1758257 IEndB=     1758257 NGot=  2684354560 MDV=  2682994250
 LenX=  2682994250 LenY=  2682612944
 Fock matrices will be formed incrementally for  20 cycles.
 Integral accuracy reduced to 1.0D-05 until final iterations.

 Cycle   1  Pass 0  IDiag  1:
 FoFJK:  IHMeth= 1 ICntrl=     0 DoSepK=T KAlg= 1 I1Cent= 0 FoldK=F
 FoFCou: FMM=T IPFlag=           0 FMFlag=      100000 FMFlg1=           1
         NFxFlg=           0 DoJE=T BraDBF=F KetDBF=F FulRan=T
         Omega=  0.000000  0.000000  1.000000  0.000000  0.000000 ICntrl=     500 IOpCl=  0
         NMat0=    1 NMatS0=    1 NMatT0=    0 NMatD0=    1 NMtDS0=    0 NMtDT0=    0
         I1Cent=           0 NGrid=           0.
 Symmetry not used in FoFCou.
 FMM levels:  10  Number of levels for PrismC:   9
 E= -1581.15917984992    
 DIIS: error= 5.32D-02 at cycle   1 NSaved=   1.
 NSaved= 1 IEnMin= 1 EnMin= -1581.15917984992     IErMin= 1 ErrMin= 5.32D-02
 ErrMax= 5.32D-02 EMaxC= 1.00D-01 BMatC= 1.46D+00 BMatP= 1.46D+00
 IDIUse=3 WtCom= 4.68D-01 WtEn= 5.32D-01
 Coeff-Com:  0.100D+01
 Coeff-En:   0.100D+01
 Coeff:      0.100D+01
 Gap=     0.267 Goal=   None    Shift=    0.000
 GapD=    0.267 DampG=1.000 DampE=0.500 DampFc=0.5000 IDamp=-1.
 Damping current iteration by 5.00D-01
 RMSDP=1.89D-03 MaxDP=8.92D-02              OVMax= 1.69D-01

 Cycle   2  Pass 0  IDiag  1:
 RMSU=  6.67D-04    CP:  1.00D+00
 FoFJK:  IHMeth= 1 ICntrl=     0 DoSepK=T KAlg= 1 I1Cent= 0 FoldK=F
 E= -1581.33575163680     Delta-E=       -0.176571786886 Rises=F Damp=T
 DIIS: error= 2.67D-02 at cycle   2 NSaved=   2.
 NSaved= 2 IEnMin= 2 EnMin= -1581.33575163680     IErMin= 2 ErrMin= 2.67D-02
 ErrMax= 2.67D-02 EMaxC= 1.00D-01 BMatC= 3.23D-01 BMatP= 1.46D+00
 IDIUse=3 WtCom= 7.33D-01 WtEn= 2.67D-01
 Coeff-Com: -0.648D+00 0.165D+01
 Coeff-En:   0.000D+00 0.100D+01
 Coeff:     -0.475D+00 0.148D+01
 Gap=     0.277 Goal=   None    Shift=    0.000
 RMSDP=8.86D-04 MaxDP=3.84D-02 DE=-1.77D-01 OVMax= 1.22D-01

 Cycle   3  Pass 0  IDiag  1:
 RMSU=  5.76D-04    CP:  1.00D+00  1.37D+00
 FoFJK:  IHMeth= 1 ICntrl=     0 DoSepK=T KAlg= 1 I1Cent= 0 FoldK=F
 E= -1581.46191843922     Delta-E=       -0.126166802421 Rises=F Damp=F
 DIIS: error= 9.01D-03 at cycle   3 NSaved=   3.
 NSaved= 3 IEnMin= 3 EnMin= -1581.46191843922     IErMin= 3 ErrMin= 9.01D-03
 ErrMax= 9.01D-03 EMaxC= 1.00D-01 BMatC= 6.74D-02 BMatP= 3.23D-01
 IDIUse=3 WtCom= 9.10D-01 WtEn= 9.01D-02
 Coeff-Com: -0.370D+00 0.764D+00 0.606D+00
 Coeff-En:   0.000D+00 0.000D+00 0.100D+01
 Coeff:     -0.337D+00 0.695D+00 0.641D+00
 Gap=     0.260 Goal=   None    Shift=    0.000
 RMSDP=4.93D-04 MaxDP=3.21D-02 DE=-1.26D-01 OVMax= 6.32D-02

 Cycle   4  Pass 0  IDiag  1:
 RMSU=  1.46D-04    CP:  1.00D+00  1.67D+00  5.78D-01
 FoFJK:  IHMeth= 1 ICntrl=     0 DoSepK=T KAlg= 1 I1Cent= 0 FoldK=F
 E= -1581.52127813179     Delta-E=       -0.059359692561 Rises=F Damp=F
 DIIS: error= 2.20D-03 at cycle   4 NSaved=   4.
 NSaved= 4 IEnMin= 4 EnMin= -1581.52127813179     IErMin= 4 ErrMin= 2.20D-03
 ErrMax= 2.20D-03 EMaxC= 1.00D-01 BMatC= 4.27D-03 BMatP= 6.74D-02
 IDIUse=3 WtCom= 9.78D-01 WtEn= 2.20D-02
 Coeff-Com: -0.165D+00 0.337D+00 0.348D+00 0.481D+00
 Coeff-En:   0.000D+00 0.000D+00 0.000D+00 0.100D+01
 Coeff:     -0.162D+00 0.329D+00 0.340D+00 0.492D+00
 Gap=     0.253 Goal=   None    Shift=    0.000
 RMSDP=1.10D-04 MaxDP=9.28D-03 DE=-5.94D-02 OVMax= 1.06D-02

 Cycle   5  Pass 0  IDiag  1:
 RMSU=  4.67D-05    CP:  1.00D+00  1.65D+00  6.53D-01  7.09D-01
 FoFJK:  IHMeth= 1 ICntrl=     0 DoSepK=T KAlg= 1 I1Cent= 0 FoldK=F
 E= -1581.52501971886     Delta-E=       -0.003741587079 Rises=F Damp=F
 DIIS: error= 5.44D-04 at cycle   5 NSaved=   5.
 NSaved= 5 IEnMin= 5 EnMin= -1581.52501971886     IErMin= 5 ErrMin= 5.44D-04
 ErrMax= 5.44D-04 EMaxC= 1.00D-01 BMatC= 9.10D-05 BMatP= 4.27D-03
 IDIUse=3 WtCom= 9.95D-01 WtEn= 5.44D-03
 Coeff-Com: -0.145D-01 0.286D-01 0.526D-01 0.154D+00 0.779D+00
 Coeff-En:   0.000D+00 0.000D+00 0.000D+00 0.000D+00 0.100D+01
 Coeff:     -0.144D-01 0.284D-01 0.523D-01 0.154D+00 0.780D+00
 Gap=     0.252 Goal=   None    Shift=    0.000
 RMSDP=2.48D-05 MaxDP=2.55D-03 DE=-3.74D-03 OVMax= 2.92D-03

 Cycle   6  Pass 0  IDiag  1:
 RMSU=  1.33D-05    CP:  1.00D+00  1.66D+00  6.59D-01  7.77D-01  9.95D-01
 FoFJK:  IHMeth= 1 ICntrl=     0 DoSepK=T KAlg= 1 I1Cent= 0 FoldK=F
 E= -1581.52511050109     Delta-E=       -0.000090782226 Rises=F Damp=F
 DIIS: error= 2.72D-04 at cycle   6 NSaved=   6.
 NSaved= 6 IEnMin= 6 EnMin= -1581.52511050109     IErMin= 6 ErrMin= 2.72D-04
 ErrMax= 2.72D-04 EMaxC= 1.00D-01 BMatC= 2.75D-05 BMatP= 9.10D-05
 IDIUse=3 WtCom= 9.97D-01 WtEn= 2.72D-03
 Coeff-Com:  0.237D-01-0.490D-01-0.368D-01-0.155D-01 0.396D+00 0.682D+00
 Coeff-En:   0.000D+00 0.000D+00 0.000D+00 0.000D+00 0.000D+00 0.100D+01
 Coeff:      0.236D-01-0.488D-01-0.367D-01-0.154D-01 0.395D+00 0.683D+00
 Gap=     0.252 Goal=   None    Shift=    0.000
 RMSDP=1.32D-05 MaxDP=8.25D-04 DE=-9.08D-05 OVMax= 1.63D-03

 Cycle   7  Pass 0  IDiag  1:
 RMSU=  5.81D-06    CP:  1.00D+00  1.66D+00  6.63D-01  8.03D-01  1.11D+00
                    CP:  8.95D-01
 FoFJK:  IHMeth= 1 ICntrl=     0 DoSepK=T KAlg= 1 I1Cent= 0 FoldK=F
 E= -1581.52514141246     Delta-E=       -0.000030911365 Rises=F Damp=F
 DIIS: error= 7.79D-05 at cycle   7 NSaved=   7.
 NSaved= 7 IEnMin= 7 EnMin= -1581.52514141246     IErMin= 7 ErrMin= 7.79D-05
 ErrMax= 7.79D-05 EMaxC= 1.00D-01 BMatC= 1.77D-06 BMatP= 2.75D-05
 IDIUse=1 WtCom= 1.00D+00 WtEn= 0.00D+00
 Coeff-Com:  0.976D-02-0.199D-01-0.172D-01-0.202D-01 0.654D-01 0.239D+00
 Coeff-Com:  0.743D+00
 Coeff:      0.976D-02-0.199D-01-0.172D-01-0.202D-01 0.654D-01 0.239D+00
 Coeff:      0.743D+00
 Gap=     0.253 Goal=   None    Shift=    0.000
 RMSDP=4.14D-06 MaxDP=2.72D-04 DE=-3.09D-05 OVMax= 6.40D-04

 Initial convergence to 1.0D-05 achieved.  Increase integral accuracy.
 Cycle   8  Pass 1  IDiag  1:
 FoFJK:  IHMeth= 1 ICntrl=     0 DoSepK=T KAlg= 1 I1Cent= 0 FoldK=F
 E= -1581.52349610694     Delta-E=        0.001645305520 Rises=F Damp=F
 DIIS: error= 8.99D-05 at cycle   1 NSaved=   1.
 NSaved= 1 IEnMin= 1 EnMin= -1581.52349610694     IErMin= 1 ErrMin= 8.99D-05
 ErrMax= 8.99D-05 EMaxC= 1.00D-01 BMatC= 1.40D-05 BMatP= 1.40D-05
 IDIUse=1 WtCom= 1.00D+00 WtEn= 0.00D+00
 Coeff-Com:  0.100D+01
 Coeff:      0.100D+01
 Gap=     0.253 Goal=   None    Shift=    0.000
 RMSDP=4.14D-06 MaxDP=2.72D-04 DE= 1.65D-03 OVMax= 3.64D-04

 Cycle   9  Pass 1  IDiag  1:
 RMSU=  1.96D-05    CP:  1.00D+00
 FoFJK:  IHMeth= 1 ICntrl=     0 DoSepK=T KAlg= 1 I1Cent= 0 FoldK=F
 E= -1581.52350759594     Delta-E=       -0.000011489008 Rises=F Damp=F
 DIIS: error= 3.68D-05 at cycle   2 NSaved=   2.
 NSaved= 2 IEnMin= 2 EnMin= -1581.52350759594     IErMin= 2 ErrMin= 3.68D-05
 ErrMax= 3.68D-05 EMaxC= 1.00D-01 BMatC= 7.44D-07 BMatP= 1.40D-05
 IDIUse=1 WtCom= 1.00D+00 WtEn= 0.00D+00
 Coeff-Com:  0.251D-01 0.975D+00
 Coeff:      0.251D-01 0.975D+00
 Gap=     0.253 Goal=   None    Shift=    0.000
 RMSDP=3.18D-06 MaxDP=2.13D-04 DE=-1.15D-05 OVMax= 3.01D-04

 Cycle  10  Pass 1  IDiag  1:
 RMSU=  2.05D-06    CP:  1.00D+00  1.05D+00
 FoFJK:  IHMeth= 1 ICntrl=     0 DoSepK=T KAlg= 1 I1Cent= 0 FoldK=F
 E= -1581.52350769529     Delta-E=       -0.000000099347 Rises=F Damp=F
 DIIS: error= 4.02D-05 at cycle   3 NSaved=   3.
 NSaved= 3 IEnMin= 3 EnMin= -1581.52350769529     IErMin= 2 ErrMin= 3.68D-05
 ErrMax= 4.02D-05 EMaxC= 1.00D-01 BMatC= 8.74D-07 BMatP= 7.44D-07
 IDIUse=1 WtCom= 1.00D+00 WtEn= 0.00D+00
 Coeff-Com: -0.397D-01 0.537D+00 0.502D+00
 Coeff:     -0.397D-01 0.537D+00 0.502D+00
 Gap=     0.253 Goal=   None    Shift=    0.000
 RMSDP=1.54D-06 MaxDP=1.35D-04 DE=-9.93D-08 OVMax= 1.46D-04

 Cycle  11  Pass 1  IDiag  1:
 RMSU=  6.43D-07    CP:  1.00D+00  1.06D+00  5.80D-01
 FoFJK:  IHMeth= 1 ICntrl=     0 DoSepK=T KAlg= 1 I1Cent= 0 FoldK=F
 E= -1581.52350845331     Delta-E=       -0.000000758021 Rises=F Damp=F
 DIIS: error= 7.40D-06 at cycle   4 NSaved=   4.
 NSaved= 4 IEnMin= 4 EnMin= -1581.52350845331     IErMin= 4 ErrMin= 7.40D-06
 ErrMax= 7.40D-06 EMaxC= 1.00D-01 BMatC= 2.39D-08 BMatP= 7.44D-07
 IDIUse=1 WtCom= 1.00D+00 WtEn= 0.00D+00
 Coeff-Com: -0.168D-01 0.125D+00 0.178D+00 0.713D+00
 Coeff:     -0.168D-01 0.125D+00 0.178D+00 0.713D+00
 Gap=     0.253 Goal=   None    Shift=    0.000
 RMSDP=3.53D-07 MaxDP=3.63D-05 DE=-7.58D-07 OVMax= 3.41D-05

 Cycle  12  Pass 1  IDiag  1:
 RMSU=  2.21D-07    CP:  1.00D+00  1.06D+00  6.34D-01  1.04D+00
 FoFJK:  IHMeth= 1 ICntrl=     0 DoSepK=T KAlg= 1 I1Cent= 0 FoldK=F
 E= -1581.52350847650     Delta-E=       -0.000000023186 Rises=F Damp=F
 DIIS: error= 3.23D-06 at cycle   5 NSaved=   5.
 NSaved= 5 IEnMin= 5 EnMin= -1581.52350847650     IErMin= 5 ErrMin= 3.23D-06
 ErrMax= 3.23D-06 EMaxC= 1.00D-01 BMatC= 4.97D-09 BMatP= 2.39D-08
 IDIUse=1 WtCom= 1.00D+00 WtEn= 0.00D+00
 Coeff-Com:  0.135D-03-0.399D-01-0.116D-01 0.309D+00 0.742D+00
 Coeff:      0.135D-03-0.399D-01-0.116D-01 0.309D+00 0.742D+00
 Gap=     0.253 Goal=   None    Shift=    0.000
 RMSDP=1.87D-07 MaxDP=1.31D-05 DE=-2.32D-08 OVMax= 2.85D-05

 Cycle  13  Pass 1  IDiag  1:
 RMSU=  9.25D-08    CP:  1.00D+00  1.06D+00  6.51D-01  1.17D+00  9.42D-01
 FoFJK:  IHMeth= 1 ICntrl=     0 DoSepK=T KAlg= 1 I1Cent= 0 FoldK=F
 E= -1581.52350848304     Delta-E=       -0.000000006543 Rises=F Damp=F
 DIIS: error= 7.17D-07 at cycle   6 NSaved=   6.
 NSaved= 6 IEnMin= 6 EnMin= -1581.52350848304     IErMin= 6 ErrMin= 7.17D-07
 ErrMax= 7.17D-07 EMaxC= 1.00D-01 BMatC= 5.92D-10 BMatP= 4.97D-09
 IDIUse=1 WtCom= 1.00D+00 WtEn= 0.00D+00
 Coeff-Com:  0.200D-02-0.291D-01-0.256D-01 0.317D-01 0.288D+00 0.733D+00
 Coeff:      0.200D-02-0.291D-01-0.256D-01 0.317D-01 0.288D+00 0.733D+00
 Gap=     0.253 Goal=   None    Shift=    0.000
 RMSDP=7.79D-08 MaxDP=3.70D-06 DE=-6.54D-09 OVMax= 1.20D-05

 Cycle  14  Pass 1  IDiag  1:
 RMSU=  3.46D-08    CP:  1.00D+00  1.06D+00  6.55D-01  1.22D+00  1.07D+00
                    CP:  1.03D+00
 FoFJK:  IHMeth= 1 ICntrl=     0 DoSepK=T KAlg= 1 I1Cent= 0 FoldK=F
 E= -1581.52350848410     Delta-E=       -0.000000001062 Rises=F Damp=F
 DIIS: error= 3.51D-07 at cycle   7 NSaved=   7.
 NSaved= 7 IEnMin= 7 EnMin= -1581.52350848410     IErMin= 7 ErrMin= 3.51D-07
 ErrMax= 3.51D-07 EMaxC= 1.00D-01 BMatC= 1.08D-10 BMatP= 5.92D-10
 IDIUse=1 WtCom= 1.00D+00 WtEn= 0.00D+00
 Coeff-Com:  0.773D-03-0.446D-02-0.912D-02-0.512D-01-0.254D-01 0.288D+00
 Coeff-Com:  0.802D+00
 Coeff:      0.773D-03-0.446D-02-0.912D-02-0.512D-01-0.254D-01 0.288D+00
 Coeff:      0.802D+00
 Gap=     0.253 Goal=   None    Shift=    0.000
 RMSDP=4.26D-08 MaxDP=1.76D-06 DE=-1.06D-09 OVMax= 7.48D-06

 Cycle  15  Pass 1  IDiag  1:
 RMSU=  1.43D-08    CP:  1.00D+00  1.06D+00  6.59D-01  1.24D+00  1.11D+00
                    CP:  1.22D+00  1.05D+00
 FoFJK:  IHMeth= 1 ICntrl=     0 DoSepK=T KAlg= 1 I1Cent= 0 FoldK=F
 E= -1581.52350848437     Delta-E=       -0.000000000267 Rises=F Damp=F
 DIIS: error= 1.23D-07 at cycle   8 NSaved=   8.
 NSaved= 8 IEnMin= 8 EnMin= -1581.52350848437     IErMin= 8 ErrMin= 1.23D-07
 ErrMax= 1.23D-07 EMaxC= 1.00D-01 BMatC= 1.61D-11 BMatP= 1.08D-10
 IDIUse=1 WtCom= 1.00D+00 WtEn= 0.00D+00
 Coeff-Com: -0.479D-04 0.321D-02 0.997D-03-0.225D-01-0.517D-01-0.202D-01
 Coeff-Com:  0.288D+00 0.802D+00
 Coeff:     -0.479D-04 0.321D-02 0.997D-03-0.225D-01-0.517D-01-0.202D-01
 Coeff:      0.288D+00 0.802D+00
 Gap=     0.253 Goal=   None    Shift=    0.000
 RMSDP=1.66D-08 MaxDP=7.28D-07 DE=-2.67D-10 OVMax= 2.94D-06

 Cycle  16  Pass 1  IDiag  1:
 RMSU=  5.87D-09    CP:  1.00D+00  1.06D+00  6.60D-01  1.25D+00  1.13D+00
                    CP:  1.28D+00  1.23D+00  1.05D+00
 FoFJK:  IHMeth= 1 ICntrl=     0 DoSepK=T KAlg= 1 I1Cent= 0 FoldK=F
 E= -1581.52350848438     Delta-E=       -0.000000000007 Rises=F Damp=F
 DIIS: error= 4.95D-08 at cycle   9 NSaved=   9.
 NSaved= 9 IEnMin= 9 EnMin= -1581.52350848438     IErMin= 9 ErrMin= 4.95D-08
 ErrMax= 4.95D-08 EMaxC= 1.00D-01 BMatC= 2.78D-12 BMatP= 1.61D-11
 IDIUse=1 WtCom= 1.00D+00 WtEn= 0.00D+00
 Coeff-Com: -0.146D-03 0.198D-02 0.195D-02-0.155D-03-0.162D-01-0.614D-01
 Coeff-Com: -0.295D-01 0.293D+00 0.810D+00
 Coeff:     -0.146D-03 0.198D-02 0.195D-02-0.155D-03-0.162D-01-0.614D-01
 Coeff:     -0.295D-01 0.293D+00 0.810D+00
 Gap=     0.253 Goal=   None    Shift=    0.000
 RMSDP=7.11D-09 MaxDP=3.12D-07 DE=-7.28D-12 OVMax= 1.40D-06

 SCF Done:  E(RwB97XD) =  -1581.52350848     A.U. after   16 cycles
             Convg  =    0.7110D-08             -V/T =  2.0110
 KE= 1.564322825308D+03 PE=-1.128649321417D+04 EE= 4.331580700066D+03
 Leave Link  502 at Wed Mar 25 12:52:11 2020, MaxMem= 2684354560 cpu:    1163.0
 (Enter /opt/g09gh/gaussian/g09/l601.exe)
 Copying SCF densities to generalized density rwf, IOpCl= 0 IROHF=0.

 **********************************************************************

            Population analysis using the SCF density.

 **********************************************************************

 Orbital symmetries:
       Occupied  (A) (A) (A) (A) (A) (A) (A) (A) (A) (A) (A) (A)
                 (A) (A) (A) (A) (A) (A) (A) (A) (A) (A) (A) (A)
                 (A) (A) (A) (A) (A) (A) (A) (A) (A) (A) (A) (A)
                 (A) (A) (A) (A) (A) (A) (A) (A) (A) (A) (A) (A)
                 (A) (A) (A) (A) (A) (A) (A) (A) (A) (A) (A) (A)
                 (A) (A) (A) (A) (A) (A) (A) (A) (A) (A) (A) (A)
                 (A) (A) (A) (A) (A) (A) (A) (A) (A) (A) (A) (A)
                 (A) (A) (A) (A) (A) (A) (A) (A) (A) (A) (A) (A)
                 (A) (A) (A) (A) (A) (A) (A) (A) (A) (A) (A) (A)
                 (A) (A) (A) (A) (A) (A) (A) (A) (A) (A) (A) (A)
                 (A) (A) (A) (A) (A) (A) (A) (A) (A) (A) (A)
       Virtual   (A) (A) (A) (A) (A) (A) (A) (A) (A) (A) (A) (A)
                 (A) (A) (A) (A) (A) (A) (A) (A) (A) (A) (A) (A)
                 (A) (A) (A) (A) (A) (A) (A) (A) (A) (A) (A) (A)
                 (A) (A) (A) (A) (A) (A) (A) (A) (A) (A) (A) (A)
                 (A) (A) (A) (A) (A) (A) (A) (A) (A) (A) (A) (A)
                 (A) (A) (A) (A) (A) (A) (A) (A) (A) (A) (A) (A)
                 (A) (A) (A) (A) (A) (A) (A) (A) (A) (A) (A) (A)
                 (A) (A) (A) (A) (A) (A) (A) (A) (A) (A) (A) (A)
                 (A) (A) (A) (A) (A) (A) (A) (A) (A) (A) (A) (A)
                 (A) (A) (A) (A) (A) (A) (A) (A) (A) (A) (A) (A)
                 (A) (A) (A) (A) (A) (A) (A) (A) (A) (A) (A) (A)
                 (A) (A) (A) (A) (A) (A) (A) (A) (A) (A) (A) (A)
                 (A) (A) (A) (A) (A) (A) (A) (A) (A) (A) (A) (A)
                 (A) (A) (A) (A) (A) (A) (A) (A) (A) (A) (A) (A)
                 (A) (A) (A) (A) (A) (A) (A) (A) (A) (A) (A) (A)
                 (A) (A) (A) (A) (A) (A) (A) (A) (A) (A) (A) (A)
                 (A) (A) (A) (A) (A) (A) (A) (A) (A) (A) (A) (A)
                 (A) (A) (A) (A) (A) (A) (A) (A) (A) (A) (A) (A)
                 (A) (A) (A) (A) (A) (A) (A) (A) (A) (A) (A) (A)
                 (A) (A) (A) (A) (A) (A) (A) (A) (A) (A) (A) (A)
                 (A) (A) (A) (A) (A) (A) (A) (A) (A) (A) (A) (A)
                 (A) (A) (A) (A) (A) (A) (A) (A) (A) (A) (A) (A)
                 (A) (A) (A) (A) (A) (A) (A) (A) (A) (A) (A) (A)
                 (A) (A) (A) (A) (A) (A) (A) (A) (A) (A) (A) (A)
                 (A) (A) (A) (A) (A) (A) (A) (A) (A) (A) (A) (A)
                 (A) (A) (A) (A) (A) (A) (A) (A) (A) (A) (A) (A)
                 (A) (A) (A) (A) (A) (A) (A) (A) (A) (A) (A) (A)
                 (A) (A) (A) (A) (A) (A) (A) (A) (A) (A) (A) (A)
                 (A) (A) (A) (A) (A) (A) (A) (A) (A) (A) (A) (A)
                 (A) (A) (A) (A) (A) (A) (A) (A) (A) (A) (A) (A)
                 (A) (A) (A) (A) (A) (A) (A) (A) (A) (A) (A) (A)
                 (A) (A) (A) (A) (A) (A) (A) (A) (A) (A) (A) (A)
                 (A) (A) (A) (A) (A) (A) (A) (A) (A) (A) (A) (A)
                 (A) (A) (A) (A) (A) (A) (A) (A) (A) (A) (A) (A)
                 (A) (A) (A) (A) (A) (A) (A) (A) (A) (A) (A) (A)
                 (A) (A) (A) (A) (A) (A) (A) (A) (A) (A) (A) (A)
                 (A) (A) (A) (A) (A) (A) (A) (A) (A) (A) (A) (A)
                 (A) (A) (A) (A) (A) (A) (A) (A) (A) (A) (A) (A)
                 (A) (A) (A) (A) (A) (A) (A) (A) (A) (A) (A) (A)
                 (A) (A) (A) (A) (A) (A) (A) (A) (A) (A) (A) (A)
                 (A) (A) (A) (A) (A) (A)
 The electronic state is 1-A.
 Alpha  occ. eigenvalues --  -19.23574 -14.49550 -14.48929 -14.46778 -14.46588
 Alpha  occ. eigenvalues --  -14.46226 -14.45941 -14.44553 -10.42210 -10.40642
 Alpha  occ. eigenvalues --  -10.38377 -10.36661 -10.36497 -10.36044 -10.35870
 Alpha  occ. eigenvalues --  -10.35802 -10.35607 -10.35405 -10.35294 -10.35032
 Alpha  occ. eigenvalues --  -10.34426 -10.34315 -10.34181 -10.33000 -10.32319
 Alpha  occ. eigenvalues --  -10.31842 -10.31822 -10.31463 -10.31296 -10.31099
 Alpha  occ. eigenvalues --  -10.31043 -10.30872 -10.30856 -10.30377 -10.30276
 Alpha  occ. eigenvalues --  -10.29685 -10.29263  -1.13592  -1.11598  -1.05737
 Alpha  occ. eigenvalues --   -1.03823  -1.03382  -1.03170  -1.00181  -0.99428
 Alpha  occ. eigenvalues --   -0.96104  -0.94587  -0.92572  -0.89469  -0.88092
 Alpha  occ. eigenvalues --   -0.87231  -0.86422  -0.84917  -0.83924  -0.83541
 Alpha  occ. eigenvalues --   -0.81863  -0.79532  -0.77997  -0.77800  -0.76067
 Alpha  occ. eigenvalues --   -0.73534  -0.72859  -0.72486  -0.71784  -0.70582
 Alpha  occ. eigenvalues --   -0.70400  -0.69671  -0.68155  -0.66376  -0.64755
 Alpha  occ. eigenvalues --   -0.63366  -0.62372  -0.61684  -0.60677  -0.60023
 Alpha  occ. eigenvalues --   -0.58668  -0.58340  -0.57109  -0.56534  -0.56249
 Alpha  occ. eigenvalues --   -0.55951  -0.55553  -0.54725  -0.54490  -0.53946
 Alpha  occ. eigenvalues --   -0.53404  -0.52579  -0.52432  -0.52099  -0.51804
 Alpha  occ. eigenvalues --   -0.51486  -0.51419  -0.51069  -0.50803  -0.50400
 Alpha  occ. eigenvalues --   -0.50244  -0.50006  -0.49763  -0.49464  -0.48335
 Alpha  occ. eigenvalues --   -0.47429  -0.46780  -0.46530  -0.46265  -0.46113
 Alpha  occ. eigenvalues --   -0.45453  -0.44673  -0.44214  -0.43962  -0.43663
 Alpha  occ. eigenvalues --   -0.43514  -0.43133  -0.42204  -0.41567  -0.40332
 Alpha  occ. eigenvalues --   -0.40179  -0.38165  -0.37700  -0.37392  -0.35958
 Alpha  occ. eigenvalues --   -0.35371  -0.35233  -0.33886  -0.33680  -0.33429
 Alpha  occ. eigenvalues --   -0.32960  -0.32142  -0.31083  -0.29456  -0.27531
 Alpha  occ. eigenvalues --   -0.26010
 Alpha virt. eigenvalues --   -0.00753   0.02660   0.03061   0.04458   0.05786
 Alpha virt. eigenvalues --    0.07193   0.07459   0.08013   0.09801   0.10203
 Alpha virt. eigenvalues --    0.12396   0.13386   0.13666   0.14262   0.15367
 Alpha virt. eigenvalues --    0.16258   0.17054   0.18019   0.18691   0.19360
 Alpha virt. eigenvalues --    0.19590   0.20092   0.20336   0.20925   0.21921
 Alpha virt. eigenvalues --    0.22497   0.22949   0.23161   0.23446   0.23900
 Alpha virt. eigenvalues --    0.24192   0.24530   0.24667   0.25091   0.25177
 Alpha virt. eigenvalues --    0.25694   0.26187   0.26439   0.26878   0.27093
 Alpha virt. eigenvalues --    0.27575   0.27878   0.28117   0.28479   0.28678
 Alpha virt. eigenvalues --    0.29181   0.29493   0.29542   0.30376   0.30991
 Alpha virt. eigenvalues --    0.31604   0.32021   0.32370   0.33226   0.33638
 Alpha virt. eigenvalues --    0.34277   0.35052   0.36191   0.36607   0.37491
 Alpha virt. eigenvalues --    0.37882   0.38366   0.38998   0.39480   0.39765
 Alpha virt. eigenvalues --    0.39941   0.40780   0.41191   0.41330   0.41694
 Alpha virt. eigenvalues --    0.43782   0.45164   0.45705   0.46076   0.46968
 Alpha virt. eigenvalues --    0.47862   0.49202   0.51375   0.52367   0.53334
 Alpha virt. eigenvalues --    0.55226   0.56032   0.57105   0.57152   0.58241
 Alpha virt. eigenvalues --    0.58321   0.58915   0.59210   0.59667   0.60200
 Alpha virt. eigenvalues --    0.60430   0.60776   0.61362   0.61571   0.61986
 Alpha virt. eigenvalues --    0.62148   0.62794   0.63025   0.63448   0.64027
 Alpha virt. eigenvalues --    0.64189   0.64454   0.64758   0.65069   0.65311
 Alpha virt. eigenvalues --    0.65553   0.65733   0.65983   0.66332   0.66599
 Alpha virt. eigenvalues --    0.66638   0.67345   0.67612   0.68031   0.68367
 Alpha virt. eigenvalues --    0.69109   0.69243   0.69603   0.69669   0.70079
 Alpha virt. eigenvalues --    0.70460   0.70757   0.70841   0.71281   0.71782
 Alpha virt. eigenvalues --    0.72364   0.72644   0.72714   0.73403   0.73799
 Alpha virt. eigenvalues --    0.74170   0.75020   0.75480   0.75634   0.75943
 Alpha virt. eigenvalues --    0.77073   0.77802   0.78450   0.79887   0.80479
 Alpha virt. eigenvalues --    0.80845   0.81408   0.81710   0.82686   0.82942
 Alpha virt. eigenvalues --    0.83622   0.84236   0.84532   0.84956   0.86190
 Alpha virt. eigenvalues --    0.86570   0.87075   0.87422   0.87987   0.88433
 Alpha virt. eigenvalues --    0.88924   0.89210   0.89561   0.90699   0.91214
 Alpha virt. eigenvalues --    0.91345   0.91622   0.91940   0.92307   0.92906
 Alpha virt. eigenvalues --    0.93201   0.93497   0.93629   0.93797   0.94287
 Alpha virt. eigenvalues --    0.94470   0.94838   0.95053   0.95814   0.96543
 Alpha virt. eigenvalues --    0.97256   0.97630   0.98073   0.98661   0.98734
 Alpha virt. eigenvalues --    0.99009   0.99317   0.99599   0.99831   1.00936
 Alpha virt. eigenvalues --    1.01130   1.01660   1.01940   1.02419   1.03075
 Alpha virt. eigenvalues --    1.03634   1.04425   1.05001   1.05418   1.06183
 Alpha virt. eigenvalues --    1.07031   1.07279   1.07487   1.08199   1.08494
[...]
                 (A) (A) (A) (A) (A) (A) (A) (A) (A) (A) (A) (A)
                 (A) (A) (A) (A) (A) (A) (A) (A) (A) (A) (A) (A)
                 (A) (A) (A) (A) (A) (A) (A) (A) (A) (A) (A) (A)
                 (A) (A) (A) (A) (A) (A) (A) (A) (A) (A) (A) (A)
                 (A) (A) (A) (A) (A) (A) (A) (A) (A) (A) (A) (A)
                 (A) (A) (A) (A) (A) (A) (A) (A) (A) (A) (A) (A)
                 (A) (A) (A) (A) (A) (A) (A) (A) (A) (A) (A) (A)
                 (A) (A) (A) (A) (A) (A) (A) (A) (A) (A) (A) (A)
                 (A) (A) (A) (A) (A) (A) (A) (A) (A) (A) (A) (A)
                 (A) (A) (A) (A) (A) (A) (A) (A) (A) (A) (A) (A)
                 (A) (A) (A) (A) (A) (A) (A) (A) (A) (A) (A) (A)
                 (A) (A) (A) (A) (A) (A) (A) (A) (A) (A) (A) (A)
                 (A) (A) (A) (A) (A) (A) (A) (A) (A) (A) (A) (A)
                 (A) (A) (A) (A) (A) (A) (A) (A) (A) (A) (A) (A)
                 (A) (A) (A) (A) (A) (A) (A) (A) (A) (A) (A) (A)
                 (A) (A) (A) (A) (A) (A) (A) (A) (A) (A) (A) (A)
                 (A) (A) (A) (A) (A) (A) (A) (A) (A) (A) (A) (A)
                 (A) (A) (A) (A) (A) (A) (A) (A) (A) (A) (A) (A)
                 (A) (A) (A) (A) (A) (A) (A) (A) (A) (A) (A) (A)
                 (A) (A) (A) (A) (A) (A) (A) (A) (A) (A) (A) (A)
                 (A) (A) (A) (A) (A) (A) (A) (A) (A) (A) (A) (A)
                 (A) (A) (A) (A) (A) (A) (A) (A) (A) (A) (A) (A)
                 (A) (A) (A) (A) (A) (A) (A) (A) (A) (A) (A) (A)
                 (A) (A) (A) (A) (A) (A) (A) (A) (A) (A) (A) (A)
                 (A) (A) (A) (A) (A) (A) (A) (A) (A) (A) (A) (A)
                 (A) (A) (A) (A) (A) (A) (A) (A) (A) (A) (A) (A)
                 (A) (A) (A) (A) (A) (A) (A) (A) (A) (A) (A) (A)
                 (A) (A) (A) (A) (A) (A) (A) (A) (A) (A) (A) (A)
                 (A) (A) (A) (A) (A) (A) (A) (A) (A) (A) (A) (A)
                 (A) (A) (A) (A) (A) (A) (A) (A) (A) (A) (A) (A)
                 (A) (A) (A) (A) (A) (A) (A) (A) (A) (A) (A) (A)
                 (A) (A) (A) (A) (A) (A) (A) (A) (A) (A) (A) (A)
                 (A) (A) (A) (A) (A) (A)
 The electronic state is 1-A.
 Alpha  occ. eigenvalues --  -19.23412 -14.49283 -14.48320 -14.46751 -14.46096
 Alpha  occ. eigenvalues --  -14.45764 -14.43617 -14.43135 -10.41778 -10.40081
 Alpha  occ. eigenvalues --  -10.37615 -10.36338 -10.35325 -10.35085 -10.34623
 Alpha  occ. eigenvalues --  -10.34135 -10.34016 -10.33623 -10.32863 -10.32367
 Alpha  occ. eigenvalues --  -10.31860 -10.31493 -10.31179 -10.30936 -10.30708
 Alpha  occ. eigenvalues --  -10.30688 -10.30677 -10.30586 -10.30534 -10.30403
 Alpha  occ. eigenvalues --  -10.30377 -10.30220 -10.30020 -10.29975 -10.29575
 Alpha  occ. eigenvalues --  -10.28739 -10.28405  -1.13444  -1.12296  -1.06322
 Alpha  occ. eigenvalues --   -1.04565  -1.03829  -1.03634  -1.00716  -0.99558
 Alpha  occ. eigenvalues --   -0.96086  -0.94671  -0.93098  -0.89778  -0.88124
 Alpha  occ. eigenvalues --   -0.87388  -0.86227  -0.85400  -0.84542  -0.83783
 Alpha  occ. eigenvalues --   -0.81888  -0.79581  -0.78270  -0.77798  -0.76320
 Alpha  occ. eigenvalues --   -0.73881  -0.73301  -0.73025  -0.72621  -0.70870
 Alpha  occ. eigenvalues --   -0.70314  -0.69615  -0.68039  -0.66413  -0.65150
 Alpha  occ. eigenvalues --   -0.63657  -0.63408  -0.62228  -0.61762  -0.60211
 Alpha  occ. eigenvalues --   -0.58848  -0.58045  -0.57570  -0.56611  -0.56101
 Alpha  occ. eigenvalues --   -0.55817  -0.55236  -0.55134  -0.54965  -0.54255
 Alpha  occ. eigenvalues --   -0.53867  -0.53239  -0.53154  -0.52612  -0.52174
 Alpha  occ. eigenvalues --   -0.51912  -0.51509  -0.51371  -0.50999  -0.50575
 Alpha  occ. eigenvalues --   -0.50365  -0.50116  -0.49974  -0.49497  -0.48335
 Alpha  occ. eigenvalues --   -0.47217  -0.46907  -0.46619  -0.46319  -0.46211
 Alpha  occ. eigenvalues --   -0.45762  -0.45236  -0.44798  -0.44045  -0.43932
 Alpha  occ. eigenvalues --   -0.43328  -0.43017  -0.42142  -0.41766  -0.41439
 Alpha  occ. eigenvalues --   -0.40964  -0.40777  -0.39912  -0.38187  -0.37592
 Alpha  occ. eigenvalues --   -0.35821  -0.35293  -0.34002  -0.33447  -0.33374
 Alpha  occ. eigenvalues --   -0.32819  -0.31904  -0.30772  -0.29115  -0.27079
 Alpha  occ. eigenvalues --   -0.24996
 Alpha virt. eigenvalues --   -0.00292   0.02872   0.03586   0.04480   0.06433
 Alpha virt. eigenvalues --    0.07258   0.08204   0.10372   0.13887   0.14814
 Alpha virt. eigenvalues --    0.15729   0.16386   0.17252   0.17441   0.18251
 Alpha virt. eigenvalues --    0.19198   0.19759   0.20073   0.20198   0.20628
 Alpha virt. eigenvalues --    0.21233   0.21899   0.22614   0.22767   0.23135
 Alpha virt. eigenvalues --    0.23343   0.23537   0.24192   0.24361   0.24838
 Alpha virt. eigenvalues --    0.25118   0.25125   0.26082   0.26488   0.26551
 Alpha virt. eigenvalues --    0.27065   0.27431   0.27680   0.27996   0.28429
 Alpha virt. eigenvalues --    0.28563   0.28865   0.29436   0.29708   0.30282
 Alpha virt. eigenvalues --    0.31014   0.31164   0.31763   0.32124   0.32246
 Alpha virt. eigenvalues --    0.32892   0.33214   0.33674   0.33954   0.34427
 Alpha virt. eigenvalues --    0.35001   0.36038   0.36538   0.37755   0.38122
 Alpha virt. eigenvalues --    0.38651   0.38809   0.39298   0.40137   0.40738
 Alpha virt. eigenvalues --    0.41233   0.41464   0.42063   0.42207   0.42712
 Alpha virt. eigenvalues --    0.43814   0.45042   0.46208   0.47058   0.47330
 Alpha virt. eigenvalues --    0.48354   0.49428   0.51935   0.53014   0.54229
 Alpha virt. eigenvalues --    0.55738   0.56536   0.57256   0.57912   0.58308
 Alpha virt. eigenvalues --    0.59048   0.59371   0.59611   0.60510   0.60897
 Alpha virt. eigenvalues --    0.61370   0.61485   0.61680   0.62221   0.62697
 Alpha virt. eigenvalues --    0.63199   0.63355   0.63863   0.64089   0.64888
 Alpha virt. eigenvalues --    0.64931   0.65336   0.65507   0.65528   0.65821
 Alpha virt. eigenvalues --    0.66021   0.66271   0.66897   0.66982   0.67471
 Alpha virt. eigenvalues --    0.67615   0.67787   0.68307   0.68614   0.69046
 Alpha virt. eigenvalues --    0.69766   0.70018   0.70550   0.71042   0.71240
 Alpha virt. eigenvalues --    0.71762   0.72091   0.72267   0.72585   0.73055
 Alpha virt. eigenvalues --    0.73334   0.73462   0.74255   0.75225   0.75350
 Alpha virt. eigenvalues --    0.75594   0.75946   0.76256   0.76931   0.77677
 Alpha virt. eigenvalues --    0.77802   0.79111   0.80381   0.80455   0.81763
 Alpha virt. eigenvalues --    0.81972   0.82305   0.83130   0.83263   0.84194
 Alpha virt. eigenvalues --    0.84654   0.85714   0.86630   0.86890   0.87423
 Alpha virt. eigenvalues --    0.88279   0.89047   0.89675   0.90200   0.90739
 Alpha virt. eigenvalues --    0.90925   0.91157   0.91469   0.92208   0.92296
 Alpha virt. eigenvalues --    0.92392   0.92543   0.93562   0.93884   0.94046
 Alpha virt. eigenvalues --    0.94341   0.94529   0.94676   0.95249   0.95604
 Alpha virt. eigenvalues --    0.95949   0.96540   0.97597   0.98197   0.98358
 Alpha virt. eigenvalues --    0.98515   0.99007   0.99060   0.99701   0.99824
 Alpha virt. eigenvalues --    1.00450   1.00623   1.01372   1.01927   1.02022
 Alpha virt. eigenvalues --    1.02499   1.02651   1.03215   1.03673   1.04408
 Alpha virt. eigenvalues --    1.05620   1.05882   1.06645   1.06767   1.07379
 Alpha virt. eigenvalues --    1.07617   1.08218   1.08748   1.08900   1.09055
 Alpha virt. eigenvalues --    1.10209   1.10699   1.11025   1.11715   1.12087
 Alpha virt. eigenvalues --    1.12634   1.13094   1.13795   1.14269   1.15633
 Alpha virt. eigenvalues --    1.16460   1.16987   1.17694   1.18299   1.19270
 Alpha virt. eigenvalues --    1.20082   1.21182   1.21737   1.23135   1.23418
 Alpha virt. eigenvalues --    1.24746   1.25514   1.26100   1.26964   1.27424
 Alpha virt. eigenvalues --    1.29016   1.29354   1.29705   1.30408   1.30875
 Alpha virt. eigenvalues --    1.31926   1.33067   1.33762   1.33901   1.34767
 Alpha virt. eigenvalues --    1.35491   1.36941   1.37299   1.37886   1.38642
 Alpha virt. eigenvalues --    1.39296   1.42344   1.43367   1.43718   1.44583
 Alpha virt. eigenvalues --    1.46488   1.47299   1.47754   1.48439   1.48546
 Alpha virt. eigenvalues --    1.48650   1.49178   1.49464   1.50259   1.51635
 Alpha virt. eigenvalues --    1.51970   1.52736   1.53660   1.54083   1.54532
 Alpha virt. eigenvalues --    1.55184   1.55560   1.56280   1.56872   1.56981
 Alpha virt. eigenvalues --    1.57523   1.57806   1.58457   1.59179   1.59303
 Alpha virt. eigenvalues --    1.59661   1.60104   1.60818   1.61984   1.62521
 Alpha virt. eigenvalues --    1.63914   1.64941   1.65122   1.65692   1.67670
 Alpha virt. eigenvalues --    1.68410   1.69749   1.72015   1.75166   1.76228
 Alpha virt. eigenvalues --    1.78748   1.80598   1.81510   1.82525   1.84275
 Alpha virt. eigenvalues --    1.84719   1.85643   1.86428   1.86959   1.87887
 Alpha virt. eigenvalues --    1.87957   1.88949   1.89940   1.90637   1.90825
 Alpha virt. eigenvalues --    1.91213   1.92462   1.92804   1.93435   1.94264
 Alpha virt. eigenvalues --    1.94426   1.94937   1.95569   1.96612   1.97941
 Alpha virt. eigenvalues --    1.98716   1.99603   2.00120   2.00241   2.01196
 Alpha virt. eigenvalues --    2.01309   2.01498   2.01783   2.02573   2.03679
 Alpha virt. eigenvalues --    2.05535   2.06501   2.06639   2.07328   2.08211
 Alpha virt. eigenvalues --    2.08612   2.08849   2.09736   2.10836   2.11393
 Alpha virt. eigenvalues --    2.12240   2.12579   2.13556   2.14167   2.14817
 Alpha virt. eigenvalues --    2.15877   2.16188   2.17690   2.19547   2.20431
 Alpha virt. eigenvalues --    2.21104   2.21284   2.21688   2.22411   2.22784
 Alpha virt. eigenvalues --    2.22976   2.23632   2.23941   2.24603   2.25134
 Alpha virt. eigenvalues --    2.25943   2.26147   2.26370   2.26887   2.28050
 Alpha virt. eigenvalues --    2.28544   2.29389   2.29953   2.31586   2.32593
 Alpha virt. eigenvalues --    2.34096   2.34927   2.36375   2.37133   2.37172
 Alpha virt. eigenvalues --    2.37914   2.38059   2.38213   2.39475   2.39887
 Alpha virt. eigenvalues --    2.40251   2.40811   2.42122   2.42800   2.43235
 Alpha virt. eigenvalues --    2.43390   2.44333   2.44771   2.44888   2.46219
 Alpha virt. eigenvalues --    2.46453   2.47886   2.48103   2.49417   2.49810
 Alpha virt. eigenvalues --    2.50302   2.50930   2.52051   2.53874   2.56001
 Alpha virt. eigenvalues --    2.58455   2.59878   2.60858   2.62126   2.63400
 Alpha virt. eigenvalues --    2.64708   2.65082   2.65953   2.66090   2.67623
 Alpha virt. eigenvalues --    2.68705   2.70008   2.71799   2.72056   2.72665
 Alpha virt. eigenvalues --    2.74011   2.74384   2.75464   2.76174   2.76865
 Alpha virt. eigenvalues --    2.77167   2.78479   2.78949   2.80940   2.81727
 Alpha virt. eigenvalues --    2.82744   2.83153   2.83723   2.84481   2.85526
 Alpha virt. eigenvalues --    2.86028   2.86478   2.87314   2.88411   2.89257
 Alpha virt. eigenvalues --    2.89963   2.91946   2.92699   2.93386   2.94568
 Alpha virt. eigenvalues --    2.94833   2.96131   2.97874   3.01369   3.02993
 Alpha virt. eigenvalues --    3.04141   3.06692   3.09291   3.10085   3.12017
 Alpha virt. eigenvalues --    3.18949   3.26895   3.29152   3.39172   3.41513
 Alpha virt. eigenvalues --    3.45041   3.53453   3.56407   3.57588   4.12660
 Alpha virt. eigenvalues --    4.13541   4.15201   4.16852   4.18260   4.19133
 Alpha virt. eigenvalues --    4.19562   4.20445   4.21989   4.23543   4.25286
 Alpha virt. eigenvalues --    4.26035   4.27472   4.28698   4.30765   4.31719
 Alpha virt. eigenvalues --    4.33382   4.34589   4.36932   4.40131   4.40369
 Alpha virt. eigenvalues --    4.41612   4.44511   4.46128   4.49151   4.49443
 Alpha virt. eigenvalues --    4.49748   4.52847   4.57342   4.60739   4.61923
 Alpha virt. eigenvalues --    4.64161   4.67479   4.69409   4.79023   4.85075
 Alpha virt. eigenvalues --    4.89518
          Condensed to atoms (all electrons):
 Mulliken atomic charges:
              1
     1  C   -0.197836
     2  C   -0.154404
     3  C    0.035520
     4  C    0.009561
     5  N   -0.437508
     6  C    0.035725
     7  C    0.295148
     8  C   -0.254773
     9  C    0.049022
    10  N   -0.493049
    11  C    0.714406
    12  N   -0.568402
    13  N   -0.802112
    14  C    0.291509
    15  C    0.119853
    16  C   -0.240383
    17  C   -0.191298
    18  C    0.358138
    19  C   -0.269710
    20  N   -0.757927
    21  C    0.585691
    22  C    0.015197
    23  C   -0.205360
    24  C   -0.217898
    25  C    0.155966
    26  C   -0.223077
    27  C   -0.178382
    28  C   -0.263561
    29  N   -0.382231
    30  C   -0.183906
    31  C   -0.181766
    32  N   -0.385713
    33  C   -0.349273
    34  C   -0.182640
    35  C   -0.186516
    36  O   -0.513267
    37  C   -0.607358
    38  H    0.186141
    39  H    0.186728
    40  H    0.198126
    41  H    0.179046
    42  H    0.180747
    43  H    0.189493
    44  H    0.369214
    45  H    0.160819
    46  H    0.213075
    47  H    0.199382
    48  H    0.361557
    49  H    0.185452
    50  H    0.172072
    51  H    0.163617
    52  H    0.195605
    53  H    0.170285
    54  H    0.168918
    55  H    0.148156
    56  H    0.158354
    57  H    0.141652
    58  H    0.174894
    59  H    0.135259
    60  H    0.164117
    61  H    0.167870
    62  H    0.153490
    63  H    0.172929
    64  H    0.159428
    65  H    0.154990
    66  H    0.178037
    67  H    0.182740
    68  H    0.190417
 Sum of Mulliken atomic charges =   0.00000
 Mulliken charges with hydrogens summed into heavy atoms:
              1
     1  C   -0.011694
     2  C    0.032325
     3  C    0.035520
     4  C    0.207687
     5  N   -0.437508
     6  C    0.214771
     7  C    0.295148
     8  C   -0.074026
     9  C    0.238514
    10  N   -0.493049
    11  C    0.714406
    12  N   -0.568402
    13  N   -0.432898
    14  C    0.291509
    15  C    0.119853
    16  C   -0.079564
    17  C    0.021777
    18  C    0.358138
    19  C   -0.070328
    20  N   -0.396370
    21  C    0.585691
    22  C    0.015197
    23  C   -0.019908
    24  C   -0.045825
    25  C    0.155966
    26  C   -0.059460
    27  C    0.017223
    28  C    0.075641
    29  N   -0.382231
    30  C    0.122603
    31  C    0.134779
    32  N   -0.385713
    33  C    0.117973
    34  C    0.143779
    35  C    0.127902
    36  O   -0.513267
    37  C   -0.056163
 Sum of Mulliken charges with hydrogens summed into heavy atoms =   0.00000
 Electronic spatial extent (au):  <R**2>=          21210.7689
 Charge=              0.0000 electrons
 Dipole moment (field-independent basis, Debye):
    X=              0.5793    Y=              6.5722    Z=              0.4351  Tot=              6.6120
 Quadrupole moment (field-independent basis, Debye-Ang):
   XX=           -193.2997   YY=           -202.5126   ZZ=           -220.4854
   XY=              3.1070   XZ=             -1.2789   YZ=             -5.2159
 Traceless Quadrupole moment (field-independent basis, Debye-Ang):
   XX=             12.1329   YY=              2.9199   ZZ=            -15.0528
   XY=              3.1070   XZ=             -1.2789   YZ=             -5.2159
 Octapole moment (field-independent basis, Debye-Ang**2):
  XXX=             80.0366  YYY=            204.4100  ZZZ=             11.3441  XYY=             33.3862
  XXY=            -43.1337  XXZ=             31.6771  XZZ=            -22.7094  YZZ=              1.3352
  YYZ=             17.7865  XYZ=              2.2923
 Hexadecapole moment (field-independent basis, Debye-Ang**3):
 XXXX=         -18568.3576 YYYY=          -7865.5924 ZZZZ=          -1607.5039 XXXY=            -51.0981
 XXXZ=           -102.8520 YYYX=            149.1481 YYYZ=            -76.1771 ZZZX=            -50.0239
 ZZZY=             15.0365 XXYY=          -4005.3538 XXZZ=          -3408.9089 YYZZ=          -1721.4980
 XXYZ=            -52.7456 YYXZ=            -15.8637 ZZXY=            -24.5703
 N-N= 3.895129532436D+03 E-N=-1.146185416204D+04  KE= 1.567155637918D+03
 No NMR shielding tensors so no spin-rotation constants.
 Leave Link  601 at Wed Mar 25 14:51:51 2020, MaxMem= 2684354560 cpu:       3.1
 (Enter /opt/g09gh/gaussian/g09/l9999.exe)
 1\1\GINC-NODE35\FOpt\RwB97XD\6-31G(d)\C29H31N7O1\BDW2292\25-Mar-2020\0
 \\#P opt=(,maxcycle=400) wB97XD/6-31G* MaxDisk=100GB\\MOLECULE0 Rotata
 ble Bond Optimization on node37.bme.utexas.edu\\0,1\C,-0.6444312346,3.
 9171656247,-0.41250427\C,0.6926574356,3.8677409897,-0.0372419213\C,1.5
 482474697,2.9866329959,-0.6963466561\C,1.0006843658,2.1998363599,-1.71
 84524592\N,-0.278744221,2.2343727079,-2.0868062916\C,-1.0810320752,3.0
 803201685,-1.433745509\C,2.9795331,2.8264541203,-0.3350183154\C,3.7397
 279229,3.8138610276,0.2851677362\C,5.0629019647,3.4789399534,0.5706231
 901\N,5.6070096077,2.3056383288,0.278123572\C,4.7888822708,1.426941212
 ,-0.3360388168\N,3.5099518171,1.6408819331,-0.6446320032\N,5.367796335
 7,0.2264806198,-0.6450884463\C,4.8474218022,-0.8796425805,-1.342686907
 4\C,5.748637049,-1.8456958143,-1.8346091812\C,5.2201216452,-2.92167324
 55,-2.5426403212\C,3.858967694,-3.0766396143,-2.798933431\C,2.99012622
 78,-2.1112256937,-2.2993310161\C,3.4836907588,-1.0401889274,-1.5549504
 787\N,1.6010458465,-2.0922888083,-2.5072629983\C,0.8191117776,-2.86802
 07671,-3.3241730374\C,-0.5774792037,-2.3292310599,-3.4565891247\C,-0.8
 349474018,-0.9552741781,-3.478728781\C,-2.1383809882,-0.4873112684,-3.
 5553431226\C,-3.2153148224,-1.3731581331,-3.5874683808\C,-2.9469761401
 ,-2.7444382344,-3.6220774058\C,-1.6428714715,-3.2221757874,-3.56555635
 03\C,-4.6428994,-0.8553862842,-3.5212738811\N,-5.1837639203,-0.5577322
 068,-2.2036572758\C,-4.7242716429,0.6516646777,-1.5289458745\C,-3.5485
 89174,0.4312494672,-0.5596059995\N,-3.7804348022,-0.6590489849,0.38375
 72627\C,-4.7090637181,-0.3259603949,1.4492134671\C,-4.132556655,-1.875
 2857831,-0.3455217286\C,-5.3319140897,-1.6842076744,-1.2887641344\O,1.
 1941466072,-3.8904780994,-3.8729484561\C,7.234448578,-1.7152841999,-1.
 6148734206\H,-1.3399499041,4.5836319022,0.0861188201\H,1.0551824281,4.
 4873224225,0.7779725772\H,1.6463365323,1.5147997979,-2.2620698381\H,-2
 .1243270246,3.0840259704,-1.7420725066\H,3.347579345,4.7950321196,0.52
 23627683\H,5.718438665,4.1979251621,1.0579404843\H,6.3446528997,0.1957
 328847,-0.3940649962\H,5.9062301699,-3.672345377,-2.9268334318\H,3.481
 4460255,-3.9123822761,-3.3719760951\H,2.8017107369,-0.3010329267,-1.16
 28572376\H,1.120060192,-1.3423335122,-2.0330190964\H,-0.0259439535,-0.
 230894816,-3.4574840039\H,-2.3089033283,0.5861946088,-3.5659382815\H,-
 3.7742896224,-3.4484884334,-3.6787078915\H,-1.4345625934,-4.2872324733
 ,-3.5882648275\H,-4.722513399,0.0601354957,-4.119878301\H,-5.308798136
 7,-1.5937288328,-3.986091155\H,-4.4569591064,1.3974487856,-2.287164366
 9\H,-5.5750428523,1.0653560567,-0.9666067988\H,-3.35508473,1.350883175
 1,0.0073693082\H,-2.6374468354,0.1975365952,-1.1214134288\H,-5.7373878
 669,-0.084821049,1.1268035872\H,-4.3245715578,0.5379771285,2.002632563
 9\H,-4.7700756049,-1.1696359411,2.1453174847\H,-4.3466421162,-2.670838
 3017,0.378513742\H,-3.2535731573,-2.1837137133,-0.9233924635\H,-6.2405
 038039,-1.5215584438,-0.6901734809\H,-5.5012517479,-2.5945427639,-1.87
 47183105\H,7.5010682291,-1.7381792459,-0.5493292279\H,7.6299307543,-0.
 7818590589,-2.0360878377\H,7.7681500479,-2.5392483866,-2.0951619909\\V
 ersion=EM64L-G09RevA.02\State=1-A\HF=-1581.7632159\RMSD=9.490e-09\RMSF
 =7.398e-06\Dipole=-0.1738402,2.2359676,1.3180431\Quadrupole=8.1635173,
 3.3131136,-11.4766308,2.9859207,1.3800036,3.3847658\PG=C01 [X(C29H31N7
 O1)]\\@


0EVERYBODY IS IGNORANT, ONLY ON DIFFERENT SUBJECTS.
0          WILL ROGERS
 Job cpu time:  0 days 12 hours 15 minutes  4.1 seconds.
 File lengths (MBytes):  RWF=    244 Int=      0 D2E=      0 Chk=     25 Scr=      1
 Normal termination of Gaussian 09 at Wed Mar 25 14:51:52 2020.
