
    -----------------------------------------------------------------------
          Psi4: An Open-Source Ab Initio Electronic Structure Package
                               Psi4 1.3.2 release

                         Git: Rev {HEAD} ecbda83 


    R. M. Parrish, L. A. Burns, D. G. A. Smith, A. C. Simmonett,
    A. E. DePrince III, E. G. Hohenstein, U. Bozkaya, A. Yu. Sokolov,
    R. Di Remigio, R. M. Richard, J. F. Gonthier, A. M. James,
    H. R. McAlexander, A. Kumar, M. Saitow, X. Wang, B. P. Pritchard,
    P. Verma, H. F. Schaefer III, K. Patkowski, R. A. King, E. F. Valeev,
    F. A. Evangelista, J. M. Turney, T. D. Crawford, and C. D. Sherrill,
    J. Chem. Theory Comput. 13(7) pp 3185--3197 (2017).
    (doi: 10.1021/acs.jctc.7b00174)


                         Additional Contributions by
    P. Kraus, H. Kruse, M. H. Lechner, M. C. Schieber, R. A. Shaw,
    A. Alenaizan, R. Galvelis, Z. L. Glick, S. Lehtola, and J. P. Misiewicz

    -----------------------------------------------------------------------


    Psi4 started on: Tuesday, 14 April 2020 12:43PM

    Process ID: 79733
    Host:       node45.bme.utexas.edu
    PSIDATADIR: /home/bdw2292/miniconda3/envs/p4env/share/psi4
    Memory:     500.0 MiB
    Threads:    1
    
  ==> Input File <==

--------------------------------------------------------------------------
molecule { 
0 1
 C    1.655398    4.956802   -3.287653
 C    2.334275    4.706428   -2.088334
 C    2.797764    3.407531   -1.798878
 C    2.534511    2.421806   -2.782110
 N    1.882418    2.643821   -3.931329
 C    1.454809    3.891962   -4.172027
 C    3.524204    3.043138   -0.529327
 C    3.802806    3.933197    0.523395
 C    4.465606    3.390257    1.630933
 N    4.834973    2.115715    1.729518
 C    4.526957    1.342220    0.671895
 N    3.897056    1.753441   -0.427117
 N    4.906430    0.032394    0.773318
 C    4.187506   -1.180423    0.526990
 C    4.906682   -2.402082    0.362725
 C    4.154521   -3.562081    0.120267
 C    2.759003   -3.578831    0.024022
 C    2.063250   -2.376254    0.194240
 C    2.788078   -1.197373    0.442780
 N    0.640813   -2.231076    0.105194
 C   -0.339022   -3.113912   -0.291205
 C   -1.725868   -2.548032   -0.527083
 C   -1.957617   -1.273109   -1.069296
 C   -3.260527   -0.785316   -1.193216
 C   -4.374806   -1.555610   -0.810272
 C   -4.128736   -2.853174   -0.320575
 C   -2.829373   -3.349037   -0.190586
 C   -5.792977   -0.983395   -0.864729
 N   -6.277048   -0.158213    0.256024
 C   -5.783090    1.229800    0.406682
 C   -4.553363    1.378958    1.340474
 N   -4.739684    0.775608    2.682444
 C   -5.460521    1.581521    3.674203
 C   -5.191869   -0.627890    2.517428
 C   -6.422619   -0.790700    1.587492
 O   -0.133919   -4.308327   -0.436883
 C    6.421676   -2.493578    0.433558
 H    1.290427    5.950065   -3.532130
 H    2.492270    5.534447   -1.401480
 H    2.865894    1.398156   -2.627959
 H    0.931214    4.032792   -5.116131
 H    3.530784    4.981310    0.528614
 H    4.723288    3.995343    2.499742
 H    5.892320   -0.021723    0.980680
 H    4.670461   -4.512503   -0.010496
 H    2.219821   -4.495269   -0.181141
 H    2.264906   -0.258518    0.561595
 H    0.309445   -1.297502    0.302577
 H   -1.113306   -0.664099   -1.383447
 H   -3.406869    0.221228   -1.584613
 H   -4.962326   -3.480275   -0.006024
 H   -2.652647   -4.349820    0.195878
 H   -5.886789   -0.373747   -1.774549
 H   -6.499930   -1.819168   -0.965338
 H   -5.582127    1.707868   -0.638416
 H   -6.894719    2.016241    1.015391
 H   -4.262560    2.719315    1.497525
 H   -3.591029    0.867774    0.850577
 H   -6.504010    1.729819    3.374417
 H   -4.981566    2.561007    3.786097
 H   -5.440284    1.085098    4.651356
 H   -5.436985   -1.127277    3.669047
 H   -4.086757   -1.355541    1.967510
 H   -7.573139   -0.142033    2.251930
 H   -6.714089   -1.965984    1.466351
 H    6.820195   -2.176648    1.408114
 H    6.888880   -1.863129   -0.328258
 H    6.790638   -3.509043    0.266645
}
memory 20GB
set_num_threads(6)
psi4_io.set_default_path("/scratch/bdw2292")
set freeze_core True
E, wfn = energy('mp2/6-311++G**',return_wfn=True)
oeprop(wfn,"WIBERG_LOWDIN_INDICES")
clean()
--------------------------------------------------------------------------

  Memory set to  18.626 GiB by Python driver.
  Threads set to 6 by Python driver.
    SCF Algorithm Type (re)set to DF.

*** tstart() called on node45.bme.utexas.edu
*** at Tue Apr 14 12:43:34 2020

   => Loading Basis Set <=

    Name: 6-311++G**
    Role: ORBITAL
    Keyword: BASIS
    atoms 1-4, 6-9, 11, 14-19, 21-28, 30-31, 33-35, 37 entry C          line   119 file /home/bdw2292/miniconda3/envs/p4env/share/psi4/basis/6-311ppgss.gbs 
    atoms 5, 10, 12-13, 20, 29, 32                     entry N          line   140 file /home/bdw2292/miniconda3/envs/p4env/share/psi4/basis/6-311ppgss.gbs 
    atoms 36                                           entry O          line   161 file /home/bdw2292/miniconda3/envs/p4env/share/psi4/basis/6-311ppgss.gbs 
    atoms 38-68                                        entry H          line    42 file /home/bdw2292/miniconda3/envs/p4env/share/psi4/basis/6-311ppgss.gbs 


         ---------------------------------------------------------
                                   SCF
               by Justin Turney, Rob Parrish, Andy Simmonett
                          and Daniel G. A. Smith
                              RHF Reference
                        6 Threads,  19073 MiB Core
         ---------------------------------------------------------

  ==> Geometry <==

    Molecular point group: c1
    Full point group: C1

    Geometry (in Angstrom), charge = 0, multiplicity = 1:

       Center              X                  Y                   Z               Mass       
    ------------   -----------------  -----------------  -----------------  -----------------
         C            1.520744090114     4.930585103795    -3.198137746850    12.000000000000
         C            2.199621090114     4.680211103795    -1.998818746850    12.000000000000
         C            2.663110090114     3.381314103795    -1.709362746850    12.000000000000
         C            2.399857090114     2.395589103795    -2.692594746850    12.000000000000
         N            1.747764090114     2.617604103795    -3.841813746850    14.003074004430
         C            1.320155090114     3.865745103795    -4.082511746850    12.000000000000
         C            3.389550090114     3.016921103795    -0.439811746850    12.000000000000
         C            3.668152090114     3.906980103795     0.612910253150    12.000000000000
         C            4.330952090114     3.364040103795     1.720448253150    12.000000000000
         N            4.700319090114     2.089498103795     1.819033253150    14.003074004430
         C            4.392303090114     1.316003103795     0.761410253150    12.000000000000
         N            3.762402090114     1.727224103795    -0.337601746850    14.003074004430
         N            4.771776090114     0.006177103795     0.862833253150    14.003074004430
         C            4.052852090114    -1.206639896205     0.616505253150    12.000000000000
         C            4.772028090114    -2.428298896205     0.452240253150    12.000000000000
         C            4.019867090114    -3.588297896205     0.209782253150    12.000000000000
         C            2.624349090114    -3.605047896205     0.113537253150    12.000000000000
         C            1.928596090114    -2.402470896205     0.283755253150    12.000000000000
         C            2.653424090114    -1.223589896205     0.532295253150    12.000000000000
         N            0.506159090114    -2.257292896205     0.194709253150    14.003074004430
         C           -0.473675909886    -3.140128896205    -0.201689746850    12.000000000000
         C           -1.860521909886    -2.574248896205    -0.437567746850    12.000000000000
         C           -2.092270909886    -1.299325896205    -0.979780746850    12.000000000000
         C           -3.395180909886    -0.811532896205    -1.103700746850    12.000000000000
         C           -4.509459909886    -1.581826896205    -0.720756746850    12.000000000000
         C           -4.263389909886    -2.879390896205    -0.231059746850    12.000000000000
         C           -2.964026909886    -3.375253896205    -0.101070746850    12.000000000000
         C           -5.927630909886    -1.009611896205    -0.775213746850    12.000000000000
         N           -6.411701909886    -0.184429896205     0.345539253150    14.003074004430
         C           -5.917743909886     1.203583103795     0.496197253150    12.000000000000
         C           -4.688016909886     1.352741103795     1.429989253150    12.000000000000
         N           -4.874337909886     0.749391103795     2.771959253150    14.003074004430
         C           -5.595174909886     1.555304103795     3.763718253150    12.000000000000
         C           -5.326522909886    -0.654106896205     2.606943253150    12.000000000000
         C           -6.557272909886    -0.816916896205     1.677007253150    12.000000000000
         O           -0.268572909886    -4.334543896205    -0.347367746850    15.994914619570
         C            6.287022090114    -2.519794896205     0.523073253150    12.000000000000
         H            1.155773090114     5.923848103795    -3.442614746850     1.007825032230
         H            2.357616090114     5.508230103795    -1.311964746850     1.007825032230
         H            2.731240090114     1.371939103795    -2.538443746850     1.007825032230
         H            0.796560090114     4.006575103795    -5.026615746850     1.007825032230
         H            3.396130090114     4.955093103795     0.618129253150     1.007825032230
         H            4.588634090114     3.969126103795     2.589257253150     1.007825032230
         H            5.757666090114    -0.047939896205     1.070195253150     1.007825032230
         H            4.535807090114    -4.538719896205     0.079019253150     1.007825032230
         H            2.085167090114    -4.521485896205    -0.091625746850     1.007825032230
         H            2.130252090114    -0.284734896205     0.651110253150     1.007825032230
         H            0.174791090114    -1.323718896205     0.392092253150     1.007825032230
         H           -1.247959909886    -0.690315896205    -1.293931746850     1.007825032230
         H           -3.541522909886     0.195011103795    -1.495097746850     1.007825032230
         H           -5.096979909886    -3.506491896205     0.083491253150     1.007825032230
         H           -2.787300909886    -4.376036896205     0.285393253150     1.007825032230
         H           -6.021442909886    -0.399963896205    -1.685033746850     1.007825032230
         H           -6.634583909886    -1.845384896205    -0.875822746850     1.007825032230
         H           -5.716780909886     1.681651103795    -0.548900746850     1.007825032230
         H           -7.029372909886     1.990024103795     1.104906253150     1.007825032230
         H           -4.397213909886     2.693098103795     1.587040253150     1.007825032230
         H           -3.725682909886     0.841557103795     0.940092253150     1.007825032230
         H           -6.638663909886     1.703602103795     3.463932253150     1.007825032230
         H           -5.116219909886     2.534790103795     3.875612253150     1.007825032230
         H           -5.574937909886     1.058881103795     4.740871253150     1.007825032230
         H           -5.571638909886    -1.153493896205     3.758562253150     1.007825032230
         H           -4.221410909886    -1.381757896205     2.057025253150     1.007825032230
         H           -7.707792909886    -0.168249896205     2.341445253150     1.007825032230
         H           -6.848742909886    -1.992200896205     1.555866253150     1.007825032230
         H            6.685541090114    -2.202864896205     1.497629253150     1.007825032230
         H            6.754226090114    -1.889345896205    -0.238742746850     1.007825032230
         H            6.655984090114    -3.535259896205     0.356160253150     1.007825032230

  Running in c1 symmetry.

  Rotational constants: A =      0.00371  B =      0.00176  C =      0.00145 [cm^-1]
  Rotational constants: A =    111.19695  B =     52.88235  C =     43.57212 [MHz]
  Nuclear repulsion = 3669.813769962763672

  Charge       = 0
  Multiplicity = 1
  Electrons    = 262
  Nalpha       = 131
  Nbeta        = 131

  ==> Algorithm <==

  SCF Algorithm Type is DF.
  DIIS enabled.
  MOM disabled.
  Fractional occupation disabled.
  Guess Type is SAD.
  Energy threshold   = 1.00e-08
  Density threshold  = 1.00e-08
  Integral threshold = 0.00e+00

  ==> Primary Basis <==

  Basis Set: 6-311++G**
    Blend: 6-311++G**
    Number of shells: 525
    Number of basis function: 1031
    Number of Cartesian functions: 1068
    Spherical Harmonics?: true
    Max angular momentum: 2

   => Loading Basis Set <=

    Name: (6-311++G** AUX)
    Role: JKFIT
    Keyword: DF_BASIS_SCF
    atoms 1-4, 6-9, 11, 14-19, 21-28, 30-31, 33-35, 37 entry C          line   162 file /home/bdw2292/miniconda3/envs/p4env/share/psi4/basis/aug-cc-pvtz-jkfit.gbs 
    atoms 5, 10, 12-13, 20, 29, 32                     entry N          line   224 file /home/bdw2292/miniconda3/envs/p4env/share/psi4/basis/aug-cc-pvtz-jkfit.gbs 
    atoms 36                                           entry O          line   286 file /home/bdw2292/miniconda3/envs/p4env/share/psi4/basis/aug-cc-pvtz-jkfit.gbs 
    atoms 38-68                                        entry H          line    70 file /home/bdw2292/miniconda3/envs/p4env/share/psi4/basis/aug-cc-pvtz-jkfit.gbs 

  ==> Pre-Iterations <==

   -------------------------------------------------------
    Irrep   Nso     Nmo     Nalpha   Nbeta   Ndocc  Nsocc
   -------------------------------------------------------
     A       1031    1031       0       0       0       0
   -------------------------------------------------------
    Total    1031    1031     131     131     131       0
   -------------------------------------------------------

  ==> Integral Setup <==

  ==> DiskDFJK: Density-Fitted J/K Matrices <==

    J tasked:                  Yes
    K tasked:                  Yes
    wK tasked:                  No
    OpenMP threads:              6
    Integrals threads:           6
    Memory [MiB]:            14305
    Algorithm:                Core
    Integral Cache:           NONE
    Schwarz Cutoff:          1E-12
    Fitting Condition:       1E-10

   => Auxiliary Basis Set <=

  Basis Set: (6-311++G** AUX)
    Blend: AUG-CC-PVTZ-JKFIT
    Number of shells: 1544
    Number of basis function: 5274
    Number of Cartesian functions: 6552
    Spherical Harmonics?: true
    Max angular momentum: 4

  Minimum eigenvalue in the overlap matrix is 1.4201387938E-07.
  Using Symmetric Orthogonalization.

  SCF Guess: Superposition of Atomic Densities via on-the-fly atomic UHF.

  ==> Iterations <==

                           Total Energy        Delta E     RMS |[F,P]|

   @DF-RHF iter SAD: -1571.21572396784723   -1.57122e+03   0.00000e+00 
   @DF-RHF iter   1: -1571.37074318414602   -1.55019e-01   1.21769e-03 DIIS
   @DF-RHF iter   2: -1572.13823830686556   -7.67495e-01   6.44033e-04 DIIS
   @DF-RHF iter   3: -1572.33289036780911   -1.94652e-01   1.65427e-04 DIIS
   @DF-RHF iter   4: -1572.34996235517042   -1.70720e-02   6.53243e-05 DIIS
   @DF-RHF iter   5: -1572.35253363152651   -2.57128e-03   1.33161e-05 DIIS
   @DF-RHF iter   6: -1572.35268079334355   -1.47162e-04   5.77699e-06 DIIS
   @DF-RHF iter   7: -1572.35271371996691   -3.29266e-05   1.88497e-06 DIIS
   @DF-RHF iter   8: -1572.35271895798724   -5.23802e-06   7.59527e-07 DIIS
   @DF-RHF iter   9: -1572.35271985178315   -8.93796e-07   3.04782e-07 DIIS
   @DF-RHF iter  10: -1572.35272003402679   -1.82244e-07   1.42060e-07 DIIS
   @DF-RHF iter  11: -1572.35272007180015   -3.77734e-08   6.85891e-08 DIIS
   @DF-RHF iter  12: -1572.35272008200354   -1.02034e-08   2.85480e-08 DIIS
   @DF-RHF iter  13: -1572.35272008423817   -2.23463e-09   1.26316e-08 DIIS
   @DF-RHF iter  14: -1572.35272008457946   -3.41288e-10   5.94066e-09 DIIS
  Energy and wave function converged.


  ==> Post-Iterations <==

    Orbital Energies [Eh]
    ---------------------

    Doubly Occupied:                                                      

       1A    -20.524654     2A    -15.604429     3A    -15.585255  
       4A    -15.578648     5A    -15.575132     6A    -15.574033  
       7A    -15.572279     8A    -15.556761     9A    -11.367644  
      10A    -11.366070    11A    -11.332175    12A    -11.316068  
      13A    -11.311997    14A    -11.311530    15A    -11.311515  
      16A    -11.300815    17A    -11.300540    18A    -11.294979  
      19A    -11.294684    20A    -11.292386    21A    -11.285031  
      22A    -11.281440    23A    -11.275033    24A    -11.263039  
      25A    -11.262059    26A    -11.261470    27A    -11.260561  
      28A    -11.258017    29A    -11.254753    30A    -11.253158  
      31A    -11.250656    32A    -11.247487    33A    -11.242143  
      34A    -11.238146    35A    -11.233977    36A    -11.231692  
      37A    -11.220943    38A     -1.389696    39A     -1.346560  
      40A     -1.271168    41A     -1.252190    42A     -1.247828  
      43A     -1.241336    44A     -1.210822    45A     -1.201897  
      46A     -1.167297    47A     -1.138753    48A     -1.111658  
      49A     -1.073084    50A     -1.062668    51A     -1.044653  
      52A     -1.037679    53A     -1.030023    54A     -1.005840  
      55A     -0.995047    56A     -0.979745    57A     -0.946734  
      58A     -0.930051    59A     -0.923384    60A     -0.900293  
      61A     -0.868090    62A     -0.867300    63A     -0.853663  
      64A     -0.847286    65A     -0.835939    66A     -0.829204  
      67A     -0.824070    68A     -0.808551    69A     -0.779834  
      70A     -0.753003    71A     -0.738919    72A     -0.731054  
      73A     -0.717436    74A     -0.711879    75A     -0.704588  
      76A     -0.680735    77A     -0.675811    78A     -0.666374  
      79A     -0.661610    80A     -0.655680    81A     -0.651285  
      82A     -0.644733    83A     -0.638642    84A     -0.635969  
      85A     -0.623574    86A     -0.616069    87A     -0.611685  
      88A     -0.608020    89A     -0.606557    90A     -0.601357  
      91A     -0.599888    92A     -0.593934    93A     -0.589942  
      94A     -0.587594    95A     -0.582667    96A     -0.581228  
      97A     -0.579151    98A     -0.576928    99A     -0.567343  
     100A     -0.551909   101A     -0.546279   102A     -0.539586  
     103A     -0.534196   104A     -0.531536   105A     -0.528080  
     106A     -0.522385   107A     -0.511884   108A     -0.511145  
     109A     -0.507657   110A     -0.505012   111A     -0.502877  
     112A     -0.500020   113A     -0.489163   114A     -0.473528  
     115A     -0.454749   116A     -0.449000   117A     -0.438361  
     118A     -0.435924   119A     -0.429838   120A     -0.422922  
     121A     -0.414179   122A     -0.413988   123A     -0.397508  
     124A     -0.385010   125A     -0.377053   126A     -0.351196  
     127A     -0.347618   128A     -0.341075   129A     -0.317267  
     130A     -0.314835   131A     -0.288416  

    Virtual:                                                              

     132A      0.025104   133A      0.035758   134A      0.039604  
     135A      0.043046   136A      0.043700   137A      0.045581  
     138A      0.047218   139A      0.049652   140A      0.052382  
     141A      0.059026   142A      0.062101   143A      0.064307  
     144A      0.065657   145A      0.065865   146A      0.068075  
     147A      0.072015   148A      0.072850   149A      0.074956  
     150A      0.078688   151A      0.080215   152A      0.083627  
     153A      0.087129   154A      0.089426   155A      0.092774  
     156A      0.093198   157A      0.096715   158A      0.098986  
     159A      0.101387   160A      0.104002   161A      0.104762  
     162A      0.107146   163A      0.108141   164A      0.111183  
     165A      0.113685   166A      0.118749   167A      0.119754  
     168A      0.122627   169A      0.124572   170A      0.128803  
     171A      0.130390   172A      0.132665   173A      0.135731  
     174A      0.138697   175A      0.140499   176A      0.143642  
     177A      0.144356   178A      0.148034   179A      0.150677  
     180A      0.151429   181A      0.153927   182A      0.154519  
     183A      0.156006   184A      0.160086   185A      0.161132  
     186A      0.164628   187A      0.165397   188A      0.167385  
     189A      0.171942   190A      0.173095   191A      0.174679  
     192A      0.176552   193A      0.177640   194A      0.178418  
     195A      0.179622   196A      0.181438   197A      0.182668  
     198A      0.183856   199A      0.186684   200A      0.187538  
     201A      0.188738   202A      0.189364   203A      0.189882  
     204A      0.193253   205A      0.196238   206A      0.197031  
     207A      0.199323   208A      0.200815   209A      0.201502  
     210A      0.206254   211A      0.207464   212A      0.209275  
     213A      0.209619   214A      0.212616   215A      0.214287  
     216A      0.215118   217A      0.216791   218A      0.217521  
     219A      0.219488   220A      0.220305   221A      0.223550  
     222A      0.225246   223A      0.227382   224A      0.229650  
     225A      0.230295   226A      0.233356   227A      0.234435  
     228A      0.235503   229A      0.237232   230A      0.237976  
     231A      0.240045   232A      0.241043   233A      0.245489  
     234A      0.246393   235A      0.248045   236A      0.253481  
     237A      0.256039   238A      0.258240   239A      0.259379  
     240A      0.261141   241A      0.261392   242A      0.264495  
     243A      0.267964   244A      0.270848   245A      0.271575  
     246A      0.275280   247A      0.277414   248A      0.279045  
     249A      0.283437   250A      0.284454   251A      0.286742  
     252A      0.289115   253A      0.290018   254A      0.292566  
     255A      0.293876   256A      0.298384   257A      0.302919  
     258A      0.304107   259A      0.306834   260A      0.309409  
     261A      0.313662   262A      0.314412   263A      0.315430  
     264A      0.321146   265A      0.322375   266A      0.325020  
     267A      0.327187   268A      0.328507   269A      0.331688  
     270A      0.331951   271A      0.334475   272A      0.338130  
     273A      0.338730   274A      0.341307   275A      0.342643  
     276A      0.345620   277A      0.347418   278A      0.348277  
     279A      0.349860   280A      0.354069   281A      0.355757  
     282A      0.357467   283A      0.361429   284A      0.362022  
     285A      0.364530   286A      0.366391   287A      0.367809  
     288A      0.369875   289A      0.370605   290A      0.372759  
     291A      0.375953   292A      0.376086   293A      0.377069  
     294A      0.379809   295A      0.380072   296A      0.383510  
     297A      0.386079   298A      0.387582   299A      0.388643  
     300A      0.390634   301A      0.390988   302A      0.393869  
     303A      0.395357   304A      0.397553   305A      0.401468  
     306A      0.401733   307A      0.403035   308A      0.404904  
     309A      0.406077   310A      0.408479   311A      0.409232  
     312A      0.410987   313A      0.413050   314A      0.415365  
     315A      0.416932   316A      0.417796   317A      0.418980  
     318A      0.420461   319A      0.422012   320A      0.425187  
     321A      0.427741   322A      0.429220   323A      0.433326  
     324A      0.434445   325A      0.435700   326A      0.438538  
     327A      0.440692   328A      0.441143   329A      0.442200  
     330A      0.446451   331A      0.449346   332A      0.451432  
     333A      0.452053   334A      0.455879   335A      0.458170  
     336A      0.462855   337A      0.463926   338A      0.465172  
     339A      0.469994   340A      0.471567   341A      0.472667  
     342A      0.475918   343A      0.476680   344A      0.479491  
     345A      0.483733   346A      0.485027   347A      0.489997  
     348A      0.493041   349A      0.495348   350A      0.497395  
     351A      0.500338   352A      0.501534   353A      0.503062  
     354A      0.504937   355A      0.509485   356A      0.510791  
     357A      0.512328   358A      0.516368   359A      0.519009  
     360A      0.522255   361A      0.524929   362A      0.529260  
     363A      0.531230   364A      0.535718   365A      0.540492  
     366A      0.541439   367A      0.543791   368A      0.545534  
     369A      0.551134   370A      0.557326   371A      0.561439  
     372A      0.566371   373A      0.570767   374A      0.573780  
     375A      0.583696   376A      0.586715   377A      0.594536  
     378A      0.600326   379A      0.604608   380A      0.609454  
     381A      0.612606   382A      0.618566   383A      0.621878  
     384A      0.626855   385A      0.635993   386A      0.643595  
     387A      0.647798   388A      0.657068   389A      0.663364  
     390A      0.681061   391A      0.687515   392A      0.694462  
     393A      0.696486   394A      0.702020   395A      0.705721  
     396A      0.711007   397A      0.712725   398A      0.724039  
     399A      0.727087   400A      0.734932   401A      0.737876  
     402A      0.740553   403A      0.743515   404A      0.749664  
     405A      0.754067   406A      0.758572   407A      0.760867  
     408A      0.764554   409A      0.765075   410A      0.769172  
     411A      0.772081   412A      0.779151   413A      0.782263  
     414A      0.783359   415A      0.786074   416A      0.791045  
     417A      0.793844   418A      0.798244   419A      0.800362  
     420A      0.803520   421A      0.805527   422A      0.807238  
     423A      0.813145   424A      0.815793   425A      0.823063  
     426A      0.826791   427A      0.828500   428A      0.832632  
     429A      0.834176   430A      0.840911   431A      0.844347  
     432A      0.850162   433A      0.853245   434A      0.855069  
     435A      0.860059   436A      0.864204   437A      0.866912  
     438A      0.869476   439A      0.872708   440A      0.874527  
     441A      0.879366   442A      0.881656   443A      0.883874  
     444A      0.885435   445A      0.886996   446A      0.890594  
     447A      0.896549   448A      0.897782   449A      0.903257  
     450A      0.906530   451A      0.912559   452A      0.914902  
     453A      0.917850   454A      0.918404   455A      0.924592  
     456A      0.925966   457A      0.929064   458A      0.931285  
     459A      0.934394   460A      0.935786   461A      0.938871  
     462A      0.944219   463A      0.945545   464A      0.952386  
     465A      0.955278   466A      0.957729   467A      0.959156  
     468A      0.963820   469A      0.968080   470A      0.970163  
     471A      0.971746   472A      0.972692   473A      0.975721  
     474A      0.977698   475A      0.983588   476A      0.987100  
     477A      0.993633   478A      0.994988   479A      0.995864  
     480A      0.999898   481A      1.002929   482A      1.008288  
     483A      1.014078   484A      1.021109   485A      1.022999  
     486A      1.026138   487A      1.031754   488A      1.037370  
     489A      1.037901   490A      1.044139   491A      1.049082  
     492A      1.051483   493A      1.058912   494A      1.059448  
     495A      1.064078   496A      1.064507   497A      1.074009  
     498A      1.081698   499A      1.082354   500A      1.088135  
     501A      1.089798   502A      1.095164   503A      1.096359  
     504A      1.100626   505A      1.109148   506A      1.120692  
     507A      1.122158   508A      1.127490   509A      1.137506  
     510A      1.138542   511A      1.140787   512A      1.145753  
     513A      1.149331   514A      1.153897   515A      1.157145  
     516A      1.159283   517A      1.163756   518A      1.168586  
     519A      1.174060   520A      1.175573   521A      1.177605  
     522A      1.185421   523A      1.187552   524A      1.189652  
     525A      1.193684   526A      1.197691   527A      1.200459  
     528A      1.205602   529A      1.209339   530A      1.212012  
     531A      1.216666   532A      1.218069   533A      1.222140  
     534A      1.224543   535A      1.227154   536A      1.231823  
     537A      1.235126   538A      1.238536   539A      1.244486  
     540A      1.248614   541A      1.251898   542A      1.255567  
     543A      1.257928   544A      1.262791   545A      1.268563  
     546A      1.276169   547A      1.279564   548A      1.283135  
     549A      1.283894   550A      1.289259   551A      1.293074  
     552A      1.294816   553A      1.302330   554A      1.305658  
     555A      1.309364   556A      1.315729   557A      1.320873  
     558A      1.336430   559A      1.339486   560A      1.343379  
     561A      1.353019   562A      1.355055   563A      1.363886  
     564A      1.373147   565A      1.378418   566A      1.383515  
     567A      1.391866   568A      1.401971   569A      1.409287  
     570A      1.417718   571A      1.423878   572A      1.432074  
     573A      1.434868   574A      1.439411   575A      1.441634  
     576A      1.447196   577A      1.459107   578A      1.463475  
     579A      1.464318   580A      1.470516   581A      1.489078  
     582A      1.494821   583A      1.502624   584A      1.512766  
     585A      1.518776   586A      1.525065   587A      1.534485  
     588A      1.540879   589A      1.551475   590A      1.562376  
     591A      1.566904   592A      1.581450   593A      1.590347  
     594A      1.598572   595A      1.607694   596A      1.619417  
     597A      1.623317   598A      1.625036   599A      1.645604  
     600A      1.647576   601A      1.660593   602A      1.666326  
     603A      1.671429   604A      1.677051   605A      1.687824  
     606A      1.701803   607A      1.710286   608A      1.718597  
     609A      1.722620   610A      1.736912   611A      1.740433  
     612A      1.742738   613A      1.747390   614A      1.754067  
     615A      1.755162   616A      1.757485   617A      1.768413  
     618A      1.769659   619A      1.770186   620A      1.779113  
     621A      1.784084   622A      1.789438   623A      1.792862  
     624A      1.801760   625A      1.809912   626A      1.810300  
     627A      1.813234   628A      1.814830   629A      1.820332  
     630A      1.821943   631A      1.825983   632A      1.830003  
     633A      1.833399   634A      1.835010   635A      1.844078  
     636A      1.850592   637A      1.852916   638A      1.855667  
     639A      1.858416   640A      1.860775   641A      1.863935  
     642A      1.866342   643A      1.872587   644A      1.875940  
     645A      1.886023   646A      1.893887   647A      1.898944  
     648A      1.900204   649A      1.902581   650A      1.911247  
     651A      1.919487   652A      1.924416   653A      1.931023  
     654A      1.936499   655A      1.940973   656A      1.945045  
     657A      1.953458   658A      1.955152   659A      1.960609  
     660A      1.966318   661A      1.968116   662A      1.971425  
     663A      1.977866   664A      1.981677   665A      1.982514  
     666A      1.987998   667A      1.990074   668A      1.995747  
     669A      2.003411   670A      2.007840   671A      2.009984  
     672A      2.015535   673A      2.018625   674A      2.026961  
     675A      2.027550   676A      2.029495   677A      2.031752  
     678A      2.045397   679A      2.052911   680A      2.055294  
     681A      2.060136   682A      2.063161   683A      2.067605  
     684A      2.074652   685A      2.075536   686A      2.084800  
     687A      2.091328   688A      2.093197   689A      2.099243  
     690A      2.105795   691A      2.107677   692A      2.119303  
     693A      2.126173   694A      2.134047   695A      2.145703  
     696A      2.148095   697A      2.152747   698A      2.165982  
     699A      2.171942   700A      2.176227   701A      2.179232  
     702A      2.187254   703A      2.190566   704A      2.195658  
     705A      2.199709   706A      2.203769   707A      2.206389  
     708A      2.216194   709A      2.224164   710A      2.234253  
     711A      2.236304   712A      2.240172   713A      2.245465  
     714A      2.248476   715A      2.250295   716A      2.252657  
     717A      2.257182   718A      2.261500   719A      2.268429  
     720A      2.271105   721A      2.275113   722A      2.285392  
     723A      2.290620   724A      2.294187   725A      2.297009  
     726A      2.305572   727A      2.309096   728A      2.318310  
     729A      2.320797   730A      2.329126   731A      2.332157  
     732A      2.342070   733A      2.352371   734A      2.356714  
     735A      2.358690   736A      2.363597   737A      2.371012  
     738A      2.378037   739A      2.389643   740A      2.395208  
     741A      2.396926   742A      2.401877   743A      2.406771  
     744A      2.422711   745A      2.427463   746A      2.437621  
     747A      2.441275   748A      2.445242   749A      2.466328  
     750A      2.469073   751A      2.473489   752A      2.479863  
     753A      2.490801   754A      2.500325   755A      2.507133  
     756A      2.518387   757A      2.519102   758A      2.525909  
     759A      2.533437   760A      2.540853   761A      2.558084  
     762A      2.563956   763A      2.570463   764A      2.583313  
     765A      2.592162   766A      2.595246   767A      2.622201  
     768A      2.626005   769A      2.638283   770A      2.641203  
     771A      2.646413   772A      2.664022   773A      2.667763  
     774A      2.683798   775A      2.696349   776A      2.700145  
     777A      2.707399   778A      2.718293   779A      2.720554  
     780A      2.725676   781A      2.741527   782A      2.758488  
     783A      2.768548   784A      2.770645   785A      2.783351  
     786A      2.791580   787A      2.795186   788A      2.799587  
     789A      2.805882   790A      2.812276   791A      2.819018  
     792A      2.827470   793A      2.832935   794A      2.836328  
     795A      2.845043   796A      2.849671   797A      2.861898  
     798A      2.864775   799A      2.868797   800A      2.875964  
     801A      2.877992   802A      2.886200   803A      2.894501  
     804A      2.902260   805A      2.929594   806A      2.931021  
     807A      2.935443   808A      2.942960   809A      2.962993  
     810A      2.965282   811A      2.969182   812A      2.971131  
     813A      2.974536   814A      2.979117   815A      2.983267  
     816A      2.985675   817A      2.995086   818A      3.004491  
     819A      3.005631   820A      3.017035   821A      3.026286  
     822A      3.026420   823A      3.031397   824A      3.041013  
     825A      3.041987   826A      3.056590   827A      3.058607  
     828A      3.064955   829A      3.075731   830A      3.079279  
     831A      3.083829   832A      3.092747   833A      3.094211  
     834A      3.102896   835A      3.104182   836A      3.105431  
     837A      3.111873   838A      3.113223   839A      3.120733  
     840A      3.122087   841A      3.129862   842A      3.130820  
     843A      3.133084   844A      3.141072   845A      3.145467  
     846A      3.156158   847A      3.162259   848A      3.166163  
     849A      3.182052   850A      3.185701   851A      3.203493  
     852A      3.209718   853A      3.212622   854A      3.216462  
     855A      3.225197   856A      3.229165   857A      3.242391  
     858A      3.245335   859A      3.251912   860A      3.254914  
     861A      3.266256   862A      3.267494   863A      3.271629  
     864A      3.280931   865A      3.284564   866A      3.285704  
     867A      3.288936   868A      3.298540   869A      3.299773  
     870A      3.301518   871A      3.309750   872A      3.318320  
     873A      3.323489   874A      3.332536   875A      3.334435  
     876A      3.339092   877A      3.341655   878A      3.348530  
     879A      3.357059   880A      3.370253   881A      3.372045  
     882A      3.376993   883A      3.383566   884A      3.394843  
     885A      3.399923   886A      3.400331   887A      3.411490  
     888A      3.419339   889A      3.423742   890A      3.436440  
     891A      3.451313   892A      3.461660   893A      3.484578  
     894A      3.516046   895A      3.521529   896A      3.534134  
     897A      3.579202   898A      3.590778   899A      3.598491  
     900A      3.600330   901A      3.610836   902A      3.631479  
     903A      3.652756   904A      3.664743   905A      3.665434  
     906A      3.674935   907A      3.685601   908A      3.701013  
     909A      3.759970   910A      3.762861   911A      3.772129  
     912A      3.777559   913A      3.796529   914A      3.798714  
     915A      3.812521   916A      3.834148   917A      3.841415  
     918A      3.855622   919A      3.865464   920A      3.876290  
     921A      3.887317   922A      3.889686   923A      3.906970  
     924A      3.912783   925A      3.922781   926A      3.934641  
     927A      3.950873   928A      3.958771   929A      3.962925  
     930A      3.972422   931A      3.982395   932A      4.002615  
     933A      4.041894   934A      4.049920   935A      4.057183  
     936A      4.077713   937A      4.082139   938A      4.096925  
     939A      4.104218   940A      4.127496   941A      4.134167  
     942A      4.166279   943A      4.170044   944A      4.185947  
     945A      4.193024   946A      4.198055   947A      4.204995  
     948A      4.222430   949A      4.248962   950A      4.298935  
     951A      4.346026   952A      4.347162   953A      4.364447  
     954A      4.393415   955A      4.419000   956A      4.426225  
     957A      4.428672   958A      4.431959   959A      4.442670  
     960A      4.456351   961A      4.459801   962A      4.502709  
     963A      4.515812   964A      4.544662   965A      4.556204  
     966A      4.574211   967A      4.575571   968A      4.600640  
     969A      4.626169   970A      4.668182   971A      4.702837  
     972A      4.764014   973A      4.769381   974A      4.784495  
     975A      4.909041   976A      4.920829   977A      4.986069  
     978A      5.046208   979A      5.213872   980A      5.255391  
     981A      5.263213   982A      5.268017   983A      5.290327  
     984A      5.326362   985A      5.345421   986A      5.381921  
     987A      5.433238   988A      5.600330   989A      5.691506  
     990A      5.695308   991A      5.754007   992A      5.837122  
     993A      5.865007   994A      6.391788   995A     24.769072  
     996A     24.778789   997A     24.812246   998A     24.823710  
     999A     24.843379  1000A     24.850801  1001A     24.945048  
    1002A     24.948303  1003A     25.011533  1004A     25.037847  
    1005A     25.043224  1006A     25.074568  1007A     25.078203  
    1008A     25.091350  1009A     25.099071  1010A     25.113180  
    1011A     25.116375  1012A     25.132308  1013A     25.135295  
    1014A     25.144783  1015A     25.172106  1016A     25.201526  
    1017A     25.208962  1018A     25.230502  1019A     25.240519  
    1020A     25.247167  1021A     25.251044  1022A     25.314372  
    1023A     25.327564  1024A     36.944879  1025A     36.984128  
    1026A     37.015158  1027A     37.065344  1028A     37.079089  
    1029A     37.134279  1030A     37.162369  1031A     51.757268  

    Final Occupation by Irrep:
              A 
    DOCC [   131 ]

  @DF-RHF Final Energy: -1572.35272008457946

   => Energetics <=

    Nuclear Repulsion Energy =           3669.8137699627636721
    One-Electron Energy =               -9437.8502083707571728
    Two-Electron Energy =                4195.6837183234138138
    Total Energy =                      -1572.3527200845792322

Computation Completed


Properties will be evaluated at   0.000000,   0.000000,   0.000000 [a0]

Properties computed using the SCF density matrix

  Nuclear Dipole Moment: [e a0]
     X:   -35.7056      Y:     4.2547      Z:    13.5855

  Electronic Dipole Moment: [e a0]
     X:    35.6662      Y:    -1.6269      Z:   -13.3404

  Dipole Moment: [e a0]
     X:    -0.0395      Y:     2.6278      Z:     0.2451     Total:     2.6395

  Dipole Moment: [D]
     X:    -0.1003      Y:     6.6793      Z:     0.6230     Total:     6.7090


*** tstop() called on node45.bme.utexas.edu at Tue Apr 14 12:58:37 2020
Module time:
	user time   =    4744.36 seconds =      79.07 minutes
	system time =     102.27 seconds =       1.70 minutes
	total time  =        903 seconds =      15.05 minutes
Total time:
	user time   =    4744.36 seconds =      79.07 minutes
	system time =     102.27 seconds =       1.70 minutes
	total time  =        903 seconds =      15.05 minutes

*** tstart() called on node45.bme.utexas.edu
*** at Tue Apr 14 12:58:37 2020


  //>>>>>>>>>>>>>>>>>>>>>>>>>>>>>>>>>>>//
  //               DFMP2               //
  //<<<<<<<<<<<<<<<<<<<<<<<<<<<<<<<<<<<//

   => Loading Basis Set <=

    Name: (6-311++G** AUX)
    Role: RIFIT
    Keyword: DF_BASIS_MP2
    atoms 1-4, 6-9, 11, 14-19, 21-28, 30-31, 33-35, 37 entry C          line   148 file /home/bdw2292/miniconda3/envs/p4env/share/psi4/basis/aug-cc-pvtz-ri.gbs 
    atoms 5, 10, 12-13, 20, 29, 32                     entry N          line   206 file /home/bdw2292/miniconda3/envs/p4env/share/psi4/basis/aug-cc-pvtz-ri.gbs 
    atoms 36                                           entry O          line   264 file /home/bdw2292/miniconda3/envs/p4env/share/psi4/basis/aug-cc-pvtz-ri.gbs 
    atoms 38-68                                        entry H          line    30 file /home/bdw2292/miniconda3/envs/p4env/share/psi4/basis/aug-cc-pvtz-ri.gbs 

	 --------------------------------------------------------
	                          DF-MP2                         
	      2nd-Order Density-Fitted Moller-Plesset Theory     
	              RMP2 Wavefunction,   6 Threads             
	                                                         
	        Rob Parrish, Justin Turney, Andy Simmonett,      
	           Ed Hohenstein, and C. David Sherrill          
	 --------------------------------------------------------

   => Auxiliary Basis Set <=

  Basis Set: (6-311++G** AUX)
    Blend: AUG-CC-PVTZ-RI
    Number of shells: 1470
    Number of basis function: 5348
    Number of Cartesian functions: 6737
    Spherical Harmonics?: true
    Max angular momentum: 4

	 --------------------------------------------------------
	                 NBF =  1031, NAUX =  5348
	 --------------------------------------------------------
	   CLASS    FOCC     OCC    AOCC    AVIR     VIR    FVIR
	   PAIRS      37     131      94     900     900       0
	 --------------------------------------------------------

	-----------------------------------------------------------
	 ==================> DF-MP2 Energies <==================== 
	-----------------------------------------------------------
	 Reference Energy          =   -1572.3527200845794596 [Eh]
	 Singles Energy            =      -0.0000000000000000 [Eh]
	 Same-Spin Energy          =      -1.4694712385137119 [Eh]
	 Opposite-Spin Energy      =      -4.0452768665226353 [Eh]
	 Correlation Energy        =      -5.5147481050363467 [Eh]
	 Total Energy              =   -1577.8674681896159200 [Eh]
	-----------------------------------------------------------
	 ================> DF-SCS-MP2 Energies <================== 
	-----------------------------------------------------------
	 SCS Same-Spin Scale       =       0.3333333333333333 [-]
	 SCS Opposite-Spin Scale   =       1.2000000000000000 [-]
	 SCS Same-Spin Energy      =      -0.4898237461712373 [Eh]
	 SCS Opposite-Spin Energy  =      -4.8543322398271620 [Eh]
	 SCS Correlation Energy    =      -5.3441559859983991 [Eh]
	 SCS Total Energy          =   -1577.6968760705779005 [Eh]
	-----------------------------------------------------------


*** tstop() called on node45.bme.utexas.edu at Tue Apr 14 13:06:43 2020
Module time:
	user time   =    2697.78 seconds =      44.96 minutes
	system time =      21.73 seconds =       0.36 minutes
	total time  =        486 seconds =       8.10 minutes
Total time:
	user time   =    7442.14 seconds =     124.04 minutes
	system time =     124.00 seconds =       2.07 minutes
	total time  =       1389 seconds =      23.15 minutes


Properties will be evaluated at   0.000000,   0.000000,   0.000000 [a0]
OEProp: No title given, name of density matrix used for the following properties is 'SCF density'


  Wiberg Bond Indices using Orthogonal Lowdin Orbitals:

  Irrep: 1 Size: 68 x 68

                 1                   2                   3                   4                   5

    1     0.00000000000000     1.46816016690630     0.12541280258113     0.14005580047877     0.12481965422794
    2     1.46816016690630     0.00000000000000     1.39987553102594     0.12731577262089     0.12245561722692
    3     0.12541280258113     1.39987553102594     0.00000000000000     1.36298837489365     0.12029732387178
    4     0.14005580047877     0.12731577262089     1.36298837489365     0.00000000000000     1.66842637475566
    5     0.12481965422794     0.12245561722692     0.12029732387178     1.66842637475566     0.00000000000000
    6     1.46323199439460     0.13792431148446     0.13563093658137     0.15354621868734     1.63811897088061
    7     0.01481422416663     0.10351732398004     1.02458760254295     0.10465996397475     0.01407473091827
    8     0.00367991231459     0.04242092270834     0.09896370161786     0.02399804357806     0.00218799521273
    9     0.00037440334271     0.00480373377072     0.01490217094974     0.00412446699939     0.00069632455849
   10     0.00047541578618     0.00577403817869     0.00606387051832     0.00627903210697     0.00030267471220
   11     0.00094641611912     0.00339751461189     0.01830433443037     0.00718216306987     0.00046312345911
   12     0.00282902843725     0.02193183812457     0.12047930991158     0.06509602483380     0.00413395376023
   13     0.00011780098345     0.00042504682005     0.00177602578915     0.00075282161595     0.00006080894512
   14     0.00003877142283     0.00011105173124     0.00060390972323     0.00094947586172     0.00009149718752
   15     0.00001227751787     0.00003378137274     0.00010334849285     0.00009188677379     0.00001231348683
   16     0.00000277561841     0.00000682665471     0.00005838932419     0.00026230142160     0.00000569727951
   17     0.00000860849573     0.00001912927097     0.00006447460585     0.00012942703902     0.00000906028738
   18     0.00002165348075     0.00002136792438     0.00011644983960     0.00029718873709     0.00006167947806
   19     0.00011107702494     0.00012627988385     0.00089860284603     0.00207920702591     0.00017066660764
   20     0.00000582901758     0.00000519447547     0.00002150280074     0.00004976322801     0.00001383334351
   21     0.00000262889380     0.00000172125565     0.00000651779316     0.00002031192412     0.00000514296550
   22     0.00000235937603     0.00000238835311     0.00001096221685     0.00005990318512     0.00001068594390
   23     0.00008408446893     0.00004700659264     0.00002948880851     0.00017405127177     0.00007276801140
   24     0.00002141560768     0.00002226019435     0.00002132515663     0.00005277186777     0.00001933871821
   25     0.00000135923873     0.00000080257866     0.00000230043422     0.00001115617953     0.00000344212084
   26     0.00000059991168     0.00000048638758     0.00000188420564     0.00000927108904     0.00000258695478
   27     0.00000130792605     0.00000121188224     0.00000333525544     0.00001426523754     0.00000281359187
   28     0.00000053203035     0.00000031162530     0.00000044831306     0.00000116883628     0.00000067819517
   29     0.00000026671624     0.00000020315982     0.00000022851923     0.00000072851463     0.00000028965959
   30     0.00000101364736     0.00000083751610     0.00000075399353     0.00000096587065     0.00000094019907
   31     0.00000287103723     0.00000449445751     0.00000514917206     0.00000298202822     0.00000122587283
   32     0.00000042553012     0.00000084796720     0.00000102993544     0.00000044194064     0.00000024751038
   33     0.00000009068708     0.00000014706896     0.00000014259329     0.00000010018873     0.00000009983754
   34     0.00000022296620     0.00000021779631     0.00000071811234     0.00000225643787     0.00000056108854
   35     0.00000012260205     0.00000010631106     0.00000014601877     0.00000042892177     0.00000020842482
   36     0.00000049185150     0.00000064304541     0.00000272655876     0.00000583172856     0.00000198611841
   37     0.00000188897967     0.00000593844488     0.00002601471155     0.00002426489920     0.00000217437874
   38     0.88660110204026     0.07950663987149     0.01185821881520     0.00627349474245     0.01073691983331
   39     0.07780720184807     0.87063524807208     0.07290856895228     0.01164867860315     0.00392849304584
   40     0.00568140325552     0.01087006443075     0.07016885161869     0.85585449402948     0.08552161621283
   41     0.07722734452764     0.01193182404166     0.00611159339742     0.01576038210069     0.08791237499567
   42     0.00113184498531     0.01452872716098     0.01433890924782     0.00138532032552     0.00029691339096
   43     0.00004510530677     0.00028497245943     0.00144729829827     0.00032012017469     0.00007974087346
   44     0.00002830193943     0.00008061918183     0.00031998059684     0.00010418866141     0.00001242157464
   45     0.00000020405928     0.00000084618600     0.00000473983992     0.00000743305816     0.00000032344067
   46     0.00000030831427     0.00000107716877     0.00000311362145     0.00000438367221     0.00000057973156
   47     0.00005710905406     0.00005331780228     0.00042477108463     0.00057839569507     0.00005104836010
   48     0.00001873718796     0.00000717584792     0.00001567293700     0.00004393572326     0.00001824363126
   49     0.00007089153502     0.00002935450669     0.00002840399963     0.00016884694909     0.00012491823336
   50     0.00000848190820     0.00000900960203     0.00000721714215     0.00001824306377     0.00001514496624
   51     0.00000010136821     0.00000011229074     0.00000058021846     0.00000254681517     0.00000054620203
   52     0.00000017271464     0.00000010178527     0.00000015867666     0.00000089045021     0.00000052206681
   53     0.00000007261871     0.00000003758951     0.00000015952470     0.00000026473232     0.00000030393196
   54     0.00000003792923     0.00000000890034     0.00000006224827     0.00000041757979     0.00000006253454
   55     0.00000109268582     0.00000071363467     0.00000032834019     0.00000020118786     0.00000028656370
   56     0.00000003846338     0.00000008232837     0.00000008669071     0.00000008179021     0.00000013472282
   57     0.00000158813362     0.00000269381818     0.00000162444285     0.00000072011806     0.00000027511431
   58     0.00000147231500     0.00000157787296     0.00000209680891     0.00000217673747     0.00000248518814
   59     0.00000002483547     0.00000002943911     0.00000002803855     0.00000002436319     0.00000002040158
   60     0.00000002806193     0.00000004428251     0.00000005661179     0.00000003498697     0.00000004011968
   61     0.00000000465904     0.00000001645789     0.00000001049838     0.00000002352735     0.00000000764094
   62     0.00000001712765     0.00000001198012     0.00000002810402     0.00000018834291     0.00000004777668
   63     0.00000013719138     0.00000010277050     0.00000035904596     0.00000180588157     0.00000055514702
   64     0.00000002989622     0.00000003059976     0.00000004348395     0.00000023716764     0.00000002679780
   65     0.00000003032604     0.00000002999694     0.00000004158687     0.00000013957144     0.00000009015414
   66     0.00000086109154     0.00000171388714     0.00000826898513     0.00000396756809     0.00000051594012
   67     0.00000072495264     0.00000225136852     0.00000535051198     0.00000798439561     0.00000064751434
   68     0.00000022119303     0.00000047285909     0.00000231927582     0.00000192428331     0.00000016653884

                 6                   7                   8                   9                  10

    1     1.46323199439460     0.01481422416663     0.00367991231459     0.00037440334271     0.00047541578618
    2     0.13792431148446     0.10351732398004     0.04242092270834     0.00480373377072     0.00577403817869
    3     0.13563093658137     1.02458760254295     0.09896370161786     0.01490217094974     0.00606387051832
    4     0.15354621868734     0.10465996397475     0.02399804357806     0.00412446699939     0.00627903210697
    5     1.63811897088061     0.01407473091827     0.00218799521273     0.00069632455849     0.00030267471220
    6     0.00000000000000     0.00989577332087     0.00701404784052     0.00123372029601     0.00362510265914
    7     0.00989577332087     0.00000000000000     1.38347707283243     0.14472560884595     0.11596787621464
    8     0.00701404784052     1.38347707283243     0.00000000000000     1.44506186578761     0.12820110704927
    9     0.00123372029601     0.14472560884595     1.44506186578761     0.00000000000000     1.65026977774098
   10     0.00362510265914     0.11596787621464     0.12820110704927     1.65026977774098     0.00000000000000
   11     0.00087509525275     0.14445444508593     0.12579352514342     0.15543644198093     1.53743442393498
   12     0.00615855196278     1.53347223769750     0.12307919274711     0.11702253081207     0.11399518869291
   13     0.00006519834457     0.01958760890237     0.01483860503338     0.02163578385584     0.15963787227176
   14     0.00004588160520     0.00372521122879     0.00325667738462     0.00314534512603     0.02036034646993
   15     0.00000862118632     0.00067779114375     0.00100433322787     0.00065839093584     0.00306499440907
   16     0.00000403130278     0.00023410085854     0.00012831080556     0.00012686522086     0.00050617438094
   17     0.00000886776945     0.00037347274203     0.00075739148366     0.00019413581420     0.00110835609287
   18     0.00001716685320     0.00044876912359     0.00023606645699     0.00021789051896     0.00045106618753
   19     0.00008681272995     0.00499595892517     0.00219018164971     0.00152470956428     0.00605403668050
   20     0.00000457506456     0.00006898657143     0.00002946513108     0.00001944982463     0.00006542378794
   21     0.00000270531767     0.00001303939731     0.00000882796869     0.00000694954646     0.00001824596621
   22     0.00000591652246     0.00000489356878     0.00000147653697     0.00000148069026     0.00000335363206
   23     0.00003084104490     0.00001622287193     0.00000765551216     0.00000189790814     0.00000264155388
   24     0.00002054703619     0.00000687280348     0.00000143903905     0.00000036726511     0.00000044730689
   25     0.00000309801168     0.00000081140897     0.00000024109960     0.00000026245307     0.00000033664767
   26     0.00000221171557     0.00000077920067     0.00000026460676     0.00000021056029     0.00000030131802
   27     0.00000274035850     0.00000191401463     0.00000084298725     0.00000076379387     0.00000132129346
   28     0.00000088734096     0.00000014124260     0.00000005906095     0.00000002316541     0.00000004586047
   29     0.00000039028594     0.00000010067983     0.00000003437839     0.00000001332620     0.00000003215515
   30     0.00000115566362     0.00000029212009     0.00000018830992     0.00000004379639     0.00000016061272
   31     0.00000277561901     0.00000214713301     0.00000171088445     0.00000042191818     0.00000027287853
   32     0.00000038119426     0.00000061258952     0.00000032318408     0.00000005902278     0.00000005503125
   33     0.00000007728304     0.00000010689653     0.00000011387485     0.00000004164919     0.00000002406434
   34     0.00000060383518     0.00000034067457     0.00000019241852     0.00000005792279     0.00000007917169
   35     0.00000015568766     0.00000009053321     0.00000003930980     0.00000002936454     0.00000007749991
   36     0.00000058936136     0.00000763173471     0.00000652394698     0.00000345096916     0.00001265179013
   37     0.00000138332983     0.00014405618393     0.00018646000109     0.00013585695610     0.00066257524846
   38     0.08245594070791     0.00131771967288     0.00026144343272     0.00004114078867     0.00002937189644
   39     0.01166784272528     0.01621018987817     0.01533722107975     0.00119840501316     0.00041599189866
   40     0.01479235339008     0.01661672125478     0.00183016572335     0.00044606744079     0.00064022636424
   41     0.87988150690990     0.00055838941711     0.00027732112332     0.00005382466704     0.00011297122711
   42     0.00050438844292     0.07478821543283     0.87576396649029     0.08087503655532     0.01037641626553
   43     0.00004424756474     0.01168375007375     0.07565416024477     0.87571366162110     0.09040254105099
   44     0.00001746279069     0.00214414639586     0.00307225054464     0.00284187616349     0.02449554817092
   45     0.00000021866860     0.00002032955454     0.00001262832014     0.00002284531410     0.00005890470352
   46     0.00000034819647     0.00001931220384     0.00002562192938     0.00001147917033     0.00004836638645
   47     0.00004732178865     0.00254193452750     0.00074388998438     0.00077233301430     0.00138513076553
   48     0.00000527409929     0.00002623399406     0.00001911117595     0.00001943443828     0.00001384527226
   49     0.00001348894236     0.00000591932908     0.00000377635206     0.00000189294655     0.00000127815466
   50     0.00001233987079     0.00000241005852     0.00000042991548     0.00000003620581     0.00000007973014
   51     0.00000041413352     0.00000021179102     0.00000002798093     0.00000001078169     0.00000002461320
   52     0.00000031897716     0.00000021105757     0.00000011412238     0.00000008950049     0.00000020003712
   53     0.00000014984730     0.00000004243860     0.00000000913287     0.00000000469347     0.00000001040935
   54     0.00000013230405     0.00000001287733     0.00000000749554     0.00000000452008     0.00000000505186
   55     0.00000092317577     0.00000005049821     0.00000006691718     0.00000001585258     0.00000001571466
   56     0.00000004908279     0.00000008589946     0.00000005110868     0.00000001396170     0.00000001020420
   57     0.00000052145964     0.00000108059382     0.00000137401830     0.00000029656555     0.00000005118069
   58     0.00000239038456     0.00000248069225     0.00000200971222     0.00000056531327     0.00000028532844
   59     0.00000001206525     0.00000002103064     0.00000001210672     0.00000000620042     0.00000000517642
   60     0.00000001360084     0.00000004158420     0.00000006649172     0.00000003597077     0.00000001641337
   61     0.00000002322255     0.00000000688425     0.00000000930448     0.00000000461293     0.00000000580379
   62     0.00000004701759     0.00000003852073     0.00000001829938     0.00000000406560     0.00000001225228
   63     0.00000039567015     0.00000015130741     0.00000007643786     0.00000004234995     0.00000001949415
   64     0.00000002793026     0.00000003166980     0.00000001068757     0.00000000356880     0.00000001183669
   65     0.00000004677908     0.00000002139927     0.00000001213597     0.00000000308444     0.00000000371112
   66     0.00000036484877     0.00004968513714     0.00007699653983     0.00003929359242     0.00019433899987
   67     0.00000043702455     0.00003285239117     0.00007961829121     0.00003588507425     0.00026155893803
   68     0.00000009965087     0.00001308970287     0.00003059107102     0.00000817463529     0.00004707647144

                11                  12                  13                  14                  15

    1     0.00094641611912     0.00282902843725     0.00011780098345     0.00003877142283     0.00001227751787
    2     0.00339751461189     0.02193183812457     0.00042504682005     0.00011105173124     0.00003378137274
    3     0.01830433443037     0.12047930991158     0.00177602578915     0.00060390972323     0.00010334849285
    4     0.00718216306987     0.06509602483380     0.00075282161595     0.00094947586172     0.00009188677379
    5     0.00046312345911     0.00413395376023     0.00006080894512     0.00009149718752     0.00001231348683
    6     0.00087509525275     0.00615855196278     0.00006519834457     0.00004588160520     0.00000862118632
    7     0.14445444508593     1.53347223769750     0.01958760890237     0.00372521122879     0.00067779114375
    8     0.12579352514342     0.12307919274711     0.01483860503338     0.00325667738462     0.00100433322787
    9     0.15543644198093     0.11702253081207     0.02163578385584     0.00314534512603     0.00065839093584
   10     1.53743442393498     0.11399518869291     0.15963787227176     0.02036034646993     0.00306499440907
   11     0.00000000000000     1.56754295172261     1.22819516995369     0.08690615731953     0.01635593032431
   12     1.56754295172261     0.00000000000000     0.14312106928512     0.03374724528532     0.00428965046275
   13     1.22819516995369     0.14312106928512     0.00000000000000     1.14178306232702     0.11066534429366
   14     0.08690615731953     0.03374724528532     1.14178306232702     0.00000000000000     1.31363610328830
   15     0.01635593032431     0.00428965046275     0.11066534429366     1.31363610328830     0.00000000000000
   16     0.00237004993674     0.00121147205055     0.01483602808345     0.12709218148170     1.44327445551847
   17     0.00308901745791     0.00159100713341     0.01451229927384     0.11887523932941     0.12538984941209
   18     0.00309305713803     0.00265115799040     0.01401273368053     0.12267962765786     0.11935121345445
   19     0.03098120644983     0.03005815756536     0.11701601264683     1.39732529060315     0.11821454182716
   20     0.00040990356893     0.00044400569578     0.00137709870225     0.01482446271491     0.01108721456621
   21     0.00007748688277     0.00006834498594     0.00032057142276     0.00276407909620     0.00576219438751
   22     0.00001396124385     0.00001035681099     0.00005634416062     0.00035669066761     0.00033995081563
   23     0.00000986674964     0.00003910887227     0.00001460526079     0.00012779563434     0.00036400579414
   24     0.00000120916220     0.00000341809217     0.00000308133593     0.00001317830971     0.00003715005619
   25     0.00000078935259     0.00000084275304     0.00000188367066     0.00002341661186     0.00014399564924
   26     0.00000074452913     0.00000070420140     0.00000251799358     0.00001813609180     0.00003248331863
   27     0.00000423726816     0.00000377654866     0.00001392924134     0.00009899063190     0.00029789343145
   28     0.00000011640354     0.00000017937523     0.00000018694757     0.00000226002861     0.00001036853110
   29     0.00000006270548     0.00000010597886     0.00000011578702     0.00000143044891     0.00000772496333
   30     0.00000011133127     0.00000019599977     0.00000008821610     0.00000039400837     0.00000118733301
   31     0.00000019672075     0.00000050708624     0.00000018517027     0.00000069317764     0.00000055874552
   32     0.00000008262863     0.00000016555749     0.00000008040488     0.00000131628115     0.00000063344853
   33     0.00000003503546     0.00000005085005     0.00000003022968     0.00000041872346     0.00000012598860
   34     0.00000010575802     0.00000022675305     0.00000006425987     0.00000091562940     0.00000086242612
   35     0.00000007134656     0.00000006452597     0.00000005301354     0.00000048628668     0.00000104750140
   36     0.00004438193796     0.00003841386046     0.00017572974813     0.00101967316813     0.00334560254341
   37     0.00386207439171     0.00080209682784     0.03842744143650     0.09647157215580     1.05853706670461
   38     0.00009389054400     0.00032040116840     0.00001671334461     0.00000871928140     0.00000181729501
   39     0.00029402864184     0.00111443744288     0.00007134262454     0.00002215022425     0.00000401299744
   40     0.00296941215545     0.02801410536927     0.00036534391819     0.00071542387644     0.00003554048793
   41     0.00004468207640     0.00026176336994     0.00000517454635     0.00000399538609     0.00000079060400
   42     0.00615158531173     0.01058478214220     0.00078108623709     0.00014239285568     0.00004773238210
   43     0.01572715674041     0.00411161983338     0.00141205219307     0.00038894232494     0.00006928998352
   44     0.07592162008433     0.01505614727244     0.93364611900805     0.06022228542819     0.01543914681638
   45     0.00035977187372     0.00006789803113     0.00115317221034     0.01140176486319     0.07498322146027
   46     0.00013449233686     0.00008124951524     0.00061067236299     0.00528433027120     0.01059010993856
   47     0.01200320857296     0.01360454355097     0.01725771754786     0.07522285928507     0.01013545023893
   48     0.00013240549783     0.00013501402649     0.00017935202071     0.00203954927510     0.00112887509285
   49     0.00000493931962     0.00001500937129     0.00000572654304     0.00004184918123     0.00012358705807
   50     0.00000018368944     0.00000080949559     0.00000034699145     0.00000151787570     0.00000176060427
   51     0.00000010816392     0.00000011979629     0.00000051912110     0.00000282582831     0.00000326529393
   52     0.00000083874567     0.00000034961945     0.00000245902206     0.00001619223642     0.00001973231855
   53     0.00000002053911     0.00000003731247     0.00000005872083     0.00000040386437     0.00000148861530
   54     0.00000001372884     0.00000001506947     0.00000003607275     0.00000033408418     0.00000157651951
   55     0.00000001247807     0.00000001034252     0.00000001106868     0.00000006111167     0.00000015855469
   56     0.00000001902513     0.00000003989010     0.00000000939408     0.00000007891620     0.00000031944874
   57     0.00000008446886     0.00000021928277     0.00000001458681     0.00000007186955     0.00000013016488
   58     0.00000037158342     0.00000131704563     0.00000028760033     0.00000049344110     0.00000098663518
   59     0.00000000527758     0.00000000737162     0.00000000846193     0.00000010612568     0.00000002491191
   60     0.00000001570588     0.00000002312996     0.00000000591830     0.00000004263950     0.00000000926206
   61     0.00000000448968     0.00000000410436     0.00000000318508     0.00000002496942     0.00000000944955
   62     0.00000001334635     0.00000002339329     0.00000000929528     0.00000006915045     0.00000012159873
   63     0.00000003045427     0.00000012891952     0.00000008485438     0.00000090578594     0.00000302108136
   64     0.00000001654360     0.00000001427513     0.00000000387407     0.00000008067374     0.00000036938987
   65     0.00000000580242     0.00000000786389     0.00000001388136     0.00000008358050     0.00000007099556
   66     0.00085514224291     0.00030330231639     0.00976692152515     0.01632825755026     0.05717516296379
   67     0.00094931447285     0.00024090526481     0.01023129368366     0.01663141146665     0.05872471773241
   68     0.00025463427896     0.00006997541218     0.00201503493647     0.00883121011392     0.05988082379860

                16                  17                  18                  19                  20

    1     0.00000277561841     0.00000860849573     0.00002165348075     0.00011107702494     0.00000582901758
    2     0.00000682665471     0.00001912927097     0.00002136792438     0.00012627988385     0.00000519447547
    3     0.00005838932419     0.00006447460585     0.00011644983960     0.00089860284603     0.00002150280074
    4     0.00026230142160     0.00012942703902     0.00029718873709     0.00207920702591     0.00004976322801
    5     0.00000569727951     0.00000906028738     0.00006167947806     0.00017066660764     0.00001383334351
    6     0.00000403130278     0.00000886776945     0.00001716685320     0.00008681272995     0.00000457506456
    7     0.00023410085854     0.00037347274203     0.00044876912359     0.00499595892517     0.00006898657143
    8     0.00012831080556     0.00075739148366     0.00023606645699     0.00219018164971     0.00002946513108
    9     0.00012686522086     0.00019413581420     0.00021789051896     0.00152470956428     0.00001944982463
   10     0.00050617438094     0.00110835609287     0.00045106618753     0.00605403668050     0.00006542378794
   11     0.00237004993674     0.00308901745791     0.00309305713803     0.03098120644983     0.00040990356893
   12     0.00121147205055     0.00159100713341     0.00265115799040     0.03005815756536     0.00044400569578
   13     0.01483602808345     0.01451229927384     0.01401273368053     0.11701601264683     0.00137709870225
   14     0.12709218148170     0.11887523932941     0.12267962765786     1.39732529060315     0.01482446271491
   15     1.44327445551847     0.12538984941209     0.11935121345445     0.11821454182716     0.01108721456621
   16     0.00000000000000     1.44454359096221     0.13282468276957     0.12405860384055     0.01377196781164
   17     1.44454359096221     0.00000000000000     1.39766152378248     0.12114000524696     0.10472318226978
   18     0.13282468276957     1.39766152378248     0.00000000000000     1.36557824087513     1.12730022491054
   19     0.12405860384055     0.12114000524696     1.36557824087513     0.00000000000000     0.12302153959804
   20     0.01377196781164     0.10472318226978     1.12730022491054     0.12302153959804     0.00000000000000
   21     0.00286163891434     0.03194758181967     0.08617833815679     0.02232847765452     1.31241195143236
   22     0.00035720684700     0.00339014248554     0.01453622300302     0.00207211488212     0.10489490065748
   23     0.00015439720720     0.00123065573512     0.00401468294236     0.00127954889288     0.04236074041305
   24     0.00002265193673     0.00016495392865     0.00043921008103     0.00014985279127     0.00377229767738
   25     0.00002632048605     0.00024971925112     0.00045967928708     0.00021189811495     0.00340533340820
   26     0.00002239039028     0.00014237301518     0.00049471622049     0.00010802254280     0.00250477592680
   27     0.00010567100433     0.00090825864962     0.00232913568745     0.00064263241865     0.01787549612969
   28     0.00000253413921     0.00002154803536     0.00004182361024     0.00001729993859     0.00026217009000
   29     0.00000149215598     0.00001191279975     0.00002303599600     0.00001053898289     0.00015800701841
   30     0.00000037715785     0.00000249629282     0.00000476649019     0.00000297505036     0.00002771702957
   31     0.00000043926932     0.00000288353698     0.00000519974407     0.00000476458295     0.00003825299195
   32     0.00000018246150     0.00000129896394     0.00000322357840     0.00000168307390     0.00001302471503
   33     0.00000006388656     0.00000044824129     0.00000078333190     0.00000062246860     0.00000229880531
   34     0.00000048778955     0.00000293370481     0.00000655065031     0.00000321589821     0.00003728843001
   35     0.00000056281949     0.00000323166606     0.00000648134036     0.00000164468666     0.00003596396548
   36     0.00363260801490     0.05065315811269     0.03137050197358     0.00531301427255     0.19153085481909
   37     0.11536922655823     0.01448507566234     0.00732017742024     0.01390674179739     0.00071014783703
   38     0.00000037376819     0.00000061366847     0.00000248148767     0.00001089420732     0.00000034610135
   39     0.00000141887905     0.00000143960290     0.00000241633915     0.00001668443824     0.00000074671895
   40     0.00010408459873     0.00006521922453     0.00018059098613     0.00152543224512     0.00003515273681
   41     0.00000030722936     0.00000038897225     0.00000088724207     0.00000405951469     0.00000048841077
   42     0.00000869833564     0.00003071377878     0.00001367644470     0.00010326442616     0.00000285622286
   43     0.00001536200188     0.00000909468271     0.00001339185890     0.00009891372003     0.00000172306386
   44     0.00158350077232     0.00141136767742     0.00137478529304     0.01152115014213     0.00025177798666
   45     0.87123914038472     0.07905215246009     0.01170275913497     0.00553327630732     0.00102233214437
   46     0.07738774555598     0.85872618756009     0.07530264208605     0.01129529079330     0.01493551772732
   47     0.00568429382058     0.01071964490303     0.07221055345840     0.84951883096360     0.02323609398950
   48     0.00140761527969     0.01028890711728     0.06248445774713     0.02117499037769     0.93847280744992
   49     0.00005791447208     0.00039413344254     0.00155535609833     0.00064757685465     0.01507820104947
   50     0.00000227552420     0.00001428451147     0.00003491401211     0.00001290888932     0.00022071144538
   51     0.00000282541687     0.00001849219929     0.00006535107877     0.00001866836101     0.00028601970946
   52     0.00002797412161     0.00017499945694     0.00025016009899     0.00007298844725     0.00166749411254
   53     0.00000051285775     0.00000377093230     0.00000821160475     0.00000290588525     0.00003725783430
   54     0.00000043172909     0.00000380889253     0.00000796017965     0.00000312206333     0.00004714839582
   55     0.00000006288109     0.00000030973084     0.00000073812946     0.00000032184233     0.00000433005256
   56     0.00000007821361     0.00000049598886     0.00000081382551     0.00000071211344     0.00000640602167
   57     0.00000004142812     0.00000025161840     0.00000028522665     0.00000046904553     0.00000202965763
   58     0.00000085519259     0.00000653203314     0.00000861611884     0.00000495042941     0.00003820957498
   59     0.00000001593965     0.00000006530799     0.00000014103955     0.00000012806404     0.00000038676885
   60     0.00000000705052     0.00000003170808     0.00000009331720     0.00000007051308     0.00000029876498
   61     0.00000001232972     0.00000005859788     0.00000012396884     0.00000006112472     0.00000032610989
   62     0.00000004412219     0.00000022820360     0.00000038724048     0.00000028112783     0.00000266798302
   63     0.00000088135117     0.00000790392162     0.00001140940446     0.00000800018711     0.00006091559531
   64     0.00000014435537     0.00000076959012     0.00000074868458     0.00000059223544     0.00000665001412
   65     0.00000010614440     0.00000054079311     0.00000179325084     0.00000039597592     0.00000893567835
   66     0.01497651375613     0.00127360461271     0.00288847693137     0.00119012520047     0.00035861904311
   67     0.01510699684801     0.00128455876690     0.00281514765481     0.00127609541334     0.00032732479224
   68     0.02375925171098     0.00190848322828     0.00055222238633     0.00107781810195     0.00008379538346

                21                  22                  23                  24                  25

    1     0.00000262889380     0.00000235937603     0.00008408446893     0.00002141560768     0.00000135923873
    2     0.00000172125565     0.00000238835311     0.00004700659264     0.00002226019435     0.00000080257866
    3     0.00000651779316     0.00001096221685     0.00002948880851     0.00002132515663     0.00000230043422
    4     0.00002031192412     0.00005990318512     0.00017405127177     0.00005277186777     0.00001115617953
    5     0.00000514296550     0.00001068594390     0.00007276801140     0.00001933871821     0.00000344212084
    6     0.00000270531767     0.00000591652246     0.00003084104490     0.00002054703619     0.00000309801168
    7     0.00001303939731     0.00000489356878     0.00001622287193     0.00000687280348     0.00000081140897
    8     0.00000882796869     0.00000147653697     0.00000765551216     0.00000143903905     0.00000024109960
    9     0.00000694954646     0.00000148069026     0.00000189790814     0.00000036726511     0.00000026245307
   10     0.00001824596621     0.00000335363206     0.00000264155388     0.00000044730689     0.00000033664767
   11     0.00007748688277     0.00001396124385     0.00000986674964     0.00000120916220     0.00000078935259
   12     0.00006834498594     0.00001035681099     0.00003910887227     0.00000341809217     0.00000084275304
   13     0.00032057142276     0.00005634416062     0.00001460526079     0.00000308133593     0.00000188367066
   14     0.00276407909620     0.00035669066761     0.00012779563434     0.00001317830971     0.00002341661186
   15     0.00576219438751     0.00033995081563     0.00036400579414     0.00003715005619     0.00014399564924
   16     0.00286163891434     0.00035720684700     0.00015439720720     0.00002265193673     0.00002632048605
   17     0.03194758181967     0.00339014248554     0.00123065573512     0.00016495392865     0.00024971925112
   18     0.08617833815679     0.01453622300302     0.00401468294236     0.00043921008103     0.00045967928708
   19     0.02232847765452     0.00207211488212     0.00127954889288     0.00014985279127     0.00021189811495
   20     1.31241195143236     0.10489490065748     0.04236074041305     0.00377229767738     0.00340533340820
   21     0.00000000000000     0.97211840656614     0.10496264802980     0.01453831946689     0.01108222772671
   22     0.97211840656614     0.00000000000000     1.40025539540559     0.12795183919252     0.12442491543027
   23     0.10496264802980     1.40025539540559     0.00000000000000     1.46136061645820     0.12598573296608
   24     0.01453831946689     0.12795183919252     1.46136061645820     0.00000000000000     1.40040628765856
   25     0.01108222772671     0.12442491543027     0.12598573296608     1.40040628765856     0.00000000000000
   26     0.01477140533374     0.12727281833887     0.12982953473115     0.12549567369026     1.39822905259051
   27     0.11124395464593     1.38704858172967     0.12386054820003     0.13112351509413     0.12722488252469
   28     0.00073186696707     0.00917093555492     0.01458941932824     0.10775119685881     1.01585913397078
   29     0.00038692798901     0.00441748594034     0.00210282959871     0.02256667427862     0.08790834150298
   30     0.00008498254887     0.00092579991797     0.00182481163794     0.01523410317626     0.01923179131127
   31     0.00007315853591     0.00122244639734     0.00854718280842     0.02391268539108     0.01521327421502
   32     0.00007947855231     0.00067231075389     0.00092806427264     0.00291637025597     0.00389380885031
   33     0.00000975031688     0.00011752328776     0.00022975622315     0.00067539197029     0.00101395584173
   34     0.00017558598817     0.00324624797386     0.00295933863348     0.00861774355973     0.02264530943810
   35     0.00012273224917     0.00115623207474     0.00113701039276     0.00542339817767     0.02330287219248
   36     2.18051736825786     0.13752945269888     0.02521744474251     0.00315117077704     0.00622118252305
[...]
   15     0.00000031944874     0.00000013016488     0.00000098663518     0.00000002491191     0.00000000926206
   16     0.00000007821361     0.00000004142812     0.00000085519259     0.00000001593965     0.00000000705052
   17     0.00000049598886     0.00000025161840     0.00000653203314     0.00000006530799     0.00000003170808
   18     0.00000081382551     0.00000028522665     0.00000861611884     0.00000014103955     0.00000009331720
   19     0.00000071211344     0.00000046904553     0.00000495042941     0.00000012806404     0.00000007051308
   20     0.00000640602167     0.00000202965763     0.00003820957498     0.00000038676885     0.00000029876498
   21     0.00002311050173     0.00000585012184     0.00006155767482     0.00000181721842     0.00000071291700
   22     0.00020425533107     0.00008599195633     0.00110051327107     0.00001170662980     0.00001053582052
   23     0.00030268072087     0.00022449978364     0.00719857641062     0.00002343722029     0.00002431373889
   24     0.00076862762853     0.00081839856663     0.01967692747955     0.00008095177185     0.00007735115380
   25     0.00140835525793     0.00054775831188     0.00869924089878     0.00016466818746     0.00009241922876
   26     0.00045020660332     0.00014953248050     0.00209545642932     0.00007896802039     0.00003602043169
   27     0.00011359921752     0.00010220209925     0.00176995412049     0.00002126461060     0.00002457714743
   28     0.01216294542238     0.00098748873745     0.00520285595219     0.00062966197886     0.00011530381329
   29     0.06438097427527     0.01260569984190     0.01219852977203     0.00291277939832     0.00065804827093
   30     0.79647998607230     0.05705670601701     0.04862579106317     0.01233062611808     0.00383201144104
   31     0.05027248076964     0.83612004909295     0.84635490710244     0.01628598116542     0.02076956094925
   32     0.01333657619428     0.05152913939525     0.06009332664013     0.06825531348432     0.06286342341069
   33     0.01403702478330     0.02337621453117     0.01102785347897     0.91054320977670     0.92007623354597
   34     0.00779043271281     0.01475029912568     0.01878796785668     0.01647280813081     0.01263019748808
   35     0.02158099446303     0.00188303641653     0.00695788306987     0.01223169796208     0.00167736655200
   36     0.00001428838216     0.00000370055636     0.00003541977401     0.00000087577992     0.00000051072256
   37     0.00000001819766     0.00000001196841     0.00000014577301     0.00000000450823     0.00000000178984
   38     0.00000001115380     0.00000046099233     0.00000022230681     0.00000000363610     0.00000000332235
   39     0.00000000862588     0.00000125771767     0.00000046946322     0.00000000470382     0.00000000433120
   40     0.00000001730456     0.00000003809370     0.00000022614315     0.00000000370205     0.00000000225772
   41     0.00000001008834     0.00000006939675     0.00000027039247     0.00000000078234     0.00000000188907
   42     0.00000000416422     0.00000052820037     0.00000022395350     0.00000000532530     0.00000003849346
   43     0.00000000042057     0.00000001995562     0.00000000750063     0.00000000039330     0.00000000715286
   44     0.00000000145881     0.00000000245687     0.00000005634704     0.00000000070793     0.00000000047710
   45     0.00000000679587     0.00000000155881     0.00000016007323     0.00000000224112     0.00000000041232
   46     0.00000004670855     0.00000004612665     0.00000212148953     0.00000000847529     0.00000000569029
   47     0.00000028957551     0.00000131740501     0.00000272652564     0.00000015052514     0.00000042076503
   48     0.00001835335497     0.00000708951094     0.00002431757575     0.00000070425213     0.00000039888579
   49     0.00004605779827     0.00002152167707     0.00061077501436     0.00000192319910     0.00000172291126
   50     0.00011079411923     0.00029117468877     0.00448764507431     0.00004075693700     0.00002331867030
   51     0.00011045781223     0.00001659818347     0.00010837920019     0.00002899527083     0.00000484615711
   52     0.00001314931109     0.00000357934594     0.00004910576542     0.00000207293515     0.00000138254801
   53     0.00118259023635     0.00008417673279     0.00082896037488     0.00006067783946     0.00001858151548
   54     0.00048155336486     0.00037764984593     0.00030435956071     0.00006475300070     0.00002246486279
   55     0.02136784162570     0.00566097832220     0.00755624047457     0.00048665011294     0.00013178669095
   56     0.00000000000000     0.00957004665713     0.01427154934705     0.00690628404364     0.00144721168242
   57     0.00957004665713     0.00000000000000     0.02276984100962     0.00322463118690     0.00754236842513
   58     0.01427154934705     0.02276984100962     0.00000000000000     0.00090866517277     0.00101936737003
   59     0.00690628404364     0.00322463118690     0.00090866517277     0.00000000000000     0.03484615856208
   60     0.00144721168242     0.00754236842513     0.00101936737003     0.03484615856208     0.00000000000000
   61     0.00059508198453     0.00121123714638     0.00073004508797     0.03489313463137     0.03772082763137
   62     0.00038638662565     0.00128399043230     0.00094149582489     0.00306821876123     0.00114364942473
   63     0.00074851127904     0.00097032846277     0.00491112575890     0.00094803892424     0.00066697486247
   64     0.00559700892258     0.00038508863087     0.00091304091447     0.00670824470243     0.00056860440403
   65     0.00087341268692     0.00046719709851     0.00035437511332     0.00044871676751     0.00022644733816
   66     0.00000001354729     0.00000000409121     0.00000002241932     0.00000000041813     0.00000000016988
   67     0.00000001294931     0.00000000555758     0.00000002180335     0.00000000066715     0.00000000013051
   68     0.00000000187193     0.00000000129216     0.00000001021164     0.00000000040600     0.00000000034969

                61                  62                  63                  64                  65

    1     0.00000000465904     0.00000001712765     0.00000013719138     0.00000002989622     0.00000003032604
    2     0.00000001645789     0.00000001198012     0.00000010277050     0.00000003059976     0.00000002999694
    3     0.00000001049838     0.00000002810402     0.00000035904596     0.00000004348395     0.00000004158687
    4     0.00000002352735     0.00000018834291     0.00000180588157     0.00000023716764     0.00000013957144
    5     0.00000000764094     0.00000004777668     0.00000055514702     0.00000002679780     0.00000009015414
    6     0.00000002322255     0.00000004701759     0.00000039567015     0.00000002793026     0.00000004677908
    7     0.00000000688425     0.00000003852073     0.00000015130741     0.00000003166980     0.00000002139927
    8     0.00000000930448     0.00000001829938     0.00000007643786     0.00000001068757     0.00000001213597
    9     0.00000000461293     0.00000000406560     0.00000004234995     0.00000000356880     0.00000000308444
   10     0.00000000580379     0.00000001225228     0.00000001949415     0.00000001183669     0.00000000371112
   11     0.00000000448968     0.00000001334635     0.00000003045427     0.00000001654360     0.00000000580242
   12     0.00000000410436     0.00000002339329     0.00000012891952     0.00000001427513     0.00000000786389
   13     0.00000000318508     0.00000000929528     0.00000008485438     0.00000000387407     0.00000001388136
   14     0.00000002496942     0.00000006915045     0.00000090578594     0.00000008067374     0.00000008358050
   15     0.00000000944955     0.00000012159873     0.00000302108136     0.00000036938987     0.00000007099556
   16     0.00000001232972     0.00000004412219     0.00000088135117     0.00000014435537     0.00000010614440
   17     0.00000005859788     0.00000022820360     0.00000790392162     0.00000076959012     0.00000054079311
   18     0.00000012396884     0.00000038724048     0.00001140940446     0.00000074868458     0.00000179325084
   19     0.00000006112472     0.00000028112783     0.00000800018711     0.00000059223544     0.00000039597592
   20     0.00000032610989     0.00000266798302     0.00006091559531     0.00000665001412     0.00000893567835
   21     0.00000160628860     0.00001936887622     0.00021915730829     0.00004685713220     0.00002248847237
   22     0.00001502182984     0.00016297456901     0.00364847495724     0.00028149539020     0.00021910381139
   23     0.00002447001438     0.00014510538518     0.00314643577712     0.00028243943202     0.00026292389195
   24     0.00004959678443     0.00034201275064     0.00648168407218     0.00056057351439     0.00067116632470
   25     0.00010394907214     0.00082099545394     0.01549526701357     0.00138745645541     0.00694293123179
   26     0.00006218400028     0.00076165835751     0.01858727696540     0.00085608300396     0.00718045822391
   27     0.00003298813679     0.00024921331835     0.00912808650180     0.00031730023748     0.00061100381221
   28     0.00011421996972     0.00107309702005     0.00666130818314     0.01185402585677     0.02074592212632
   29     0.00062200171533     0.01157193786694     0.01187199488771     0.06306302432442     0.05375758120493
   30     0.00167858842513     0.00210715285715     0.00707279381115     0.02143798125113     0.01273399511076
   31     0.01263264233741     0.01396072518839     0.01795360536829     0.00780414846415     0.00222085794600
   32     0.06301570664684     0.05394144679771     0.05927097245353     0.01310302479611     0.01111605225122
   33     0.91995035999360     0.02162452046473     0.01227736754099     0.01373697585331     0.00144507536229
   34     0.01971700006443     0.85820816198128     0.78199563226379     0.04806029092632     0.05695906694760
   35     0.00372745798270     0.05753604406958     0.04376203988573     0.79691381592753     0.86478419819188
   36     0.00000060570164     0.00000554688786     0.00011272700152     0.00001105534589     0.00000729734404
   37     0.00000000172394     0.00000001194117     0.00000024794763     0.00000002466439     0.00000001359350
   38     0.00000000121563     0.00000000158547     0.00000001908080     0.00000000297422     0.00000000123990
   39     0.00000000826661     0.00000000204929     0.00000000808365     0.00000000221785     0.00000000117290
   40     0.00000000447657     0.00000004362957     0.00000065199490     0.00000006108975     0.00000004282345
   41     0.00000000407473     0.00000001213836     0.00000007538616     0.00000000575484     0.00000000921777
   42     0.00000000246095     0.00000000099844     0.00000000361247     0.00000000069055     0.00000000037956
   43     0.00000000056621     0.00000000032721     0.00000000082995     0.00000000013693     0.00000000013655
   44     0.00000000059610     0.00000000113365     0.00000000651084     0.00000000036005     0.00000000287697
   45     0.00000000071554     0.00000000369038     0.00000014451100     0.00000000519700     0.00000001965414
   46     0.00000000937059     0.00000004405740     0.00000189476731     0.00000006590109     0.00000023224951
   47     0.00000003474436     0.00000002875297     0.00000095089464     0.00000007674755     0.00000007802595
   48     0.00000022474341     0.00000410103080     0.00001157235027     0.00000725352725     0.00000192902197
   49     0.00000109645569     0.00000715870921     0.00011937933233     0.00001873138587     0.00002371687774
   50     0.00001337014163     0.00002584826715     0.00064888130359     0.00013857663630     0.00007318814902
   51     0.00001316694648     0.00009983289523     0.00287937104624     0.00011717987613     0.00290447400868
   52     0.00000327377307     0.00002445647785     0.00073237635618     0.00003638689473     0.00002963879354
   53     0.00002076284430     0.00030365278156     0.00042467914580     0.00060460971379     0.00107400592914
   54     0.00002172056924     0.00010764005681     0.00085107197637     0.00115524772412     0.00575129077583
   55     0.00022256024339     0.00040778441697     0.00041082303802     0.00083382636598     0.00117180419636
   56     0.00059508198453     0.00038638662565     0.00074851127904     0.00559700892258     0.00087341268692
   57     0.00121123714638     0.00128399043230     0.00097032846277     0.00038508863087     0.00046719709851
   58     0.00073004508797     0.00094149582489     0.00491112575890     0.00091304091447     0.00035437511332
   59     0.03489313463137     0.00306821876123     0.00094803892424     0.00670824470243     0.00044871676751
   60     0.03772082763137     0.00114364942473     0.00066697486247     0.00056860440403     0.00022644733816
   61     0.00000000000000     0.00683178753615     0.00104751824414     0.00145508986185     0.00012145370439
   62     0.00683178753615     0.00000000000000     0.01901743350462     0.00891728595902     0.00559805281008
   63     0.00104751824414     0.01901743350462     0.00000000000000     0.01993705107512     0.00826837709679
   64     0.00145508986185     0.00891728595902     0.01993705107512     0.00000000000000     0.02031351654239
   65     0.00012145370439     0.00559805281008     0.00826837709679     0.02031351654239     0.00000000000000
   66     0.00000000047594     0.00000000604748     0.00000008639889     0.00000001842723     0.00000000236848
   67     0.00000000060518     0.00000000432323     0.00000014955212     0.00000001585538     0.00000000412520
   68     0.00000000024427     0.00000000042515     0.00000001568375     0.00000000080074     0.00000000149520

                66                  67                  68

    1     0.00000086109154     0.00000072495264     0.00000022119303
    2     0.00000171388714     0.00000225136852     0.00000047285909
    3     0.00000826898513     0.00000535051198     0.00000231927582
    4     0.00000396756809     0.00000798439561     0.00000192428331
    5     0.00000051594012     0.00000064751434     0.00000016653884
    6     0.00000036484877     0.00000043702455     0.00000009965087
    7     0.00004968513714     0.00003285239117     0.00001308970287
    8     0.00007699653983     0.00007961829121     0.00003059107102
    9     0.00003929359242     0.00003588507425     0.00000817463529
   10     0.00019433899987     0.00026155893803     0.00004707647144
   11     0.00085514224291     0.00094931447285     0.00025463427896
   12     0.00030330231639     0.00024090526481     0.00006997541218
   13     0.00976692152515     0.01023129368366     0.00201503493647
   14     0.01632825755026     0.01663141146665     0.00883121011392
   15     0.05717516296379     0.05872471773241     0.05988082379860
   16     0.01497651375613     0.01510699684801     0.02375925171098
   17     0.00127360461271     0.00128455876690     0.00190848322828
   18     0.00288847693137     0.00281514765481     0.00055222238633
   19     0.00119012520047     0.00127609541334     0.00107781810195
   20     0.00035861904311     0.00032732479224     0.00008379538346
   21     0.00020874477483     0.00020923607345     0.00003038935862
   22     0.00001176575821     0.00001488615723     0.00000690649546
   23     0.00001428923190     0.00001386088009     0.00000284763838
   24     0.00000151280680     0.00000150408967     0.00000035370420
   25     0.00000598032400     0.00000573290673     0.00000025627729
   26     0.00000112542069     0.00000137372008     0.00000026703603
   27     0.00001049210013     0.00001241565505     0.00000158697588
   28     0.00000046187000     0.00000035810071     0.00000003749427
   29     0.00000031709157     0.00000031706052     0.00000001549729
   30     0.00000005918440     0.00000007177041     0.00000000675185
   31     0.00000002190287     0.00000001455240     0.00000001063618
   32     0.00000001001916     0.00000001266258     0.00000001156481
   33     0.00000000377958     0.00000000439504     0.00000000171671
   34     0.00000002676783     0.00000004174812     0.00000000695083
   35     0.00000002926963     0.00000003952973     0.00000000602490
   36     0.00012262942072     0.00012494006484     0.00001643582001
   37     0.91880501542344     0.91949939793463     0.92090924715915
   38     0.00000006407362     0.00000012244909     0.00000002231343
   39     0.00000021278799     0.00000051026935     0.00000007516909
   40     0.00000154262674     0.00000330351155     0.00000071805441
   41     0.00000004026515     0.00000006142615     0.00000001288979
   42     0.00000334486838     0.00000308613017     0.00000114465678
   43     0.00000296463010     0.00000410618476     0.00000099266548
   44     0.00496471218621     0.00403565030497     0.00100602439992
   45     0.00123470883519     0.00123520331802     0.00767012807658
   46     0.00020927471448     0.00021859361725     0.00013048193676
   47     0.00019705261187     0.00020258494506     0.00037127296159
   48     0.00003921515607     0.00004498428626     0.00004116935981
   49     0.00000475839358     0.00000427979964     0.00000122246909
   50     0.00000006509132     0.00000010798646     0.00000005437513
   51     0.00000020787513     0.00000012413312     0.00000007779566
   52     0.00000091374420     0.00000083593822     0.00000046701169
   53     0.00000005844576     0.00000006999916     0.00000001217685
   54     0.00000006001545     0.00000007588250     0.00000000918044
   55     0.00000000412210     0.00000000810037     0.00000000144451
   56     0.00000001354729     0.00000001294931     0.00000000187193
   57     0.00000000409121     0.00000000555758     0.00000000129216
   58     0.00000002241932     0.00000002180335     0.00000001021164
   59     0.00000000041813     0.00000000066715     0.00000000040600
   60     0.00000000016988     0.00000000013051     0.00000000034969
   61     0.00000000047594     0.00000000060518     0.00000000024427
   62     0.00000000604748     0.00000000432323     0.00000000042515
   63     0.00000008639889     0.00000014955212     0.00000001568375
   64     0.00000001842723     0.00000001585538     0.00000000080074
   65     0.00000000236848     0.00000000412520     0.00000000149520
   66     0.00000000000000     0.03536154217833     0.03897370253919
   67     0.03536154217833     0.00000000000000     0.03914912033591
   68     0.03897370253919     0.03914912033591     0.00000000000000



  Atomic Valences: 

 #  #
 Irrep: 1
      1:  4.3939250
      2:  4.4263640
      3:  4.6089208
      4:  4.5608568
      5:  3.8852330
      6:  4.5470214
      7:  4.7499942
      8:  4.3797279
      9:  4.5284080
     10:  3.8888237
     11:  5.0531445
     12:  3.9678074
     13:  4.0209549
     14:  4.6874074
     15:  4.6251882
     16:  4.4392462
     17:  4.4028164
     18:  4.6657679
     19:  4.3968072
     20:  4.0734824
     21:  5.0034519
     22:  4.6224392
     23:  4.4442215
     24:  4.4781947
     25:  4.7165915
     26:  4.4723458
     27:  4.4373121
     28:  4.5022011
     29:  4.2491099
     30:  4.5576944
     31:  4.5747451
     32:  4.2130226
     33:  4.2856204
     34:  4.5686682
     35:  4.5601217
     36:  2.7669161
     37:  4.1499910
     38:  1.0988511
     39:  1.1028967
     40:  1.1000441
     41:  1.0913010
     42:  1.1092105
     43:  1.0870329
     44:  1.1767060
     45:  1.0996312
     46:  1.1087243
     47:  1.1128248
     48:  1.1809851
     49:  1.1045863
     50:  1.1082607
     51:  1.1058020
     52:  1.0974514
     53:  1.1079182
     54:  1.1086966
     55:  1.0985570
     56:  1.0470629
     57:  1.0541517
     58:  1.1107629
     59:  1.1326857
     60:  1.1082762
     61:  1.1066516
     62:  1.0707032
     63:  1.0603795
     64:  1.0474334
     65:  1.0873945
     66:  1.1056692
     67:  1.1081639
     68:  1.1068525


    Psi4 stopped on: Tuesday, 14 April 2020 01:06PM
    Psi4 wall time for execution: 0:23:09.93

*** Psi4 exiting successfully. Buy a developer a beer!
