
    -----------------------------------------------------------------------
          Psi4: An Open-Source Ab Initio Electronic Structure Package
                               Psi4 1.3.2 release

                         Git: Rev {HEAD} ecbda83 


    R. M. Parrish, L. A. Burns, D. G. A. Smith, A. C. Simmonett,
    A. E. DePrince III, E. G. Hohenstein, U. Bozkaya, A. Yu. Sokolov,
    R. Di Remigio, R. M. Richard, J. F. Gonthier, A. M. James,
    H. R. McAlexander, A. Kumar, M. Saitow, X. Wang, B. P. Pritchard,
    P. Verma, H. F. Schaefer III, K. Patkowski, R. A. King, E. F. Valeev,
    F. A. Evangelista, J. M. Turney, T. D. Crawford, and C. D. Sherrill,
    J. Chem. Theory Comput. 13(7) pp 3185--3197 (2017).
    (doi: 10.1021/acs.jctc.7b00174)


                         Additional Contributions by
    P. Kraus, H. Kruse, M. H. Lechner, M. C. Schieber, R. A. Shaw,
    A. Alenaizan, R. Galvelis, Z. L. Glick, S. Lehtola, and J. P. Misiewicz

    -----------------------------------------------------------------------


    Psi4 started on: Friday, 24 April 2020 12:00PM

    Process ID: 96304
    Host:       node80.bme.utexas.edu
    PSIDATADIR: /home/bdw2292/miniconda3/envs/p4env/share/psi4
    Memory:     500.0 MiB
    Threads:    1
    
  ==> Input File <==

--------------------------------------------------------------------------
molecule { 
0 1
 C    1.002231    4.816184   -1.049735
 C    2.306340    4.547324   -0.612513
 C    2.745668    3.214522   -0.493052
 C    1.809459    2.219537   -0.868132
 N    0.559956    2.455681   -1.288470
 C    0.169758    3.737373   -1.369787
 C    4.118806    2.822250   -0.008294
 C    5.182144    3.707019    0.234911
 C    6.379813    3.118714    0.660188
 N    6.549623    1.811597    0.850071
 C    5.471340    1.038903    0.609550
 N    4.292095    1.504141    0.195627
 N    5.644658   -0.317288    0.821955
 C    4.808502   -1.463186    0.564368
 C    5.398288   -2.757680    0.441880
 C    4.538470   -3.833360    0.161511
 C    3.154063   -3.706253   -0.003645
 C    2.582825   -2.438086    0.146021
 C    3.418482   -1.347616    0.433870
 N    1.191307   -2.124195    0.011790
 C    0.123705   -2.869445   -0.434070
 C   -1.195611   -2.149803   -0.654596
 C   -1.305928   -0.787487   -0.985503
 C   -2.561216   -0.192279   -1.133895
 C   -3.749850   -0.931576   -0.983088
 C   -3.624268   -2.304578   -0.696578
 C   -2.373741   -2.907778   -0.542653
 C   -5.125848   -0.281218   -1.150598
 N   -6.198383   -0.630077   -0.202234
 C   -7.596712   -0.291497   -0.545312
 C   -8.007797    1.124406   -0.066849
 N   -7.764854    1.376863    1.375825
 C   -8.801795    0.906462    2.301889
 C   -6.367172    1.005817    1.711143
 C   -5.952465   -0.411369    1.239846
 O    0.209626   -4.071664   -0.635021
 C    6.890732   -3.008134    0.578342
 H    0.638495    5.835588   -1.138642
 H    2.950930    5.383055   -0.350870
 H    2.088053    1.170494   -0.851719
 H   -0.851273    3.894245   -1.714655
 H    5.132187    4.779914    0.095210
 H    7.270210    3.712785    0.863952
 H    6.602187   -0.495273    1.084933
 H    4.958925   -4.832194    0.051428
 H    2.528576   -4.558056   -0.239492
 H    2.979639   -0.372868    0.569098
 H    0.964562   -1.164976    0.231841
 H   -0.409836   -0.187044   -1.126562
 H   -2.604388    0.870425   -1.372047
 H   -4.519175   -2.915711   -0.587354
 H   -2.295071   -3.969510   -0.320884
 H   -4.979736    0.807521   -1.166586
 H   -5.516673   -0.561608   -2.139098
 H   -7.787114   -0.417888   -1.777522
 H   -8.460417   -1.263968    0.108295
 H   -9.221436    1.343325   -0.326331
 H   -7.210235    2.108763   -0.813337
 H   -8.865069   -0.187801    2.295043
 H   -9.777327    1.318920    2.019391
 H   -8.579195    1.241653    3.321472
 H   -6.193193    1.124412    2.977975
 H   -5.488883    1.992919    1.045452
 H   -6.719870   -1.370362    1.963235
 H   -4.758060   -0.636839    1.515760
 H    7.274351   -2.743930    1.574170
 H    7.456840   -2.422769   -0.151680
 H    7.159430   -4.054978    0.413741
}
memory 20GB
set_num_threads(6)
psi4_io.set_default_path("/scratch/bdw2292")
set freeze_core True
E, wfn = energy('mp2/6-311+G*',return_wfn=True)
oeprop(wfn,"WIBERG_LOWDIN_INDICES")
clean()
--------------------------------------------------------------------------

  Memory set to  18.626 GiB by Python driver.
  Threads set to 6 by Python driver.
    SCF Algorithm Type (re)set to DF.

*** tstart() called on node80.bme.utexas.edu
*** at Fri Apr 24 12:00:11 2020

   => Loading Basis Set <=

    Name: 6-311+G*
    Role: ORBITAL
    Keyword: BASIS
    atoms 1-4, 6-9, 11, 14-19, 21-28, 30-31, 33-35, 37 entry C          line   130 file /home/bdw2292/miniconda3/envs/p4env/share/psi4/basis/6-311pgs.gbs 
    atoms 5, 10, 12-13, 20, 29, 32                     entry N          line   151 file /home/bdw2292/miniconda3/envs/p4env/share/psi4/basis/6-311pgs.gbs 
    atoms 36                                           entry O          line   172 file /home/bdw2292/miniconda3/envs/p4env/share/psi4/basis/6-311pgs.gbs 
    atoms 38-68                                        entry H          line    47 file /home/bdw2292/miniconda3/envs/p4env/share/psi4/basis/6-311pgs.gbs 


         ---------------------------------------------------------
                                   SCF
               by Justin Turney, Rob Parrish, Andy Simmonett
                          and Daniel G. A. Smith
                              RHF Reference
                        6 Threads,  19073 MiB Core
         ---------------------------------------------------------

  ==> Geometry <==

    Molecular point group: c1
    Full point group: C1

    Geometry (in Angstrom), charge = 0, multiplicity = 1:

       Center              X                  Y                   Z               Mass       
    ------------   -----------------  -----------------  -----------------  -----------------
         C            0.884905101904     4.811436425398    -1.030427563564    12.000000000000
         C            2.189014101904     4.542576425398    -0.593205563564    12.000000000000
         C            2.628342101904     3.209774425398    -0.473744563564    12.000000000000
         C            1.692133101904     2.214789425398    -0.848824563564    12.000000000000
         N            0.442630101904     2.450933425398    -1.269162563564    14.003074004430
         C            0.052432101904     3.732625425398    -1.350479563564    12.000000000000
         C            4.001480101904     2.817502425398     0.011013436436    12.000000000000
         C            5.064818101904     3.702271425398     0.254218436436    12.000000000000
         C            6.262487101904     3.113966425398     0.679495436436    12.000000000000
         N            6.432297101904     1.806849425398     0.869378436436    14.003074004430
         C            5.354014101904     1.034155425398     0.628857436436    12.000000000000
         N            4.174769101904     1.499393425398     0.214934436436    14.003074004430
         N            5.527332101904    -0.322035574602     0.841262436436    14.003074004430
         C            4.691176101904    -1.467933574602     0.583675436436    12.000000000000
         C            5.280962101904    -2.762427574602     0.461187436436    12.000000000000
         C            4.421144101904    -3.838107574602     0.180818436436    12.000000000000
         C            3.036737101904    -3.711000574602     0.015662436436    12.000000000000
         C            2.465499101904    -2.442833574602     0.165328436436    12.000000000000
         C            3.301156101904    -1.352363574602     0.453177436436    12.000000000000
         N            1.073981101904    -2.128942574602     0.031097436436    14.003074004430
         C            0.006379101904    -2.874192574602    -0.414762563564    12.000000000000
         C           -1.312936898096    -2.154550574602    -0.635288563564    12.000000000000
         C           -1.423253898096    -0.792234574602    -0.966195563564    12.000000000000
         C           -2.678541898096    -0.197026574602    -1.114587563564    12.000000000000
         C           -3.867175898096    -0.936323574602    -0.963780563564    12.000000000000
         C           -3.741593898096    -2.309325574602    -0.677270563564    12.000000000000
         C           -2.491066898096    -2.912525574602    -0.523345563564    12.000000000000
         C           -5.243173898096    -0.285965574602    -1.131290563564    12.000000000000
         N           -6.315708898096    -0.634824574602    -0.182926563564    14.003074004430
         C           -7.714037898096    -0.296244574602    -0.526004563564    12.000000000000
         C           -8.125122898096     1.119658425398    -0.047541563564    12.000000000000
         N           -7.882179898096     1.372115425398     1.395132436436    14.003074004430
         C           -8.919120898096     0.901714425398     2.321196436436    12.000000000000
         C           -6.484497898096     1.001069425398     1.730450436436    12.000000000000
         C           -6.069790898096    -0.416116574602     1.259153436436    12.000000000000
         O            0.092300101904    -4.076411574602    -0.615713563564    15.994914619570
         C            6.773406101904    -3.012881574602     0.597649436436    12.000000000000
         H            0.521169101904     5.830840425398    -1.119334563564     1.007825032230
         H            2.833604101904     5.378307425398    -0.331562563564     1.007825032230
         H            1.970727101904     1.165746425398    -0.832411563564     1.007825032230
         H           -0.968598898096     3.889497425398    -1.695347563564     1.007825032230
         H            5.014861101904     4.775166425398     0.114517436436     1.007825032230
         H            7.152884101904     3.708037425398     0.883259436436     1.007825032230
         H            6.484861101904    -0.500020574602     1.104240436436     1.007825032230
         H            4.841599101904    -4.836941574602     0.070735436436     1.007825032230
         H            2.411250101904    -4.562803574602    -0.220184563564     1.007825032230
         H            2.862313101904    -0.377615574602     0.588405436436     1.007825032230
         H            0.847236101904    -1.169723574602     0.251148436436     1.007825032230
         H           -0.527161898096    -0.191791574602    -1.107254563564     1.007825032230
         H           -2.721713898096     0.865677425398    -1.352739563564     1.007825032230
         H           -4.636500898096    -2.920458574602    -0.568046563564     1.007825032230
         H           -2.412396898096    -3.974257574602    -0.301576563564     1.007825032230
         H           -5.097061898096     0.802773425398    -1.147278563564     1.007825032230
         H           -5.633998898096    -0.566355574602    -2.119790563564     1.007825032230
         H           -7.904439898096    -0.422635574602    -1.758214563564     1.007825032230
         H           -8.577742898096    -1.268715574602     0.127602436436     1.007825032230
         H           -9.338761898096     1.338577425398    -0.307023563564     1.007825032230
         H           -7.327560898096     2.104015425398    -0.794029563564     1.007825032230
         H           -8.982394898096    -0.192548574602     2.314350436436     1.007825032230
         H           -9.894652898096     1.314172425398     2.038698436436     1.007825032230
         H           -8.696520898096     1.236905425398     3.340779436436     1.007825032230
         H           -6.310518898096     1.119664425398     2.997282436436     1.007825032230
         H           -5.606208898096     1.988171425398     1.064759436436     1.007825032230
         H           -6.837195898096    -1.375109574602     1.982542436436     1.007825032230
         H           -4.875385898096    -0.641586574602     1.535067436436     1.007825032230
         H            7.157025101904    -2.748677574602     1.593477436436     1.007825032230
         H            7.339514101904    -2.427516574602    -0.132372563564     1.007825032230
         H            7.042104101904    -4.059725574602     0.433048436436     1.007825032230

  Running in c1 symmetry.

  Rotational constants: A =      0.00486  B =      0.00144  C =      0.00117 [cm^-1]
  Rotational constants: A =    145.59350  B =     43.22638  C =     35.20723 [MHz]
  Nuclear repulsion = 3626.215421838762268

  Charge       = 0
  Multiplicity = 1
  Electrons    = 262
  Nalpha       = 131
  Nbeta        = 131

  ==> Algorithm <==

  SCF Algorithm Type is DF.
  DIIS enabled.
  MOM disabled.
  Fractional occupation disabled.
  Guess Type is SAD.
  Energy threshold   = 1.00e-08
  Density threshold  = 1.00e-08
  Integral threshold = 0.00e+00

  ==> Primary Basis <==

  Basis Set: 6-311+G*
    Blend: 6-311+G*
    Number of shells: 463
    Number of basis function: 907
    Number of Cartesian functions: 944
    Spherical Harmonics?: true
    Max angular momentum: 2

   => Loading Basis Set <=

    Name: (6-311+G* AUX)
    Role: JKFIT
    Keyword: DF_BASIS_SCF
    atoms 1-4, 6-9, 11, 14-19, 21-28, 30-31, 33-35, 37 entry C          line   200 file /home/bdw2292/miniconda3/envs/p4env/share/psi4/basis/heavy-aug-cc-pvtz-jkfit.gbs 
    atoms 5, 10, 12-13, 20, 29, 32                     entry N          line   262 file /home/bdw2292/miniconda3/envs/p4env/share/psi4/basis/heavy-aug-cc-pvtz-jkfit.gbs 
    atoms 36                                           entry O          line   324 file /home/bdw2292/miniconda3/envs/p4env/share/psi4/basis/heavy-aug-cc-pvtz-jkfit.gbs 
    atoms 38-68                                        entry H          line   116 file /home/bdw2292/miniconda3/envs/p4env/share/psi4/basis/heavy-aug-cc-pvtz-jkfit.gbs 

  ==> Pre-Iterations <==

   -------------------------------------------------------
    Irrep   Nso     Nmo     Nalpha   Nbeta   Ndocc  Nsocc
   -------------------------------------------------------
     A        907     907       0       0       0       0
   -------------------------------------------------------
    Total     907     907     131     131     131       0
   -------------------------------------------------------

  ==> Integral Setup <==

  ==> DiskDFJK: Density-Fitted J/K Matrices <==

    J tasked:                  Yes
    K tasked:                  Yes
    wK tasked:                  No
    OpenMP threads:              6
    Integrals threads:           6
    Memory [MiB]:            14305
    Algorithm:                Core
    Integral Cache:           NONE
    Schwarz Cutoff:          1E-12
    Fitting Condition:       1E-10

   => Auxiliary Basis Set <=

  Basis Set: (6-311+G* AUX)
    Blend: HEAVY-AUG-CC-PVTZ-JKFIT
    Number of shells: 1420
    Number of basis function: 4778
    Number of Cartesian functions: 5932
    Spherical Harmonics?: true
    Max angular momentum: 4

  Minimum eigenvalue in the overlap matrix is 1.0172067525E-07.
  Using Symmetric Orthogonalization.

  SCF Guess: Superposition of Atomic Densities via on-the-fly atomic UHF.

  ==> Iterations <==

                           Total Energy        Delta E     RMS |[F,P]|

   @DF-RHF iter SAD: -1570.88931428322758   -1.57089e+03   0.00000e+00 
   @DF-RHF iter   1: -1571.31943813915200   -4.30124e-01   1.37159e-03 DIIS
   @DF-RHF iter   2: -1572.07866596367194   -7.59228e-01   7.18348e-04 DIIS
   @DF-RHF iter   3: -1572.26575026579485   -1.87084e-01   1.81530e-04 DIIS
   @DF-RHF iter   4: -1572.28173690292533   -1.59866e-02   7.14902e-05 DIIS
   @DF-RHF iter   5: -1572.28403600202591   -2.29910e-03   1.47136e-05 DIIS
   @DF-RHF iter   6: -1572.28417332022559   -1.37318e-04   6.68815e-06 DIIS
   @DF-RHF iter   7: -1572.28420625564172   -3.29354e-05   2.16602e-06 DIIS
   @DF-RHF iter   8: -1572.28421144281288   -5.18717e-06   8.59659e-07 DIIS
   @DF-RHF iter   9: -1572.28421233465633   -8.91843e-07   3.54292e-07 DIIS
   @DF-RHF iter  10: -1572.28421251057580   -1.75919e-07   1.53011e-07 DIIS
   @DF-RHF iter  11: -1572.28421254523505   -3.46593e-08   7.55378e-08 DIIS
   @DF-RHF iter  12: -1572.28421255466287   -9.42782e-09   2.93784e-08 DIIS
   @DF-RHF iter  13: -1572.28421255625199   -1.58911e-09   1.25839e-08 DIIS
   @DF-RHF iter  14: -1572.28421255656849   -3.16504e-10   6.05187e-09 DIIS
  Energy and wave function converged.


  ==> Post-Iterations <==

    Orbital Energies [Eh]
    ---------------------

    Doubly Occupied:                                                      

       1A    -20.518340     2A    -15.603425     3A    -15.600665  
       4A    -15.586501     5A    -15.573044     6A    -15.567369  
       7A    -15.567133     8A    -15.566189     9A    -11.373761  
      10A    -11.362669    11A    -11.333896    12A    -11.322342  
      13A    -11.320725    14A    -11.320266    15A    -11.313834  
      16A    -11.312579    17A    -11.301449    18A    -11.300495  
      19A    -11.300250    20A    -11.292196    21A    -11.289711  
      22A    -11.279825    23A    -11.275114    24A    -11.265909  
      25A    -11.259473    26A    -11.255187    27A    -11.253835  
      28A    -11.252612    29A    -11.251412    30A    -11.246369  
      31A    -11.245120    32A    -11.244548    33A    -11.239382  
      34A    -11.238895    35A    -11.233591    36A    -11.230934  
      37A    -11.224498    38A     -1.383938    39A     -1.344976  
      40A     -1.278391    41A     -1.250014    42A     -1.249004  
      43A     -1.241166    44A     -1.209274    45A     -1.203768  
      46A     -1.158663    47A     -1.139165    48A     -1.115922  
      49A     -1.075058    50A     -1.057996    51A     -1.048076  
      52A     -1.037243    53A     -1.018894    54A     -1.007370  
      55A     -0.993711    56A     -0.975642    57A     -0.946981  
      58A     -0.929756    59A     -0.926326    60A     -0.900604  
      61A     -0.872587    62A     -0.864203    63A     -0.857860  
      64A     -0.841972    65A     -0.830764    66A     -0.826743  
      67A     -0.823748    68A     -0.804348    69A     -0.776842  
      70A     -0.754346    71A     -0.738943    72A     -0.729406  
      73A     -0.722163    74A     -0.700199    75A     -0.693743  
      76A     -0.682670    77A     -0.668752    78A     -0.665624  
      79A     -0.657801    80A     -0.652298    81A     -0.649855  
      82A     -0.643925    83A     -0.635037    84A     -0.627189  
      85A     -0.624750    86A     -0.620436    87A     -0.612428  
      88A     -0.607220    89A     -0.605438    90A     -0.602483  
      91A     -0.597823    92A     -0.596364    93A     -0.592801  
      94A     -0.589119    95A     -0.584879    96A     -0.582949  
      97A     -0.580389    98A     -0.575298    99A     -0.561173  
     100A     -0.558637   101A     -0.548461   102A     -0.547066  
     103A     -0.544743   104A     -0.527820   105A     -0.522454  
     106A     -0.516718   107A     -0.514031   108A     -0.511224  
     109A     -0.508091   110A     -0.500108   111A     -0.496224  
     112A     -0.494063   113A     -0.484508   114A     -0.477577  
     115A     -0.460508   116A     -0.451245   117A     -0.442620  
     118A     -0.437383   119A     -0.426012   120A     -0.424273  
     121A     -0.413769   122A     -0.407603   123A     -0.399807  
     124A     -0.387375   125A     -0.372723   126A     -0.345595  
     127A     -0.339591   128A     -0.336582   129A     -0.321147  
     130A     -0.313152   131A     -0.289585  

    Virtual:                                                              

     132A      0.043128   133A      0.048279   134A      0.056059  
     135A      0.063134   136A      0.066457   137A      0.068700  
     138A      0.071453   139A      0.073154   140A      0.074857  
     141A      0.080531   142A      0.080692   143A      0.082252  
     144A      0.084171   145A      0.088842   146A      0.090890  
     147A      0.093094   148A      0.097652   149A      0.098024  
     150A      0.100548   151A      0.103570   152A      0.103953  
     153A      0.105391   154A      0.107951   155A      0.110552  
     156A      0.112318   157A      0.115964   158A      0.116920  
     159A      0.117642   160A      0.120728   161A      0.123295  
     162A      0.125403   163A      0.128943   164A      0.133010  
     165A      0.134854   166A      0.136589   167A      0.138821  
     168A      0.140821   169A      0.143890   170A      0.145333  
     171A      0.147384   172A      0.150272   173A      0.151224  
     174A      0.152551   175A      0.155683   176A      0.158247  
     177A      0.160687   178A      0.166160   179A      0.167906  
     180A      0.169753   181A      0.171959   182A      0.173606  
     183A      0.176285   184A      0.177791   185A      0.182530  
     186A      0.187535   187A      0.190249   188A      0.190678  
     189A      0.192844   190A      0.197017   191A      0.198424  
     192A      0.199610   193A      0.200284   194A      0.206463  
     195A      0.210470   196A      0.212643   197A      0.214469  
     198A      0.218374   199A      0.219957   200A      0.221247  
     201A      0.223986   202A      0.225668   203A      0.228332  
     204A      0.228829   205A      0.231134   206A      0.234122  
     207A      0.237141   208A      0.239331   209A      0.242055  
     210A      0.245428   211A      0.250339   212A      0.251945  
     213A      0.256209   214A      0.257229   215A      0.260566  
     216A      0.261504   217A      0.261797   218A      0.265773  
     219A      0.266961   220A      0.270074   221A      0.273457  
     222A      0.275290   223A      0.275882   224A      0.278330  
     225A      0.280422   226A      0.282727   227A      0.285291  
     228A      0.287259   229A      0.289102   230A      0.290154  
     231A      0.292196   232A      0.294722   233A      0.297546  
     234A      0.301158   235A      0.302505   236A      0.303767  
     237A      0.305354   238A      0.308004   239A      0.309227  
     240A      0.310864   241A      0.314057   242A      0.315896  
     243A      0.316757   244A      0.318204   245A      0.322920  
     246A      0.326865   247A      0.327402   248A      0.328315  
     249A      0.328850   250A      0.331650   251A      0.332391  
     252A      0.333724   253A      0.338494   254A      0.339001  
     255A      0.340916   256A      0.343619   257A      0.345673  
     258A      0.348075   259A      0.349501   260A      0.350344  
     261A      0.352984   262A      0.353754   263A      0.357681  
     264A      0.359214   265A      0.359303   266A      0.362511  
     267A      0.363100   268A      0.364517   269A      0.365941  
     270A      0.367050   271A      0.368341   272A      0.370683  
     273A      0.374184   274A      0.376184   275A      0.377286  
     276A      0.378599   277A      0.380737   278A      0.383806  
     279A      0.385414   280A      0.386914   281A      0.389452  
     282A      0.391656   283A      0.393354   284A      0.393630  
     285A      0.395036   286A      0.398763   287A      0.399880  
     288A      0.401910   289A      0.404347   290A      0.405304  
     291A      0.407732   292A      0.411152   293A      0.413834  
     294A      0.414582   295A      0.418047   296A      0.419955  
     297A      0.420695   298A      0.425017   299A      0.425302  
     300A      0.429066   301A      0.432383   302A      0.432776  
     303A      0.433355   304A      0.435708   305A      0.436488  
     306A      0.442865   307A      0.444908   308A      0.447222  
     309A      0.449463   310A      0.450426   311A      0.454593  
     312A      0.457182   313A      0.461497   314A      0.465297  
     315A      0.466456   316A      0.468948   317A      0.472275  
     318A      0.476229   319A      0.478587   320A      0.482032  
     321A      0.482677   322A      0.489312   323A      0.493266  
     324A      0.498318   325A      0.499073   326A      0.503972  
     327A      0.506181   328A      0.507738   329A      0.511708  
     330A      0.514657   331A      0.517844   332A      0.521700  
     333A      0.525006   334A      0.526705   335A      0.529648  
     336A      0.536882   337A      0.541449   338A      0.543951  
     339A      0.547236   340A      0.550381   341A      0.556447  
     342A      0.565552   343A      0.571313   344A      0.575225  
     345A      0.581451   346A      0.586559   347A      0.589567  
     348A      0.597248   349A      0.600175   350A      0.602394  
     351A      0.606306   352A      0.610513   353A      0.613532  
     354A      0.620237   355A      0.623386   356A      0.630424  
     357A      0.652963   358A      0.658055   359A      0.658642  
     360A      0.663045   361A      0.667151   362A      0.677725  
     363A      0.681473   364A      0.689507   365A      0.690695  
     366A      0.696580   367A      0.697756   368A      0.704073  
     369A      0.711158   370A      0.713906   371A      0.719842  
     372A      0.727423   373A      0.728774   374A      0.734746  
     375A      0.738568   376A      0.742104   377A      0.743261  
     378A      0.748205   379A      0.749939   380A      0.755925  
     381A      0.757392   382A      0.759163   383A      0.763248  
     384A      0.766289   385A      0.767771   386A      0.769714  
     387A      0.773013   388A      0.775966   389A      0.786976  
     390A      0.792835   391A      0.793482   392A      0.798253  
     393A      0.800121   394A      0.803798   395A      0.810033  
     396A      0.813992   397A      0.815614   398A      0.819212  
     399A      0.826366   400A      0.828972   401A      0.830592  
     402A      0.835223   403A      0.838302   404A      0.840512  
     405A      0.843627   406A      0.847009   407A      0.852777  
     408A      0.854155   409A      0.856238   410A      0.861762  
     411A      0.864424   412A      0.865589   413A      0.869542  
     414A      0.876225   415A      0.879304   416A      0.882105  
     417A      0.885930   418A      0.889826   419A      0.891425  
     420A      0.895681   421A      0.899596   422A      0.905150  
     423A      0.906577   424A      0.911606   425A      0.914540  
     426A      0.916999   427A      0.919091   428A      0.921035  
     429A      0.924360   430A      0.927254   431A      0.928166  
     432A      0.930837   433A      0.939397   434A      0.942002  
     435A      0.943370   436A      0.945430   437A      0.947000  
     438A      0.950772   439A      0.955556   440A      0.958062  
     441A      0.958839   442A      0.965609   443A      0.969171  
     444A      0.972175   445A      0.975168   446A      0.978739  
     447A      0.984623   448A      0.986309   449A      0.990401  
     450A      0.990628   451A      0.996188   452A      1.002354  
     453A      1.008131   454A      1.012443   455A      1.017647  
     456A      1.023557   457A      1.028076   458A      1.036317  
     459A      1.039402   460A      1.048696   461A      1.053146  
     462A      1.055457   463A      1.059884   464A      1.064833  
     465A      1.066377   466A      1.067869   467A      1.076388  
     468A      1.085185   469A      1.093889   470A      1.097897  
     471A      1.101747   472A      1.102294   473A      1.107074  
     474A      1.109016   475A      1.120942   476A      1.123186  
     477A      1.127014   478A      1.132345   479A      1.135489  
     480A      1.140606   481A      1.142379   482A      1.149622  
     483A      1.157215   484A      1.158778   485A      1.165449  
     486A      1.166061   487A      1.170418   488A      1.175474  
     489A      1.178784   490A      1.180133   491A      1.184579  
     492A      1.187954   493A      1.192239   494A      1.193958  
     495A      1.201571   496A      1.204917   497A      1.210358  
     498A      1.214917   499A      1.218318   500A      1.228292  
     501A      1.228822   502A      1.233539   503A      1.237215  
     504A      1.242375   505A      1.243888   506A      1.248993  
     507A      1.256262   508A      1.262034   509A      1.267876  
     510A      1.272109   511A      1.277913   512A      1.280497  
     513A      1.285858   514A      1.287338   515A      1.288477  
     516A      1.296335   517A      1.301643   518A      1.306060  
     519A      1.318549   520A      1.320841   521A      1.329269  
     522A      1.337937   523A      1.342808   524A      1.351629  
     525A      1.365889   526A      1.375252   527A      1.378575  
     528A      1.381910   529A      1.395045   530A      1.398037  
     531A      1.407049   532A      1.415609   533A      1.427395  
     534A      1.437572   535A      1.445736   536A      1.446578  
     537A      1.454069   538A      1.455677   539A      1.458863  
     540A      1.463933   541A      1.473832   542A      1.474734  
     543A      1.484077   544A      1.493641   545A      1.497160  
     546A      1.502286   547A      1.511747   548A      1.516281  
     549A      1.528331   550A      1.538063   551A      1.546203  
     552A      1.549223   553A      1.553913   554A      1.566868  
     555A      1.570372   556A      1.578201   557A      1.588294  
     558A      1.592601   559A      1.599808   560A      1.610627  
     561A      1.630505   562A      1.638710   563A      1.646146  
     564A      1.655336   565A      1.674932   566A      1.686864  
     567A      1.702762   568A      1.710545   569A      1.727837  
     570A      1.741638   571A      1.744362   572A      1.750522  
     573A      1.759473   574A      1.773067   575A      1.784259  
     576A      1.787870   577A      1.796371   578A      1.801905  
     579A      1.807945   580A      1.812843   581A      1.818734  
     582A      1.821582   583A      1.827355   584A      1.829515  
     585A      1.837647   586A      1.841134   587A      1.848370  
     588A      1.850020   589A      1.856855   590A      1.857579  
     591A      1.861836   592A      1.864788   593A      1.870251  
     594A      1.873489   595A      1.876068   596A      1.878342  
     597A      1.880512   598A      1.888480   599A      1.909014  
     600A      1.925290   601A      1.931590   602A      1.938794  
     603A      1.951019   604A      1.955124   605A      1.961023  
     606A      1.968180   607A      1.970163   608A      1.996107  
     609A      1.999494   610A      2.009400   611A      2.018513  
     612A      2.033730   613A      2.036832   614A      2.039537  
     615A      2.046045   616A      2.051542   617A      2.056368  
     618A      2.069701   619A      2.072410   620A      2.081453  
     621A      2.087591   622A      2.091296   623A      2.097586  
     624A      2.111292   625A      2.114220   626A      2.115610  
     627A      2.126225   628A      2.135000   629A      2.145666  
     630A      2.152273   631A      2.154255   632A      2.175806  
     633A      2.180183   634A      2.184793   635A      2.191289  
     636A      2.195701   637A      2.204121   638A      2.212981  
     639A      2.218089   640A      2.221446   641A      2.225567  
     642A      2.234224   643A      2.239865   644A      2.241196  
     645A      2.247372   646A      2.251939   647A      2.256185  
     648A      2.257347   649A      2.265567   650A      2.270463  
     651A      2.277062   652A      2.289401   653A      2.293104  
     654A      2.303867   655A      2.313989   656A      2.324007  
     657A      2.368485   658A      2.377961   659A      2.380384  
     660A      2.391441   661A      2.402442   662A      2.409313  
     663A      2.433627   664A      2.444643   665A      2.454209  
     666A      2.474705   667A      2.491062   668A      2.501488  
     669A      2.506786   670A      2.508229   671A      2.537785  
     672A      2.546504   673A      2.553777   674A      2.570090  
     675A      2.603746   676A      2.626236   677A      2.638839  
     678A      2.646500   679A      2.647756   680A      2.652952  
     681A      2.655608   682A      2.661340   683A      2.666057  
     684A      2.667745   685A      2.673791   686A      2.677067  
     687A      2.687357   688A      2.688880   689A      2.690275  
     690A      2.702279   691A      2.706234   692A      2.725732  
     693A      2.739999   694A      2.754203   695A      2.768960  
     696A      2.771062   697A      2.781400   698A      2.785473  
     699A      2.789149   700A      2.802307   701A      2.817930  
     702A      2.828297   703A      2.832790   704A      2.857899  
     705A      2.863836   706A      2.873432   707A      2.876368  
     708A      2.885431   709A      2.886237   710A      2.890333  
     711A      2.902950   712A      2.907555   713A      2.915975  
     714A      2.927262   715A      2.935204   716A      2.936761  
     717A      2.952274   718A      2.957150   719A      2.966221  
     720A      2.981267   721A      2.984960   722A      2.989539  
     723A      2.994971   724A      3.015736   725A      3.027259  
     726A      3.035252   727A      3.043435   728A      3.047436  
     729A      3.051952   730A      3.062420   731A      3.073974  
     732A      3.082009   733A      3.083751   734A      3.089587  
     735A      3.100346   736A      3.102106   737A      3.112343  
     738A      3.134778   739A      3.150010   740A      3.150699  
     741A      3.158625   742A      3.165847   743A      3.172367  
     744A      3.178651   745A      3.190339   746A      3.204687  
     747A      3.207246   748A      3.216314   749A      3.226429  
     750A      3.234150   751A      3.238503   752A      3.240691  
     753A      3.257204   754A      3.268112   755A      3.278618  
     756A      3.293538   757A      3.296467   758A      3.306874  
     759A      3.315199   760A      3.319436   761A      3.327447  
     762A      3.340555   763A      3.344612   764A      3.350848  
     765A      3.351619   766A      3.365571   767A      3.366066  
     768A      3.369828   769A      3.380983   770A      3.384954  
     771A      3.386054   772A      3.397446   773A      3.421008  
     774A      3.431891   775A      3.472286   776A      3.489214  
     777A      3.500437   778A      3.509506   779A      3.538537  
     780A      3.558076   781A      3.566194   782A      3.567454  
     783A      3.570363   784A      3.590246   785A      3.597249  
     786A      3.609203   787A      3.631669   788A      3.637879  
     789A      3.644744   790A      3.649848   791A      3.671738  
     792A      3.685956   793A      3.699061   794A      3.700012  
     795A      3.702732   796A      3.720326   797A      3.722921  
     798A      3.740659   799A      3.752587   800A      3.762209  
     801A      3.767828   802A      3.770071   803A      3.771883  
     804A      3.775259   805A      3.788266   806A      3.795058  
     807A      3.810433   808A      3.815727   809A      3.824417  
     810A      3.828879   811A      3.842606   812A      3.855590  
     813A      3.870264   814A      3.881007   815A      3.897611  
     816A      3.906926   817A      3.922812   818A      3.930347  
     819A      3.960917   820A      3.971545   821A      4.025033  
     822A      4.027788   823A      4.048182   824A      4.068284  
     825A      4.082726   826A      4.094722   827A      4.104160  
     828A      4.132596   829A      4.160395   830A      4.183945  
     831A      4.224584   832A      4.295035   833A      4.329974  
     834A      4.360792   835A      4.383146   836A      4.396841  
     837A      4.409150   838A      4.411234   839A      4.415955  
     840A      4.422110   841A      4.442434   842A      4.461386  
     843A      4.481648   844A      4.492478   845A      4.516356  
     846A      4.537256   847A      4.594590   848A      4.617974  
     849A      4.683690   850A      4.758527   851A      4.847209  
     852A      4.871026   853A      4.945724   854A      4.989647  
     855A      5.015645   856A      5.052501   857A      5.093917  
     858A      5.169312   859A      5.201520   860A      5.222651  
     861A      5.242825   862A      5.284402   863A      5.342477  
     864A      5.582960   865A      5.642684   866A      5.685706  
     867A      5.767178   868A      5.825887   869A      5.854673  
     870A      6.380504   871A     24.535915   872A     24.591420  
     873A     24.633732   874A     24.645786   875A     24.694737  
     876A     24.713069   877A     24.782566   878A     24.805635  
     879A     24.810763   880A     24.855862   881A     24.886224  
     882A     24.971101   883A     25.001560   884A     25.009038  
     885A     25.011168   886A     25.022936   887A     25.040567  
     888A     25.056822   889A     25.065294   890A     25.071672  
     891A     25.130988   892A     25.151218   893A     25.169871  
     894A     25.182786   895A     25.193801   896A     25.200380  
     897A     25.202453   898A     25.275913   899A     25.279087  
     900A     36.900651   901A     36.937428   902A     36.970850  
     903A     36.997163   904A     37.042353   905A     37.098298  
     906A     37.141190   907A     51.757963  

    Final Occupation by Irrep:
              A 
    DOCC [   131 ]

  @DF-RHF Final Energy: -1572.28421255656849

   => Energetics <=

    Nuclear Repulsion Energy =           3626.2154218387622677
    One-Electron Energy =               -9350.6177832791399851
    Two-Electron Energy =                4152.1181488838092264
    Total Energy =                      -1572.2842125565684910

Computation Completed


Properties will be evaluated at   0.000000,   0.000000,   0.000000 [a0]

Properties computed using the SCF density matrix

  Nuclear Dipole Moment: [e a0]
     X:   -46.7609      Y:     3.0446      Z:     6.2283

  Electronic Dipole Moment: [e a0]
     X:    47.0179      Y:    -0.3723      Z:    -5.9695

  Dipole Moment: [e a0]
     X:     0.2571      Y:     2.6722      Z:     0.2587     Total:     2.6970

  Dipole Moment: [D]
     X:     0.6534      Y:     6.7922      Z:     0.6577     Total:     6.8551


*** tstop() called on node80.bme.utexas.edu at Fri Apr 24 12:10:50 2020
Module time:
	user time   =    3597.22 seconds =      59.95 minutes
	system time =      22.42 seconds =       0.37 minutes
	total time  =        639 seconds =      10.65 minutes
Total time:
	user time   =    3597.22 seconds =      59.95 minutes
	system time =      22.42 seconds =       0.37 minutes
	total time  =        639 seconds =      10.65 minutes

*** tstart() called on node80.bme.utexas.edu
*** at Fri Apr 24 12:10:50 2020


  //>>>>>>>>>>>>>>>>>>>>>>>>>>>>>>>>>>>//
  //               DFMP2               //
  //<<<<<<<<<<<<<<<<<<<<<<<<<<<<<<<<<<<//

   => Loading Basis Set <=

    Name: (6-311+G* AUX)
    Role: RIFIT
    Keyword: DF_BASIS_MP2
    atoms 1-4, 6-9, 11, 14-19, 21-28, 30-31, 33-35, 37 entry C          line   148 file /home/bdw2292/miniconda3/envs/p4env/share/psi4/basis/heavy-aug-cc-pvtz-ri.gbs 
    atoms 5, 10, 12-13, 20, 29, 32                     entry N          line   206 file /home/bdw2292/miniconda3/envs/p4env/share/psi4/basis/heavy-aug-cc-pvtz-ri.gbs 
    atoms 36                                           entry O          line   264 file /home/bdw2292/miniconda3/envs/p4env/share/psi4/basis/heavy-aug-cc-pvtz-ri.gbs 
    atoms 38-68                                        entry H          line    44 file /home/bdw2292/miniconda3/envs/p4env/share/psi4/basis/heavy-aug-cc-pvtz-ri.gbs 

	 --------------------------------------------------------
	                          DF-MP2                         
	      2nd-Order Density-Fitted Moller-Plesset Theory     
	              RMP2 Wavefunction,   6 Threads             
	                                                         
	        Rob Parrish, Justin Turney, Andy Simmonett,      
	           Ed Hohenstein, and C. David Sherrill          
	 --------------------------------------------------------

   => Auxiliary Basis Set <=

  Basis Set: (6-311+G* AUX)
    Blend: HEAVY-AUG-CC-PVTZ-RI
    Number of shells: 1346
    Number of basis function: 4852
    Number of Cartesian functions: 6117
    Spherical Harmonics?: true
    Max angular momentum: 4

	 --------------------------------------------------------
	                 NBF =   907, NAUX =  4852
	 --------------------------------------------------------
	   CLASS    FOCC     OCC    AOCC    AVIR     VIR    FVIR
	   PAIRS      37     131      94     776     776       0
	 --------------------------------------------------------

	-----------------------------------------------------------
	 ==================> DF-MP2 Energies <==================== 
	-----------------------------------------------------------
	 Reference Energy          =   -1572.2842125565684910 [Eh]
	 Singles Energy            =      -0.0000000000000000 [Eh]
	 Same-Spin Energy          =      -1.4467437273147350 [Eh]
	 Opposite-Spin Energy      =      -3.8921563581579806 [Eh]
	 Correlation Energy        =      -5.3389000854727158 [Eh]
	 Total Energy              =   -1577.6231126420411783 [Eh]
	-----------------------------------------------------------
	 ================> DF-SCS-MP2 Energies <================== 
	-----------------------------------------------------------
	 SCS Same-Spin Scale       =       0.3333333333333333 [-]
	 SCS Opposite-Spin Scale   =       1.2000000000000000 [-]
	 SCS Same-Spin Energy      =      -0.4822479091049117 [Eh]
	 SCS Opposite-Spin Energy  =      -4.6705876297895763 [Eh]
	 SCS Correlation Energy    =      -5.1528355388944878 [Eh]
	 SCS Total Energy          =   -1577.4370480954630693 [Eh]
	-----------------------------------------------------------


*** tstop() called on node80.bme.utexas.edu at Fri Apr 24 12:17:00 2020
Module time:
	user time   =    2043.45 seconds =      34.06 minutes
	system time =      20.14 seconds =       0.34 minutes
	total time  =        370 seconds =       6.17 minutes
Total time:
	user time   =    5640.68 seconds =      94.01 minutes
	system time =      42.56 seconds =       0.71 minutes
	total time  =       1009 seconds =      16.82 minutes


Properties will be evaluated at   0.000000,   0.000000,   0.000000 [a0]
OEProp: No title given, name of density matrix used for the following properties is 'SCF density'


  Wiberg Bond Indices using Orthogonal Lowdin Orbitals:

  Irrep: 1 Size: 68 x 68

                 1                   2                   3                   4                   5

    1     0.00000000000000     1.50975858601954     0.12968892724903     0.14762119625940     0.12886539264847
    2     1.50975858601954     0.00000000000000     1.42467777211037     0.13161768552998     0.12503933035012
    3     0.12968892724903     1.42467777211037     0.00000000000000     1.38235375365891     0.12248669085684
    4     0.14762119625940     0.13161768552998     1.38235375365891     0.00000000000000     1.68356632728510
    5     0.12886539264847     0.12503933035012     0.12248669085684     1.68356632728510     0.00000000000000
    6     1.51106614975942     0.14367741902684     0.13991759513188     0.15759380935700     1.64719717302334
    7     0.01549666098771     0.10571568719041     1.02708848036384     0.10686529424889     0.01453375841497
    8     0.00400095615507     0.04570399055285     0.10061717629546     0.02489621823362     0.00236570640299
    9     0.00044834837789     0.00512996584423     0.01545296333566     0.00434245630432     0.00073567810296
   10     0.00045034782092     0.00556026555039     0.00600873395414     0.00624199246212     0.00034942609116
   11     0.00094831057703     0.00353576010882     0.01846353990991     0.00743382923448     0.00050049400847
   12     0.00301517416621     0.02270516719883     0.12126879061410     0.06531681104566     0.00434633084146
   13     0.00018252534961     0.00053911997556     0.00172942657678     0.00098466477620     0.00009694293734
   14     0.00004445951796     0.00012537745249     0.00066177212164     0.00160788787735     0.00013027231642
   15     0.00001366866093     0.00003172618529     0.00009447716222     0.00019058819790     0.00002057579785
   16     0.00000398534083     0.00000977095618     0.00006275972119     0.00034043523449     0.00001659087574
   17     0.00001411660189     0.00002411127026     0.00007517320409     0.00033577077039     0.00004928320672
   18     0.00004107625743     0.00007328000285     0.00035574664572     0.00229745565285     0.00023917127431
   19     0.00021922303109     0.00030186147001     0.00232714937006     0.01196072600036     0.00064591334386
   20     0.00007475494672     0.00008468786362     0.00038283550327     0.00364248486728     0.00062934013803
   21     0.00001969562887     0.00001948973566     0.00006614203511     0.00050074472629     0.00024193896348
   22     0.00006017493351     0.00004591574310     0.00006290052977     0.00068090928997     0.00173490777781
   23     0.00059192876648     0.00040237516637     0.00052996153330     0.00778173553879     0.02514875154089
   24     0.00025581086739     0.00025457832685     0.00031909683830     0.00135884538234     0.01045892513084
   25     0.00002136618910     0.00001591621260     0.00002316191326     0.00014026369786     0.00052869605472
   26     0.00001469648711     0.00000682675711     0.00001478487420     0.00017068517981     0.00042385581131
   27     0.00001414861303     0.00000712047516     0.00001834833434     0.00019443672955     0.00052463187024
   28     0.00000706353358     0.00000396494768     0.00000406150667     0.00002813192922     0.00008889678133
   29     0.00000111212876     0.00000045489260     0.00000101890427     0.00000863504584     0.00002224022462
   30     0.00000023228175     0.00000019315799     0.00000035041951     0.00000290295784     0.00000460236175
   31     0.00000014815033     0.00000014947204     0.00000018108444     0.00000107970786     0.00000201585761
   32     0.00000031857210     0.00000005958813     0.00000016627515     0.00000041433427     0.00000080819825
   33     0.00000012422218     0.00000002999451     0.00000003898199     0.00000020285265     0.00000046039576
   34     0.00000098085377     0.00000054494959     0.00000044759326     0.00000129562446     0.00000578410474
   35     0.00000092545780     0.00000079199142     0.00000101978873     0.00000558221622     0.00001497007644
   36     0.00000242283246     0.00000347246658     0.00001689574462     0.00016367899786     0.00005042478734
   37     0.00000382650806     0.00001113108626     0.00004944107968     0.00005572141845     0.00000444732529
   38     0.84211947168101     0.05681627675717     0.00961069224109     0.00271696980245     0.00789025558677
   39     0.05348579260511     0.82966600493306     0.05228852092844     0.00960109943662     0.00126637003535
   40     0.00207619224530     0.00818862963665     0.04941213335663     0.80915516846369     0.06238221177515
   41     0.05482422138861     0.00971581206491     0.00259668548435     0.01284003838294     0.06468136995797
   42     0.00072233892576     0.01041358834618     0.01110915722163     0.00057092630433     0.00016324921394
   43     0.00003727822472     0.00020687938137     0.00109737543343     0.00026236174490     0.00006330294255
   44     0.00001384372559     0.00005050374527     0.00023672340685     0.00004404065860     0.00000605124452
   45     0.00000071239571     0.00000180602741     0.00000885069424     0.00001934677593     0.00000197404097
   46     0.00000123603560     0.00000232822003     0.00000705307811     0.00002213421985     0.00000749317827
   47     0.00005709917379     0.00007345735060     0.00134680066167     0.00520459694145     0.00026399121044
   48     0.00003625059680     0.00002604332778     0.00010028749485     0.00117258846201     0.00029587320701
   49     0.00024949731080     0.00008217860262     0.00016077433679     0.00410353507769     0.00944978585677
   50     0.00002631322577     0.00001928602223     0.00003675675734     0.00011937361156     0.00110967557059
   51     0.00000197746453     0.00000083440632     0.00000305330055     0.00001786893135     0.00002459450871
   52     0.00000205642885     0.00000109767738     0.00000280172436     0.00000806919357     0.00003859931469
   53     0.00000104815813     0.00000016284328     0.00000054655552     0.00000399288055     0.00000936645580
   54     0.00000049081768     0.00000048130254     0.00000051494004     0.00000636547799     0.00001825645842
   55     0.00000004098928     0.00000003206825     0.00000002524363     0.00000031250049     0.00000029831239
   56     0.00000002432784     0.00000007113464     0.00000003924553     0.00000088691326     0.00000161417328
   57     0.00000001565180     0.00000002435365     0.00000001587114     0.00000004098587     0.00000009257810
   58     0.00000001457338     0.00000006679018     0.00000002145984     0.00000020090651     0.00000065684807
   59     0.00000000806533     0.00000000422989     0.00000000637434     0.00000001952143     0.00000004515789
   60     0.00000000834606     0.00000000648844     0.00000000389390     0.00000001452293     0.00000006203760
   61     0.00000002658930     0.00000000491321     0.00000000788533     0.00000002821461     0.00000002247812
   62     0.00000011833074     0.00000000694932     0.00000001414656     0.00000011388517     0.00000059765694
   63     0.00000021016993     0.00000007153585     0.00000010665069     0.00000015372821     0.00000050810834
   64     0.00000023377696     0.00000012174136     0.00000010167020     0.00000025453969     0.00000083415331
   65     0.00000045149528     0.00000022926257     0.00000036909548     0.00000162763502     0.00000981204176
   66     0.00000077636294     0.00000153921285     0.00001067374112     0.00000854991441     0.00000065096092
   67     0.00000073406045     0.00000147082958     0.00000610929095     0.00000956309389     0.00000047541457
   68     0.00000034297742     0.00000073495795     0.00000399874577     0.00000876701477     0.00000042148906

                 6                   7                   8                   9                  10

    1     1.51106614975942     0.01549666098771     0.00400095615507     0.00044834837789     0.00045034782092
    2     0.14367741902684     0.10571568719041     0.04570399055285     0.00512996584423     0.00556026555039
    3     0.13991759513188     1.02708848036384     0.10061717629546     0.01545296333566     0.00600873395414
    4     0.15759380935700     0.10686529424889     0.02489621823362     0.00434245630432     0.00624199246212
    5     1.64719717302334     0.01453375841497     0.00236570640299     0.00073567810296     0.00034942609116
    6     0.00000000000000     0.01019103877415     0.00727046730232     0.00128487743457     0.00343462243814
    7     0.01019103877415     0.00000000000000     1.40924318453633     0.15005211132958     0.11299568342563
    8     0.00727046730232     1.40924318453633     0.00000000000000     1.47520511953054     0.13562158350006
    9     0.00128487743457     0.15005211132958     1.47520511953054     0.00000000000000     1.68171717900788
   10     0.00343462243814     0.11299568342563     0.13562158350006     1.68171717900788     0.00000000000000
   11     0.00091796940239     0.14262969092058     0.11674024980371     0.15496543136844     1.51533482461255
   12     0.00633682930668     1.53627218345002     0.12944291537459     0.11381249320372     0.11133818902415
   13     0.00008736716506     0.01999247152597     0.02224213300376     0.02528004640559     0.16544630127745
   14     0.00006084004664     0.00320994579546     0.00265989483979     0.00344717093274     0.01749455594387
   15     0.00000925468891     0.00056743459620     0.00153095694433     0.00100489111280     0.00332601660717
   16     0.00000614180049     0.00020456985793     0.00021472025849     0.00018706263566     0.00053104016002
   17     0.00000823036583     0.00028575870730     0.00135067549960     0.00046424738905     0.00130890710159
   18     0.00005853929575     0.00063013282329     0.00029648772689     0.00017103797882     0.00047208157806
   19     0.00024238777764     0.00635790909974     0.00338203282670     0.00169509203755     0.00461101490957
   20     0.00008487964393     0.00014422226252     0.00003478280102     0.00002381255551     0.00006953172570
   21     0.00003780156420     0.00002786747237     0.00001113993038     0.00000774155381     0.00001963089102
   22     0.00019599030503     0.00001183018807     0.00000459936441     0.00000257263415     0.00000493851384
   23     0.00250203053677     0.00008695440440     0.00002575500030     0.00000782060021     0.00000512840399
   24     0.00275306289552     0.00003605390360     0.00002287101730     0.00000387002582     0.00000381788352
   25     0.00027194173335     0.00000456130843     0.00000289139052     0.00000054739163     0.00000075204554
   26     0.00015337311288     0.00000304891238     0.00000088697421     0.00000043377196     0.00000060628782
   27     0.00013499468649     0.00000463668130     0.00000182017375     0.00000088856477     0.00000145875382
   28     0.00004608390663     0.00000139659353     0.00000044363317     0.00000013010381     0.00000009853449
   29     0.00000629676605     0.00000026945145     0.00000020767632     0.00000002473076     0.00000003018878
   30     0.00000241794965     0.00000011403447     0.00000005105413     0.00000001066347     0.00000001797517
   31     0.00000210807603     0.00000007132539     0.00000005071049     0.00000000523783     0.00000000601918
   32     0.00000864276594     0.00000007189818     0.00000003633884     0.00000000516470     0.00000000554998
   33     0.00000116899012     0.00000001690349     0.00000001019555     0.00000000229432     0.00000000264855
   34     0.00000685049096     0.00000018113267     0.00000008827664     0.00000001054106     0.00000001913008
   35     0.00001562596288     0.00000027996689     0.00000022589094     0.00000003570779     0.00000003491462
   36     0.00001177259733     0.00001453613199     0.00000944153293     0.00000551095791     0.00001326740404
   37     0.00000335858451     0.00018515671579     0.00017264780126     0.00016534473363     0.00086492461332
   38     0.05963295826829     0.00092663348593     0.00017243724679     0.00003367734550     0.00001769145551
   39     0.00971182333888     0.01303067907884     0.01089617003679     0.00074866972823     0.00018845622416
   40     0.01186320699125     0.01221017070605     0.00075109931912     0.00020177400554     0.00023244361136
   41     0.83999142805150     0.00033579401443     0.00007973496827     0.00002600775630     0.00001165747972
   42     0.00020776385538     0.05549544370832     0.82752493509805     0.05775438529662     0.00715452820521
   43     0.00003593357170     0.00944192668195     0.05383062228459     0.83803274886222     0.06625180736114
   44     0.00000446942545     0.00115160022915     0.00062451220193     0.00198533811266     0.01822444827595
   45     0.00000064322121     0.00001900182279     0.00000936062756     0.00002436035542     0.00005348648714
   46     0.00000154856605     0.00001778368160     0.00000639439543     0.00000523190718     0.00001284093825
   47     0.00008003213198     0.00275794471859     0.00041151131936     0.00023684261937     0.00021834834281
   48     0.00002831890360     0.00004220096502     0.00000960897204     0.00000276194323     0.00001135204885
   49     0.00099430899653     0.00002214564009     0.00000695646664     0.00000173733119     0.00000137449420
   50     0.00108315276504     0.00000367936975     0.00000207381321     0.00000034536529     0.00000043998772
   51     0.00000422464333     0.00000037954560     0.00000016686991     0.00000005591975     0.00000004540300
   52     0.00001515003003     0.00000109701084     0.00000024229764     0.00000011432463     0.00000014186468
   53     0.00000473250673     0.00000004903304     0.00000003425250     0.00000000913386     0.00000000781320
   54     0.00000560512874     0.00000015736990     0.00000008242704     0.00000001168104     0.00000001246574
   55     0.00000065392731     0.00000002330270     0.00000000787306     0.00000000100124     0.00000000119729
   56     0.00000072238509     0.00000002586253     0.00000000482963     0.00000000239838     0.00000000344519
   57     0.00000060907279     0.00000001279295     0.00000000666708     0.00000000047053     0.00000000056969
   58     0.00000035213488     0.00000002807072     0.00000001938162     0.00000000058518     0.00000000104190
   59     0.00000012385335     0.00000000205225     0.00000000072213     0.00000000039062     0.00000000071153
   60     0.00000007446373     0.00000000168870     0.00000000028199     0.00000000016265     0.00000000016175
   61     0.00000042912066     0.00000000321452     0.00000000160443     0.00000000070738     0.00000000012758
   62     0.00000023800768     0.00000000680978     0.00000001266612     0.00000000127400     0.00000000029667
   63     0.00000684848841     0.00000002956708     0.00000001450675     0.00000000187849     0.00000000293140
   64     0.00000782302408     0.00000005791411     0.00000005756815     0.00000000336303     0.00000000204070
   65     0.00000376447248     0.00000005522355     0.00000006187490     0.00000001732383     0.00000000736869
   66     0.00000030703044     0.00003374163704     0.00005705393705     0.00001882355570     0.00010196364145
   67     0.00000039665556     0.00002681649492     0.00009657490785     0.00001674815750     0.00016076356377
   68     0.00000020664399     0.00001442363807     0.00000583248974     0.00000360453075     0.00003361372217

                11                  12                  13                  14                  15

    1     0.00094831057703     0.00301517416621     0.00018252534961     0.00004445951796     0.00001366866093
    2     0.00353576010882     0.02270516719883     0.00053911997556     0.00012537745249     0.00003172618529
    3     0.01846353990991     0.12126879061410     0.00172942657678     0.00066177212164     0.00009447716222
    4     0.00743382923448     0.06531681104566     0.00098466477620     0.00160788787735     0.00019058819790
    5     0.00050049400847     0.00434633084146     0.00009694293734     0.00013027231642     0.00002057579785
    6     0.00091796940239     0.00633682930668     0.00008736716506     0.00006084004664     0.00000925468891
    7     0.14262969092058     1.53627218345002     0.01999247152597     0.00320994579546     0.00056743459620
    8     0.11674024980371     0.12944291537459     0.02224213300376     0.00265989483979     0.00153095694433
    9     0.15496543136844     0.11381249320372     0.02528004640559     0.00344717093274     0.00100489111280
   10     1.51533482461255     0.11133818902415     0.16544630127745     0.01749455594387     0.00332601660717
   11     0.00000000000000     1.53712587791418     1.30238488225508     0.08557351528850     0.01850125950222
   12     1.53712587791418     0.00000000000000     0.14508991855665     0.03131197670047     0.00381265987357
   13     1.30238488225508     0.14508991855665     0.00000000000000     1.14850752792618     0.10873127518632
   14     0.08557351528850     0.03131197670047     1.14850752792618     0.00000000000000     1.32722076872091
   15     0.01850125950222     0.00381265987357     0.10873127518632     1.32722076872091     0.00000000000000
   16     0.00257227403100     0.00135022364007     0.01507016565313     0.12889024516531     1.46695584794491
   17     0.00436266067264     0.00262023842648     0.01274578283335     0.12399788026204     0.12846652255604
   18     0.00271580805075     0.00535160636118     0.01376207105659     0.12577988354809     0.12160754993366
   19     0.03053471407339     0.05865674355271     0.11418480546349     1.42766935954771     0.12205769845841
   20     0.00039253810226     0.00109842025783     0.00140467012555     0.01592395070814     0.01199340071916
   21     0.00008197119218     0.00014948544541     0.00033800370845     0.00292956257097     0.00582419312332
   22     0.00001767350453     0.00002604982244     0.00006727304825     0.00041290660959     0.00035082771680
   23     0.00001803572466     0.00010436920239     0.00001877392772     0.00014167163876     0.00038609122922
   24     0.00000389314231     0.00001538150821     0.00000406350658     0.00001784433018     0.00003956511007
   25     0.00000124979111     0.00000293083985     0.00000239819784     0.00002818644826     0.00018151314828
   26     0.00000128167496     0.00000134152254     0.00000309196209     0.00002408970674     0.00003897216369
   27     0.00000536825443     0.00000648114864     0.00001679333242     0.00011956409549     0.00034661322245
   28     0.00000027433918     0.00000064233757     0.00000050163417     0.00000321512829     0.00001136390625
   29     0.00000008931761     0.00000024163296     0.00000012572371     0.00000102040617     0.00000349991419
   30     0.00000003901420     0.00000005320517     0.00000004462811     0.00000026520274     0.00000084967603
   31     0.00000001818724     0.00000002499083     0.00000001850931     0.00000008599854     0.00000013611021
   32     0.00000001300787     0.00000001466544     0.00000000773603     0.00000004398188     0.00000021615810
   33     0.00000000627302     0.00000001923993     0.00000000583408     0.00000002323285     0.00000004196950
   34     0.00000002469623     0.00000005631710     0.00000002914891     0.00000011938178     0.00000032609928
   35     0.00000006681748     0.00000011006546     0.00000010973692     0.00000068871028     0.00000291360218
   36     0.00005269552127     0.00006964127232     0.00017361450837     0.00110874041022     0.00346753834345
   37     0.00433732571320     0.00096414676791     0.04268393252612     0.10141956417327     1.11508549528944
   38     0.00007175522128     0.00024931753706     0.00001171318005     0.00000772784235     0.00000088346386
   39     0.00014687277714     0.00037509059410     0.00005176954390     0.00002297098380     0.00000463487408
   40     0.00184161003954     0.01789638504307     0.00022274475984     0.00081410279330     0.00007856496857
   41     0.00002600548645     0.00009266356949     0.00000424892129     0.00000380968346     0.00000072592737
   42     0.00286006188898     0.00760328643994     0.00030599403491     0.00004578027858     0.00001450282562
   43     0.01302908236340     0.00139314432369     0.00080570747268     0.00029484572891     0.00004464738535
   44     0.04496208992562     0.00620778788994     0.79216202320753     0.03751862573187     0.00969087912175
   45     0.00033161090845     0.00004246721461     0.00088501313249     0.00939004364732     0.05411171606215
   46     0.00003930242392     0.00009469490611     0.00014203149676     0.00215999708755     0.00828459543704
   47     0.00720193752271     0.02468294101983     0.01194434988432     0.05067294179683     0.00745562908047
   48     0.00006345804192     0.00042942536442     0.00007671749221     0.00122412506840     0.00034032831900
   49     0.00000300011580     0.00002444829455     0.00000276265130     0.00001382613308     0.00007263819476
   50     0.00000055069052     0.00000196531956     0.00000029637169     0.00000170516817     0.00000068423772
   51     0.00000018292474     0.00000009291112     0.00000053061215     0.00000313621691     0.00000256606058
   52     0.00000063621154     0.00000058838426     0.00000132192147     0.00001222655357     0.00000752988303
   53     0.00000003029318     0.00000004539103     0.00000004402375     0.00000036984624     0.00000131599494
   54     0.00000005332195     0.00000006430552     0.00000008126737     0.00000110287642     0.00000904629368
   55     0.00000000882921     0.00000000482548     0.00000000365180     0.00000004345092     0.00000025242811
   56     0.00000000440277     0.00000000724111     0.00000000489896     0.00000001028687     0.00000002653859
   57     0.00000000178940     0.00000000292008     0.00000000222455     0.00000000350464     0.00000001040060
   58     0.00000000271955     0.00000000513041     0.00000000315665     0.00000000928322     0.00000004554488
   59     0.00000000067999     0.00000000178038     0.00000000093162     0.00000000395289     0.00000002068959
   60     0.00000000025515     0.00000000114254     0.00000000020571     0.00000000151394     0.00000000602931
   61     0.00000000100143     0.00000000039955     0.00000000057387     0.00000000711396     0.00000000326705
   62     0.00000000125999     0.00000000225858     0.00000000217162     0.00000001242026     0.00000001812098
   63     0.00000000761095     0.00000000480960     0.00000000743928     0.00000002132295     0.00000001492571
   64     0.00000000621662     0.00000000922803     0.00000000238445     0.00000001111914     0.00000002477932
   65     0.00000001407685     0.00000005515268     0.00000001722515     0.00000013325782     0.00000072462454
   66     0.00063507364218     0.00018770833194     0.00712013187483     0.01388981473934     0.04147359681386
   67     0.00081857763688     0.00022067499121     0.00801984717847     0.01378943570569     0.04196363426313
   68     0.00019472641205     0.00006137944959     0.00163446085685     0.00681462321552     0.04511644662282

                16                  17                  18                  19                  20

    1     0.00000398534083     0.00001411660189     0.00004107625743     0.00021922303109     0.00007475494672
    2     0.00000977095618     0.00002411127026     0.00007328000285     0.00030186147001     0.00008468786362
    3     0.00006275972119     0.00007517320409     0.00035574664572     0.00232714937006     0.00038283550327
    4     0.00034043523449     0.00033577077039     0.00229745565285     0.01196072600036     0.00364248486728
    5     0.00001659087574     0.00004928320672     0.00023917127431     0.00064591334386     0.00062934013803
    6     0.00000614180049     0.00000823036583     0.00005853929575     0.00024238777764     0.00008487964393
    7     0.00020456985793     0.00028575870730     0.00063013282329     0.00635790909974     0.00014422226252
    8     0.00021472025849     0.00135067549960     0.00029648772689     0.00338203282670     0.00003478280102
    9     0.00018706263566     0.00046424738905     0.00017103797882     0.00169509203755     0.00002381255551
   10     0.00053104016002     0.00130890710159     0.00047208157806     0.00461101490957     0.00006953172570
   11     0.00257227403100     0.00436266067264     0.00271580805075     0.03053471407339     0.00039253810226
   12     0.00135022364007     0.00262023842648     0.00535160636118     0.05865674355271     0.00109842025783
   13     0.01507016565313     0.01274578283335     0.01376207105659     0.11418480546349     0.00140467012555
   14     0.12889024516531     0.12399788026204     0.12577988354809     1.42766935954771     0.01592395070814
   15     1.46695584794491     0.12846652255604     0.12160754993366     0.12205769845841     0.01199340071916
   16     0.00000000000000     1.49038545860157     0.13683672088155     0.13240549349251     0.01458360617902
   17     1.49038545860157     0.00000000000000     1.42341184427405     0.12544874089798     0.10808639537052
   18     0.13683672088155     1.42341184427405     0.00000000000000     1.38856784564581     1.15112111390003
   19     0.13240549349251     0.12544874089798     1.38856784564581     0.00000000000000     0.13100152890301
   20     0.01458360617902     0.10808639537052     1.15112111390003     0.13100152890301     0.00000000000000
   21     0.00303577320061     0.03313214258556     0.08887819141630     0.02362487355143     1.34199674986662
   22     0.00042361667788     0.00359249749570     0.01518276699775     0.00230958378705     0.10610396004390
   23     0.00019063318801     0.00139779459880     0.00434170180137     0.00145883339222     0.04617208792449
   24     0.00003061416844     0.00020197915941     0.00046809943080     0.00015405384042     0.00387915132757
   25     0.00003215838076     0.00030575734140     0.00045125865129     0.00026741939951     0.00371467113722
   26     0.00002829545425     0.00016810364685     0.00057072370127     0.00013097776472     0.00273926367173
   27     0.00013132662376     0.00102629896486     0.00245967532041     0.00078088074477     0.01855111912233
   28     0.00000357063955     0.00002753555076     0.00005053272278     0.00002359359328     0.00028679443074
   29     0.00000139382317     0.00000864514369     0.00001823747053     0.00000651479520     0.00011405633255
   30     0.00000043497222     0.00000247731765     0.00000480559234     0.00000198035772     0.00002270871612
   31     0.00000014045952     0.00000083638298     0.00000172020460     0.00000062184865     0.00000552997756
   32     0.00000008150215     0.00000048218345     0.00000112894527     0.00000044822245     0.00000378158659
   33     0.00000004033907     0.00000013905934     0.00000033644189     0.00000014946548     0.00000111559009
   34     0.00000017244000     0.00000112760000     0.00000191637974     0.00000081954800     0.00000963354418
   35     0.00000096429651     0.00000682475250     0.00001110740278     0.00000526911050     0.00006700928842
   36     0.00375547467999     0.05197139288698     0.03280604473508     0.00554656704675     0.19671468777077
   37     0.12243257808694     0.01587852676113     0.00766448341449     0.01536007203497     0.00081533278114
   38     0.00000058488112     0.00000095432286     0.00000755875696     0.00002471225242     0.00000689346437
   39     0.00000177577005     0.00000228046285     0.00000497580554     0.00002881849025     0.00000632650516
   40     0.00017693994639     0.00014454331593     0.00143433973354     0.00594242532104     0.00138908813754
   41     0.00000066917761     0.00000116106345     0.00000296855204     0.00001264858076     0.00000562455415
   42     0.00000611955281     0.00000559083823     0.00002451317511     0.00012483203663     0.00000787518405
   43     0.00001124948226     0.00000561110057     0.00001341993922     0.00007315077231     0.00000122735713
   44     0.00066627134258     0.00029776700507     0.00076365358235     0.00656097941832     0.00018429438813
   45     0.83156398138411     0.05596584965408     0.00975261379700     0.00228784084556     0.00072426412301
   46     0.05504711044351     0.81105427629403     0.05427147784481     0.00889697435143     0.01065297113591
   47     0.00222740245470     0.00808211961086     0.05137664137381     0.79039993548245     0.01934971474786
   48     0.00072631038842     0.00605673201083     0.03910209838568     0.01511625258540     0.79802840960137
   49     0.00003054821103     0.00023314880714     0.00112739105921     0.00042741471082     0.01236381632312
   50     0.00000211297273     0.00001060484155     0.00002301573216     0.00000665342736     0.00011107296749
   51     0.00000241966609     0.00001473431800     0.00005820896797     0.00001747501845     0.00023207295133
   52     0.00002212567190     0.00010566685648     0.00013147913680     0.00004611935198     0.00055579681072
   53     0.00000080133439     0.00000413362371     0.00000737682784     0.00000311573836     0.00003926681114
   54     0.00000110817091     0.00001291495638     0.00001468965966     0.00001155445905     0.00011928838153
   55     0.00000004764880     0.00000041413891     0.00000053381440     0.00000033389587     0.00000272195139
   56     0.00000005405198     0.00000022058674     0.00000071723619     0.00000025534057     0.00000129472938
   57     0.00000001545711     0.00000004572191     0.00000011165210     0.00000002581466     0.00000058985928
   58     0.00000002263326     0.00000022455215     0.00000035351053     0.00000010723007     0.00000082615386
   59     0.00000000706669     0.00000003084254     0.00000005815833     0.00000002248832     0.00000047410901
   60     0.00000001046533     0.00000001110077     0.00000004652550     0.00000000621503     0.00000007428209
   61     0.00000000836142     0.00000001510103     0.00000004086312     0.00000003044218     0.00000013550283
   62     0.00000001271757     0.00000004226662     0.00000010665216     0.00000005597654     0.00000040085626
   63     0.00000002364502     0.00000020576318     0.00000043617651     0.00000008833347     0.00000206017307
   64     0.00000001371331     0.00000014089005     0.00000016680019     0.00000009100641     0.00000109283978
   65     0.00000017575879     0.00000137142543     0.00000182034035     0.00000106546620     0.00001764839048
   66     0.01286508147785     0.00085445428752     0.00286832611300     0.00079848520442     0.00037367501516
   67     0.01262087352408     0.00082133478658     0.00266376065415     0.00086435188873     0.00032658942918
   68     0.01948407876935     0.00142271013459     0.00033960303010     0.00072937203975     0.00006858925220

                21                  22                  23                  24                  25

    1     0.00001969562887     0.00006017493351     0.00059192876648     0.00025581086739     0.00002136618910
    2     0.00001948973566     0.00004591574310     0.00040237516637     0.00025457832685     0.00001591621260
    3     0.00006614203511     0.00006290052977     0.00052996153330     0.00031909683830     0.00002316191326
    4     0.00050074472629     0.00068090928997     0.00778173553879     0.00135884538234     0.00014026369786
    5     0.00024193896348     0.00173490777781     0.02514875154089     0.01045892513084     0.00052869605472
    6     0.00003780156420     0.00019599030503     0.00250203053677     0.00275306289552     0.00027194173335
    7     0.00002786747237     0.00001183018807     0.00008695440440     0.00003605390360     0.00000456130843
    8     0.00001113993038     0.00000459936441     0.00002575500030     0.00002287101730     0.00000289139052
    9     0.00000774155381     0.00000257263415     0.00000782060021     0.00000387002582     0.00000054739163
   10     0.00001963089102     0.00000493851384     0.00000512840399     0.00000381788352     0.00000075204554
   11     0.00008197119218     0.00001767350453     0.00001803572466     0.00000389314231     0.00000124979111
   12     0.00014948544541     0.00002604982244     0.00010436920239     0.00001538150821     0.00000293083985
   13     0.00033800370845     0.00006727304825     0.00001877392772     0.00000406350658     0.00000239819784
   14     0.00292956257097     0.00041290660959     0.00014167163876     0.00001784433018     0.00002818644826
   15     0.00582419312332     0.00035082771680     0.00038609122922     0.00003956511007     0.00018151314828
   16     0.00303577320061     0.00042361667788     0.00019063318801     0.00003061416844     0.00003215838076
   17     0.03313214258556     0.00359249749570     0.00139779459880     0.00020197915941     0.00030575734140
   18     0.08887819141630     0.01518276699775     0.00434170180137     0.00046809943080     0.00045125865129
   19     0.02362487355143     0.00230958378705     0.00145883339222     0.00015405384042     0.00026741939951
   20     1.34199674986662     0.10610396004390     0.04617208792449     0.00387915132757     0.00371467113722
   21     0.00000000000000     0.98374874040839     0.10719950733506     0.01542312956145     0.01183675758952
   22     0.98374874040839     0.00000000000000     1.43024644960756     0.13140180696532     0.12566850681467
   23     0.10719950733506     1.43024644960756     0.00000000000000     1.50296529108727     0.13080429459424
   24     0.01542312956145     0.13140180696532     1.50296529108727     0.00000000000000     1.44363336965995
   25     0.01183675758952     0.12566850681467     0.13080429459424     1.44363336965995     0.00000000000000
   26     0.01575464631685     0.13118427952779     0.13838517601864     0.12976860410299     1.41804064439646
   27     0.11459681319998     1.40155162569862     0.12744684760341     0.13770139978169     0.13156147269207
   28     0.00082576092765     0.00857130438596     0.01543813345911     0.11788994618850     1.05865789452891
   29     0.00027453133996     0.00249149478746     0.00201554803804     0.01482934301553     0.08226827634262
   30     0.00005832260930     0.00044002570151     0.00053203619669     0.00289030703483     0.01522100556026
   31     0.00001801669383     0.00008808644236     0.00009992693845     0.00066187476164     0.00330587485756
   32     0.00001036666558     0.00008743282096     0.00006428826692     0.00053711114422     0.00142320151392
   33     0.00000348808755     0.00002147408325     0.00003000231945     0.00016244330124     0.00043126065788
   34     0.00002803355342     0.00026038454602     0.00023948131592     0.00239901268885     0.00752269416034
   35     0.00016191258816     0.00168348416108     0.00181908452879     0.01039575913046     0.03499698882977
   36     2.17544965330103     0.13782743032691     0.02649854587311     0.00350696182624     0.00662784799970
   37     0.00034446266276     0.00004550021128     0.00003080568378     0.00000422894357     0.00000967808730
   38     0.00000279014358     0.00000479601017     0.00002973550740     0.00000949508796     0.00000122147302
   39     0.00000116348610     0.00000263543168     0.00002129593142     0.00001401281474     0.00000193792091
   40     0.00020277716247     0.00010548366708     0.00083732502372     0.00006680224757     0.00001721077169
   41     0.00000153502970     0.00000814854215     0.00007689195287     0.00016192484928     0.00001063720903
   42     0.00000196571936     0.00000080966242     0.00000724034083     0.00000213221470     0.00000015666977
   43     0.00000088850504     0.00000035460675     0.00000184442676     0.00000088405207     0.00000003338688
   44     0.00004619443083     0.00001148263242     0.00000349244724     0.00000065410438     0.00000062285922
   45     0.00017521753038     0.00004124917440     0.00003795712625     0.00000511530343     0.00000183704192
   46     0.00709478918116     0.00041791209989     0.00011062108879     0.00003442018511     0.00001869224304
   47     0.00165147292337     0.00017374845970     0.00020864695239     0.00001229336025     0.00000754376971
   48     0.04561786502317     0.01110109707461     0.01014503208235     0.00097086223799     0.00035731548680
   49     0.01298968377578     0.05328410469233     0.81299246179328     0.05385769422081     0.00862132076065
   50     0.00094142273910     0.00937188701986     0.05645265195151     0.82689868448396     0.05459128870919
   51     0.00095120496199     0.00903848852005     0.00216202828356     0.00914655479889     0.05328173079826
   52     0.01605003462023     0.05249147299041     0.00909636048438     0.00200421263719     0.00870427657183
   53     0.00011972117527     0.00067831848177     0.00124515507197     0.01777335967786     0.04313165808273
   54     0.00031179433859     0.00303257067797     0.00079006380202     0.01219044981034     0.03827203287217
   55     0.00000546821814     0.00006867320883     0.00004420121978     0.00017943004310     0.00126533622247
   56     0.00000681394833     0.00004475635618     0.00009358153265     0.00033484593234     0.00072777509711
   57     0.00000150708446     0.00001061400998     0.00001595691700     0.00005777081153     0.00023290639301
   58     0.00000535070410     0.00002625566295     0.00001597937398     0.00010185092520     0.00053428311910
   59     0.00000097752196     0.00001011547890     0.00000654512230     0.00003253473888     0.00005145986787
   60     0.00000040311012     0.00000158313633     0.00000136222486     0.00000610051667     0.00002154199003
   61     0.00000042397795     0.00000215509985     0.00000334526113     0.00002467237587     0.00002926822845
[...]
   15     0.00000002653859     0.00000001040060     0.00000004554488     0.00000002068959     0.00000000602931
   16     0.00000005405198     0.00000001545711     0.00000002263326     0.00000000706669     0.00000001046533
   17     0.00000022058674     0.00000004572191     0.00000022455215     0.00000003084254     0.00000001110077
   18     0.00000071723619     0.00000011165210     0.00000035351053     0.00000005815833     0.00000004652550
   19     0.00000025534057     0.00000002581466     0.00000010723007     0.00000002248832     0.00000000621503
   20     0.00000129472938     0.00000058985928     0.00000082615386     0.00000047410901     0.00000007428209
   21     0.00000681394833     0.00000150708446     0.00000535070410     0.00000097752196     0.00000040311012
   22     0.00004475635618     0.00001061400998     0.00002625566295     0.00001011547890     0.00000158313633
   23     0.00009358153265     0.00001595691700     0.00001597937398     0.00000654512230     0.00000136222486
   24     0.00033484593234     0.00005777081153     0.00010185092520     0.00003253473888     0.00000610051667
   25     0.00072777509711     0.00023290639301     0.00053428311910     0.00005145986787     0.00002154199003
   26     0.00018136415305     0.00006118342628     0.00018797415838     0.00004016369894     0.00002744377603
   27     0.00005392707228     0.00001759020005     0.00006319521011     0.00000348870725     0.00000785446113
   28     0.01133139320630     0.00081224634972     0.01200393035733     0.00023336303123     0.00008644844282
   29     0.05869655904366     0.00960585588931     0.01260617642224     0.00111352677209     0.00011653256404
   30     0.79254619021453     0.04522598364677     0.04173843979733     0.00782849133952     0.00231414059598
   31     0.04121672895325     0.84152093243388     0.79174276888430     0.01312082060859     0.01470056380837
   32     0.01111354059636     0.04426826045944     0.05704191666730     0.04894867474316     0.04770856044710
   33     0.01191839543334     0.01770018147125     0.01197893259411     0.89156406602269     0.90365019359209
   34     0.00690011764561     0.01185634799703     0.01914521101704     0.01315679919564     0.01054371758241
   35     0.01878285053639     0.00126149966047     0.00700054428602     0.00803486714470     0.00096329915365
   36     0.00000182007835     0.00000042168084     0.00000100160840     0.00000065605739     0.00000011456441
   37     0.00000000503300     0.00000000261475     0.00000000261309     0.00000000413218     0.00000000315459
   38     0.00000001355858     0.00000000024886     0.00000000782500     0.00000000005981     0.00000000036903
   39     0.00000000268959     0.00000000088965     0.00000000045966     0.00000000062793     0.00000000040996
   40     0.00000005021799     0.00000000409898     0.00000001332011     0.00000000184976     0.00000000132100
   41     0.00000002515920     0.00000004169841     0.00000002267518     0.00000000260620     0.00000000406807
   42     0.00000000027247     0.00000000001761     0.00000000037936     0.00000000001779     0.00000000001452
   43     0.00000000026480     0.00000000001633     0.00000000005607     0.00000000001927     0.00000000001759
   44     0.00000000013048     0.00000000011048     0.00000000021027     0.00000000006042     0.00000000005714
   45     0.00000000430420     0.00000000206761     0.00000000255941     0.00000000061468     0.00000000025063
   46     0.00000000305356     0.00000000555153     0.00000000629524     0.00000000307615     0.00000000142522
   47     0.00000001051911     0.00000001802883     0.00000000280277     0.00000000110199     0.00000000107998
   48     0.00000062715853     0.00000007313224     0.00000007798292     0.00000003698993     0.00000001665495
   49     0.00000553304561     0.00000100844194     0.00000100038654     0.00000006828786     0.00000002584374
   50     0.00003038709871     0.00000219452980     0.00000827728175     0.00000222314182     0.00000018384443
   51     0.00003885821113     0.00001057204081     0.00005225064820     0.00001531828528     0.00000121044223
   52     0.00000120215177     0.00000025472213     0.00000176069100     0.00000009797468     0.00000003064761
   53     0.00026670584671     0.00008621422212     0.00103757371998     0.00001850354407     0.00001487010199
   54     0.00079330435380     0.00001727289030     0.00023491110811     0.00004133814179     0.00000393502616
   55     0.00668701601150     0.00169467436842     0.00386577549561     0.00011928238339     0.00002614804111
   56     0.00000000000000     0.00348145176205     0.02020250029895     0.00142240757169     0.00022634083701
   57     0.00348145176205     0.00000000000000     0.00681851518947     0.00100144880478     0.00184586199027
   58     0.02020250029895     0.00681851518947     0.00000000000000     0.00011363838628     0.00079134385298
   59     0.00142240757169     0.00100144880478     0.00011363838628     0.00000000000000     0.00740653422952
   60     0.00022634083701     0.00184586199027     0.00079134385298     0.00740653422952     0.00000000000000
   61     0.00007367071579     0.00056413470626     0.00016639142815     0.00741121205303     0.00939301283980
   62     0.00005252801720     0.00055762633262     0.00054530318511     0.00105713384348     0.00057121487826
   63     0.00011313257777     0.00051960398290     0.00098174337168     0.00010233550591     0.00017665477467
   64     0.00095762182127     0.00004003937554     0.00011577871886     0.00142496091008     0.00007483415062
   65     0.00047803929962     0.00039821419937     0.00003530331626     0.00012513469806     0.00015709042551
   66     0.00000000124120     0.00000000025495     0.00000000183894     0.00000000032644     0.00000000017910
   67     0.00000000063947     0.00000000084729     0.00000000076614     0.00000000117727     0.00000000018668
   68     0.00000000017295     0.00000000009275     0.00000000024817     0.00000000015031     0.00000000004007

                61                  62                  63                  64                  65

    1     0.00000002658930     0.00000011833074     0.00000021016993     0.00000023377696     0.00000045149528
    2     0.00000000491321     0.00000000694932     0.00000007153585     0.00000012174136     0.00000022926257
    3     0.00000000788533     0.00000001414656     0.00000010665069     0.00000010167020     0.00000036909548
    4     0.00000002821461     0.00000011388517     0.00000015372821     0.00000025453969     0.00000162763502
    5     0.00000002247812     0.00000059765694     0.00000050810834     0.00000083415331     0.00000981204176
    6     0.00000042912066     0.00000023800768     0.00000684848841     0.00000782302408     0.00000376447248
    7     0.00000000321452     0.00000000680978     0.00000002956708     0.00000005791411     0.00000005522355
    8     0.00000000160443     0.00000001266612     0.00000001450675     0.00000005756815     0.00000006187490
    9     0.00000000070738     0.00000000127400     0.00000000187849     0.00000000336303     0.00000001732383
   10     0.00000000012758     0.00000000029667     0.00000000293140     0.00000000204070     0.00000000736869
   11     0.00000000100143     0.00000000125999     0.00000000761095     0.00000000621662     0.00000001407685
   12     0.00000000039955     0.00000000225858     0.00000000480960     0.00000000922803     0.00000005515268
   13     0.00000000057387     0.00000000217162     0.00000000743928     0.00000000238445     0.00000001722515
   14     0.00000000711396     0.00000001242026     0.00000002132295     0.00000001111914     0.00000013325782
   15     0.00000000326705     0.00000001812098     0.00000001492571     0.00000002477932     0.00000072462454
   16     0.00000000836142     0.00000001271757     0.00000002364502     0.00000001371331     0.00000017575879
   17     0.00000001510103     0.00000004226662     0.00000020576318     0.00000014089005     0.00000137142543
   18     0.00000004086312     0.00000010665216     0.00000043617651     0.00000016680019     0.00000182034035
   19     0.00000003044218     0.00000005597654     0.00000008833347     0.00000009100641     0.00000106546620
   20     0.00000013550283     0.00000040085626     0.00000206017307     0.00000109283978     0.00001764839048
   21     0.00000042397795     0.00000140177118     0.00000710412525     0.00000285379740     0.00003740969701
   22     0.00000215509985     0.00000911925048     0.00001952518897     0.00002314985241     0.00072182220226
   23     0.00000334526113     0.00000790448968     0.00003132319714     0.00003346784828     0.00071052353589
   24     0.00002467237587     0.00008451227467     0.00104287035467     0.00013769341970     0.00332432841336
   25     0.00002926822845     0.00013385402725     0.00247838489782     0.00121368665535     0.01256037106430
   26     0.00001374726091     0.00011368828358     0.00038571715921     0.00081704661819     0.00820797588256
   27     0.00000352060423     0.00001334872196     0.00004307650173     0.00003158094806     0.00138080740137
   28     0.00007386684497     0.00083216241241     0.01175529943904     0.01149579839929     0.01448790342929
   29     0.00012374838393     0.00992531564329     0.01223845117868     0.05663698560760     0.04137365994335
   30     0.00097313806063     0.00119663757372     0.00670082684676     0.01835528457327     0.01048710605542
   31     0.01052419219418     0.01215163889282     0.01901438913812     0.00669702142868     0.00105090858880
   32     0.04773110188837     0.04469646789655     0.05752775082897     0.01100049928997     0.00888103672602
   33     0.90360509833609     0.01811979658239     0.01207541245831     0.01150352494474     0.00082768811077
   34     0.01473355264239     0.83843443387038     0.78924250776682     0.04034463575612     0.04202850151134
   35     0.00222006573104     0.04558730935099     0.04241137615827     0.79681746356771     0.82256976145773
   36     0.00000012979462     0.00000063589160     0.00000121138149     0.00000106040340     0.00002704366297
   37     0.00000000077214     0.00000000224869     0.00000000607390     0.00000001098971     0.00000004807522
   38     0.00000000040350     0.00000000417413     0.00000000358044     0.00000000419141     0.00000002169194
   39     0.00000000084332     0.00000000116006     0.00000002023371     0.00000000661213     0.00000000467063
   40     0.00000000113153     0.00000000278588     0.00000000412431     0.00000000220434     0.00000006448988
   41     0.00000000913688     0.00000001020677     0.00000020518603     0.00000013912931     0.00000026703589
   42     0.00000000003114     0.00000000025370     0.00000000145455     0.00000000028396     0.00000000533272
   43     0.00000000001559     0.00000000002853     0.00000000036596     0.00000000039359     0.00000000128849
   44     0.00000000015678     0.00000000014946     0.00000000154150     0.00000000043354     0.00000000195562
   45     0.00000000048362     0.00000000171940     0.00000000531387     0.00000000028974     0.00000002925041
   46     0.00000000146124     0.00000000576605     0.00000002302685     0.00000001957312     0.00000001773692
   47     0.00000000031187     0.00000000134299     0.00000000827859     0.00000001412669     0.00000002505478
   48     0.00000002775803     0.00000002741415     0.00000036656333     0.00000007904117     0.00000240965309
   49     0.00000005575659     0.00000051911042     0.00000181125549     0.00000139429281     0.00000047465545
   50     0.00000029586037     0.00000802818904     0.00006226791481     0.00000781751738     0.00008143964679
   51     0.00000212881310     0.00001194905549     0.00001730502949     0.00010006602153     0.00066488946086
   52     0.00000003200897     0.00000036569651     0.00000042730778     0.00000085708594     0.00000629657372
   53     0.00001334561903     0.00008304704917     0.00109277648545     0.00014429729207     0.00116322568625
   54     0.00000668493766     0.00021930670109     0.00008455419209     0.00010549606036     0.00041319345886
   55     0.00017954164416     0.00046643737436     0.00003568568188     0.00050807371716     0.00054984127957
   56     0.00007367071579     0.00005252801720     0.00011313257777     0.00095762182127     0.00047803929962
   57     0.00056413470626     0.00055762633262     0.00051960398290     0.00004003937554     0.00039821419937
   58     0.00016639142815     0.00054530318511     0.00098174337168     0.00011577871886     0.00003530331626
   59     0.00741121205303     0.00105713384348     0.00010233550591     0.00142496091008     0.00012513469806
   60     0.00939301283980     0.00057121487826     0.00017665477467     0.00007483415062     0.00015709042551
   61     0.00000000000000     0.00186260252835     0.00080961386679     0.00021699737712     0.00002307113163
   62     0.00186260252835     0.00000000000000     0.00692388996207     0.00349386735525     0.00166744315478
   63     0.00080961386679     0.00692388996207     0.00000000000000     0.01957104698457     0.00401695377860
   64     0.00021699737712     0.00349386735525     0.01957104698457     0.00000000000000     0.00650837532307
   65     0.00002307113163     0.00166744315478     0.00401695377860     0.00650837532307     0.00000000000000
   66     0.00000000019941     0.00000000071309     0.00000000065582     0.00000000062489     0.00000001698062
   67     0.00000000012124     0.00000000079055     0.00000000072219     0.00000000162624     0.00000002278843
   68     0.00000000001732     0.00000000005155     0.00000000107806     0.00000000067836     0.00000000044268

                66                  67                  68

    1     0.00000077636294     0.00000073406045     0.00000034297742
    2     0.00000153921285     0.00000147082958     0.00000073495795
    3     0.00001067374112     0.00000610929095     0.00000399874577
    4     0.00000854991441     0.00000956309389     0.00000876701477
    5     0.00000065096092     0.00000047541457     0.00000042148906
    6     0.00000030703044     0.00000039665556     0.00000020664399
    7     0.00003374163704     0.00002681649492     0.00001442363807
    8     0.00005705393705     0.00009657490785     0.00000583248974
    9     0.00001882355570     0.00001674815750     0.00000360453075
   10     0.00010196364145     0.00016076356377     0.00003361372217
   11     0.00063507364218     0.00081857763688     0.00019472641205
   12     0.00018770833194     0.00022067499121     0.00006137944959
   13     0.00712013187483     0.00801984717847     0.00163446085685
   14     0.01388981473934     0.01378943570569     0.00681462321552
   15     0.04147359681386     0.04196363426313     0.04511644662282
   16     0.01286508147785     0.01262087352408     0.01948407876935
   17     0.00085445428752     0.00082133478658     0.00142271013459
   18     0.00286832611300     0.00266376065415     0.00033960303010
   19     0.00079848520442     0.00086435188873     0.00072937203975
   20     0.00037367501516     0.00032658942918     0.00006858925220
   21     0.00021424367634     0.00019411389963     0.00002741077934
   22     0.00001032891059     0.00001353916370     0.00000778687067
   23     0.00001559784620     0.00001398164970     0.00000311402364
   24     0.00000143173723     0.00000169064409     0.00000038895787
   25     0.00000781372808     0.00000704488152     0.00000035197620
   26     0.00000143515447     0.00000138097832     0.00000039863163
   27     0.00001267836553     0.00001350869169     0.00000172277494
   28     0.00000048618807     0.00000046322487     0.00000007336188
   29     0.00000012939869     0.00000011511620     0.00000001579876
   30     0.00000002524841     0.00000003766501     0.00000000713884
   31     0.00000000849561     0.00000000639515     0.00000000325371
   32     0.00000001056525     0.00000000652343     0.00000000087239
   33     0.00000000149744     0.00000000335725     0.00000000100853
   34     0.00000000849085     0.00000001286022     0.00000000323207
   35     0.00000010823437     0.00000010730807     0.00000001574440
   36     0.00012123087839     0.00012134640702     0.00001392231999
   37     0.89907372253052     0.89802018558226     0.90351843437282
   38     0.00000007698566     0.00000008357787     0.00000001746411
   39     0.00000014344574     0.00000003001142     0.00000006346100
   40     0.00000116811996     0.00000648151331     0.00000305516901
   41     0.00000005138365     0.00000000884327     0.00000005197352
   42     0.00000024353902     0.00000093510155     0.00000008748539
   43     0.00000066329669     0.00000077617337     0.00000021626571
   44     0.00134548043898     0.00111232000292     0.00042352241695
   45     0.00010217554793     0.00010132305872     0.00217870810473
   46     0.00013201077238     0.00014049309015     0.00003011965887
   47     0.00007015919779     0.00007246737712     0.00025861566014
   48     0.00000604396494     0.00001057926094     0.00001747508149
   49     0.00000323054737     0.00000134867443     0.00000017901086
   50     0.00000003807660     0.00000004411564     0.00000004032885
   51     0.00000019264049     0.00000004326927     0.00000004286074
   52     0.00000057318898     0.00000016889232     0.00000019226033
   53     0.00000007225210     0.00000004205123     0.00000001170071
   54     0.00000034641525     0.00000038436544     0.00000001157942
   55     0.00000000579910     0.00000000767123     0.00000000133522
   56     0.00000000124120     0.00000000063947     0.00000000017295
   57     0.00000000025495     0.00000000084729     0.00000000009275
   58     0.00000000183894     0.00000000076614     0.00000000024817
   59     0.00000000032644     0.00000000117727     0.00000000015031
   60     0.00000000017910     0.00000000018668     0.00000000004007
   61     0.00000000019941     0.00000000012124     0.00000000001732
   62     0.00000000071309     0.00000000079055     0.00000000005155
   63     0.00000000065582     0.00000000072219     0.00000000107806
   64     0.00000000062489     0.00000000162624     0.00000000067836
   65     0.00000001698062     0.00000002278843     0.00000000044268
   66     0.00000000000000     0.00693191999108     0.00907301773681
   67     0.00693191999108     0.00000000000000     0.00921519647159
   68     0.00907301773681     0.00921519647159     0.00000000000000



  Atomic Valences: 

 #  #
 Irrep: 1
      1:  4.4066077
      2:  4.4403543
      3:  4.6228620
      4:  4.5962037
      5:  3.9187593
      6:  4.5592870
      7:  4.7583852
      8:  4.3775580
      9:  4.5347082
     10:  3.8659025
     11:  5.0223803
     12:  3.9611778
     13:  3.9651627
     14:  4.6872063
     15:  4.6505524
     16:  4.4561523
     17:  4.4162637
     18:  4.6906947
     19:  4.4443181
     20:  4.0065488
     21:  5.0133433
     22:  4.6273439
     23:  4.4703435
     24:  4.4629318
     25:  4.7042910
     26:  4.4636945
     27:  4.4431012
     28:  4.5482225
     29:  4.2826869
     30:  4.5919871
     31:  4.6038701
     32:  4.2607489
     33:  4.3008086
     34:  4.5987086
     35:  4.6135364
     36:  2.7535699
     37:  4.1579083
     38:  0.9887574
     39:  0.9887347
     40:  0.9903900
     41:  0.9894945
     42:  0.9880008
     43:  0.9887998
     44:  0.9341743
     45:  0.9903930
     46:  0.9825910
     47:  0.9926440
     48:  0.9458781
     49:  0.9920623
     50:  0.9886059
     51:  0.9847604
     52:  0.9827692
     53:  0.9980447
     54:  0.9913825
     55:  0.9893064
     56:  0.9887881
     57:  0.9896901
     58:  0.9891690
     59:  1.0044091
     60:  1.0008395
     61:  1.0007856
     62:  0.9888313
     63:  0.9894965
     64:  0.9883946
     65:  0.9850082
     66:  0.9984273
     67:  0.9984110
     68:  1.0007122


    Psi4 stopped on: Friday, 24 April 2020 12:17PM
    Psi4 wall time for execution: 0:16:50.46

*** Psi4 exiting successfully. Buy a developer a beer!
