 Entering Gaussian System, Link 0=g09
 Input=MOLECULE0-opt-25-28-29-35-056.com
 Output=MOLECULE0-opt-25-28-29-35-056.log
 Initial command:
 /opt/g09gh/gaussian/g09/l1.exe /scratch/bdw2292/Gau-MOLECULE0/Gau-29889.inp -scrdir=/scratch/bdw2292/Gau-MOLECULE0/
 Entering Link 1 = /opt/g09gh/gaussian/g09/l1.exe PID=     29890.
  
 Copyright (c) 1988,1990,1992,1993,1995,1998,2003,2009, Gaussian, Inc.
                  All Rights Reserved.
  
 This is part of the Gaussian(R) 09 program.  It is based on
 the Gaussian(R) 03 system (copyright 2003, Gaussian, Inc.),
 the Gaussian(R) 98 system (copyright 1998, Gaussian, Inc.),
 the Gaussian(R) 94 system (copyright 1995, Gaussian, Inc.),
 the Gaussian 92(TM) system (copyright 1992, Gaussian, Inc.),
 the Gaussian 90(TM) system (copyright 1990, Gaussian, Inc.),
 the Gaussian 88(TM) system (copyright 1988, Gaussian, Inc.),
 the Gaussian 86(TM) system (copyright 1986, Carnegie Mellon
 University), and the Gaussian 82(TM) system (copyright 1983,
 Carnegie Mellon University). Gaussian is a federally registered
 trademark of Gaussian, Inc.
  
 This software contains proprietary and confidential information,
 including trade secrets, belonging to Gaussian, Inc.
  
 This software is provided under written license and may be
 used, copied, transmitted, or stored only in accord with that
 written license.
  
 The following legend is applicable only to US Government
 contracts under FAR:
  
                    RESTRICTED RIGHTS LEGEND
  
 Use, reproduction and disclosure by the US Government is
 subject to restrictions as set forth in subparagraphs (a)
 and (c) of the Commercial Computer Software - Restricted
 Rights clause in FAR 52.227-19.
  
 Gaussian, Inc.
 340 Quinnipiac St., Bldg. 40, Wallingford CT 06492
  
  
 ---------------------------------------------------------------
 Warning -- This program may not be used in any manner that
 competes with the business of Gaussian, Inc. or will provide
 assistance to any competitor of Gaussian, Inc.  The licensee
 of this program is prohibited from giving any competitor of
 Gaussian, Inc. access to this program.  By using this program,
 the user acknowledges that Gaussian, Inc. is engaged in the
 business of creating and licensing software in the field of
 computational chemistry and represents and warrants to the
 licensee that it is not a competitor of Gaussian, Inc. and that
 it will not use this program in any manner prohibited above.
 ---------------------------------------------------------------
  

 Cite this work as:
 Gaussian 09, Revision A.02,
 M. J. Frisch, G. W. Trucks, H. B. Schlegel, G. E. Scuseria, 
 M. A. Robb, J. R. Cheeseman, G. Scalmani, V. Barone, B. Mennucci, 
 G. A. Petersson, H. Nakatsuji, M. Caricato, X. Li, H. P. Hratchian, 
 A. F. Izmaylov, J. Bloino, G. Zheng, J. L. Sonnenberg, M. Hada, 
 M. Ehara, K. Toyota, R. Fukuda, J. Hasegawa, M. Ishida, T. Nakajima, 
 Y. Honda, O. Kitao, H. Nakai, T. Vreven, J. A. Montgomery, Jr., 
 J. E. Peralta, F. Ogliaro, M. Bearpark, J. J. Heyd, E. Brothers, 
 K. N. Kudin, V. N. Staroverov, R. Kobayashi, J. Normand, 
 K. Raghavachari, A. Rendell, J. C. Burant, S. S. Iyengar, J. Tomasi, 
 M. Cossi, N. Rega, J. M. Millam, M. Klene, J. E. Knox, J. B. Cross, 
 V. Bakken, C. Adamo, J. Jaramillo, R. Gomperts, R. E. Stratmann, 
 O. Yazyev, A. J. Austin, R. Cammi, C. Pomelli, J. W. Ochterski, 
 R. L. Martin, K. Morokuma, V. G. Zakrzewski, G. A. Voth, 
 P. Salvador, J. J. Dannenberg, S. Dapprich, A. D. Daniels, 
 O. Farkas, J. B. Foresman, J. V. Ortiz, J. Cioslowski, 
 and D. J. Fox, Gaussian, Inc., Wallingford CT, 2009.
 
 ******************************************
 Gaussian 09:  EM64L-G09RevA.02 11-Jun-2009
                11-Mar-2020 
 ******************************************
 %RWF=/scratch/bdw2292/Gau-MOLECULE0/,100GB
 %Nosave
 %Chk=MOLECULE0-opt-25-28-29-35-056.chk
 %Mem=20GB
 %Nproc=6
 Will use up to    6 processors via shared memory.
 --------------------------------------------------
 #P opt=(,maxcycle=400) wB97XD/6-31G* MaxDisk=100GB
 --------------------------------------------------
 1/6=400,14=-1,18=20,19=15,26=3,38=1/1,3;
 2/9=110,12=2,17=6,18=5,40=1/2;
 3/5=1,6=6,7=1,11=2,16=1,25=1,30=1,71=1,74=-58/1,2,3;
 4//1;
 5/5=2,38=5/2;
 6/7=2,8=2,9=2,10=2,28=1/1;
 7//1,2,3,16;
 1/6=400,14=-1,18=20,19=15/3(2);
 2/9=110/2;
 99//99;
 2/9=110/2;
 3/5=1,6=6,7=1,11=2,16=1,25=1,30=1,71=1,74=-58/1,2,3;
 4/5=5,16=3/1;
 5/5=2,38=5/2;
 7//1,2,3,16;
 1/6=400,14=-1,18=20,19=15/3(-5);
 2/9=110/2;
 6/7=2,8=2,9=2,10=2,19=2,28=1/1;
 99/9=1/99;
 Leave Link    1 at Wed Mar 11 00:05:05 2020, MaxMem= 2684354560 cpu:       0.2
 (Enter /opt/g09gh/gaussian/g09/l101.exe)
 -----------------------------------------------------------------
 MOLECULE0 Rotatable Bond Optimization on g2-node38.bme.utexas.edu
 -----------------------------------------------------------------
 Symbolic Z-matrix:
 Charge =  0 Multiplicity = 1
 C                    -0.12977   4.56932  -1.11411 
 C                     1.2079    4.44228  -0.71427 
 C                     1.78136   3.16318  -0.56885 
 C                     0.93131   2.07191  -0.87673 
 N                    -0.3457    2.17098  -1.2677 
 C                    -0.86136   3.40494  -1.37456 
 C                     3.20732   2.93108  -0.13065 
 C                     4.16671   3.93026   0.09747 
 C                     5.43583   3.47685   0.47475 
 N                     5.7614    2.19743   0.63777 
 C                     4.77204   1.30597   0.41905 
 N                     3.53211   1.63556   0.04542 
 N                     5.1121   -0.02575   0.61453 
 C                     4.39728  -1.26598   0.42979 
 C                     5.11993  -2.49574   0.36365 
 C                     4.37299  -3.66921   0.15987 
 C                     2.98015  -3.69556   0.01898 
 C                     2.28505  -2.48572   0.11091 
 C                     3.00234  -1.297     0.31892 
 N                     0.87123  -2.31331  -0.01631 
 C                    -0.12494  -3.18378  -0.39228 
 C                    -1.48775  -2.57991  -0.67507 
 C                    -1.64219  -1.31286  -1.26288 
 C                    -2.91406  -0.78224  -1.47761 
 C                    -4.07677  -1.50141  -1.14286 
 C                    -3.90901  -2.77475  -0.56503 
 C                    -2.63836  -3.31468  -0.34529 
 C                    -5.45868  -0.87861  -1.35147 
 N                    -5.98225   0.022    -0.30623 
 C                    -7.42132   0.35648  -0.33485 
 C                    -7.74382   1.60876  -1.1903 
 N                    -6.94758   2.8115   -0.83962 
 C                    -7.4681    3.6317    0.26105 
 C                    -5.51127   2.45274  -0.76588 
 C                    -5.1882    1.20515   0.09383 
 O                     0.05139  -4.38922  -0.47379 
 C                     6.63234  -2.58386   0.47464 
 H                    -0.59444   5.54499  -1.22187 
 H                     1.77073   5.34859  -0.50491 
 H                     1.31626   1.05914  -0.82795 
 H                    -1.90229   3.46009  -1.68978 
 H                     3.98105   4.99032  -0.02477 
 H                     6.24076   4.18873   0.65595 
 H                     6.08974  -0.09386   0.8548 
 H                     4.89272  -4.62407   0.09032 
 H                     2.44269  -4.62017  -0.1541 
 H                     2.47243  -0.36107   0.39012 
 H                     0.55833  -1.36414   0.13237 
 H                    -0.76562  -0.73133  -1.53851 
 H                    -2.98921   0.21212  -1.91765 
 H                    -4.78201  -3.35889  -0.2755 
 H                    -2.51676  -4.29975   0.09827 
 H                    -5.45311  -0.32965  -2.30473 
 H                    -6.18239  -1.69798  -1.46816 
 H                    -8.15223  -0.7174   -0.79977 
 H                    -7.87007   0.64408   1.07166 
 H                    -8.77962   1.84779  -1.18029 
 H                    -7.36116   1.2292   -2.65586 
 H                    -7.43957   3.08092   1.20835 
 H                    -8.50373   3.92673   0.05604 
 H                    -6.87461   4.5471    0.36522 
 H                    -4.76974   3.58376  -0.22233 
 H                    -5.03672   2.17987  -2.15571 
 H                    -5.60741   1.57758   1.55556 
 H                    -4.24172   0.99198   0.13307 
 H                     6.98177  -2.25487   1.46344 
 H                     7.12855  -1.95459  -0.27769 
 H                     7.01383  -3.60403   0.3295 
 
 NAtoms=     68 NQM=     68 NQMF=      0 NMic=      0 NMicF=      0 NTot=     68.
                    Isotopes and Nuclear Properties:
 (Nuclear quadrupole moments (NQMom) in fm**2, nuclear magnetic moments (NMagM)
  in nuclear magnetons)

  Atom         1           2           3           4           5           6           7           8           9          10
 IAtWgt=          12          12          12          12          14          12          12          12          12          14
 AtmWgt=  12.0000000  12.0000000  12.0000000  12.0000000  14.0030740  12.0000000  12.0000000  12.0000000  12.0000000  14.0030740
 NucSpn=           0           0           0           0           2           0           0           0           0           2
 AtZEff=   0.0000000   0.0000000   0.0000000   0.0000000   0.0000000   0.0000000   0.0000000   0.0000000   0.0000000   0.0000000
 NQMom=    0.0000000   0.0000000   0.0000000   0.0000000   2.0440000   0.0000000   0.0000000   0.0000000   0.0000000   2.0440000
 NMagM=    0.0000000   0.0000000   0.0000000   0.0000000   0.4037610   0.0000000   0.0000000   0.0000000   0.0000000   0.4037610

  Atom        11          12          13          14          15          16          17          18          19          20
 IAtWgt=          12          14          14          12          12          12          12          12          12          14
 AtmWgt=  12.0000000  14.0030740  14.0030740  12.0000000  12.0000000  12.0000000  12.0000000  12.0000000  12.0000000  14.0030740
 NucSpn=           0           2           2           0           0           0           0           0           0           2
 AtZEff=   0.0000000   0.0000000   0.0000000   0.0000000   0.0000000   0.0000000   0.0000000   0.0000000   0.0000000   0.0000000
 NQMom=    0.0000000   2.0440000   2.0440000   0.0000000   0.0000000   0.0000000   0.0000000   0.0000000   0.0000000   2.0440000
 NMagM=    0.0000000   0.4037610   0.4037610   0.0000000   0.0000000   0.0000000   0.0000000   0.0000000   0.0000000   0.4037610

  Atom        21          22          23          24          25          26          27          28          29          30
 IAtWgt=          12          12          12          12          12          12          12          12          14          12
 AtmWgt=  12.0000000  12.0000000  12.0000000  12.0000000  12.0000000  12.0000000  12.0000000  12.0000000  14.0030740  12.0000000
 NucSpn=           0           0           0           0           0           0           0           0           2           0
 AtZEff=   0.0000000   0.0000000   0.0000000   0.0000000   0.0000000   0.0000000   0.0000000   0.0000000   0.0000000   0.0000000
 NQMom=    0.0000000   0.0000000   0.0000000   0.0000000   0.0000000   0.0000000   0.0000000   0.0000000   2.0440000   0.0000000
 NMagM=    0.0000000   0.0000000   0.0000000   0.0000000   0.0000000   0.0000000   0.0000000   0.0000000   0.4037610   0.0000000

  Atom        31          32          33          34          35          36          37          38          39          40
 IAtWgt=          12          14          12          12          12          16          12           1           1           1
 AtmWgt=  12.0000000  14.0030740  12.0000000  12.0000000  12.0000000  15.9949146  12.0000000   1.0078250   1.0078250   1.0078250
 NucSpn=           0           2           0           0           0           0           0           1           1           1
 AtZEff=   0.0000000   0.0000000   0.0000000   0.0000000   0.0000000   0.0000000   0.0000000   0.0000000   0.0000000   0.0000000
 NQMom=    0.0000000   2.0440000   0.0000000   0.0000000   0.0000000   0.0000000   0.0000000   0.0000000   0.0000000   0.0000000
 NMagM=    0.0000000   0.4037610   0.0000000   0.0000000   0.0000000   0.0000000   0.0000000   2.7928460   2.7928460   2.7928460

  Atom        41          42          43          44          45          46          47          48          49          50
 IAtWgt=           1           1           1           1           1           1           1           1           1           1
 AtmWgt=   1.0078250   1.0078250   1.0078250   1.0078250   1.0078250   1.0078250   1.0078250   1.0078250   1.0078250   1.0078250
 NucSpn=           1           1           1           1           1           1           1           1           1           1
 AtZEff=   0.0000000   0.0000000   0.0000000   0.0000000   0.0000000   0.0000000   0.0000000   0.0000000   0.0000000   0.0000000
 NQMom=    0.0000000   0.0000000   0.0000000   0.0000000   0.0000000   0.0000000   0.0000000   0.0000000   0.0000000   0.0000000
 NMagM=    2.7928460   2.7928460   2.7928460   2.7928460   2.7928460   2.7928460   2.7928460   2.7928460   2.7928460   2.7928460

  Atom        51          52          53          54          55          56          57          58          59          60
 IAtWgt=           1           1           1           1           1           1           1           1           1           1
 AtmWgt=   1.0078250   1.0078250   1.0078250   1.0078250   1.0078250   1.0078250   1.0078250   1.0078250   1.0078250   1.0078250
 NucSpn=           1           1           1           1           1           1           1           1           1           1
 AtZEff=   0.0000000   0.0000000   0.0000000   0.0000000   0.0000000   0.0000000   0.0000000   0.0000000   0.0000000   0.0000000
 NQMom=    0.0000000   0.0000000   0.0000000   0.0000000   0.0000000   0.0000000   0.0000000   0.0000000   0.0000000   0.0000000
 NMagM=    2.7928460   2.7928460   2.7928460   2.7928460   2.7928460   2.7928460   2.7928460   2.7928460   2.7928460   2.7928460

  Atom        61          62          63          64          65          66          67          68
 IAtWgt=           1           1           1           1           1           1           1           1
 AtmWgt=   1.0078250   1.0078250   1.0078250   1.0078250   1.0078250   1.0078250   1.0078250   1.0078250
 NucSpn=           1           1           1           1           1           1           1           1
 AtZEff=   0.0000000   0.0000000   0.0000000   0.0000000   0.0000000   0.0000000   0.0000000   0.0000000
 NQMom=    0.0000000   0.0000000   0.0000000   0.0000000   0.0000000   0.0000000   0.0000000   0.0000000
 NMagM=    2.7928460   2.7928460   2.7928460   2.7928460   2.7928460   2.7928460   2.7928460   2.7928460
 Leave Link  101 at Wed Mar 11 00:05:05 2020, MaxMem= 2684354560 cpu:       0.6
 (Enter /opt/g09gh/gaussian/g09/l103.exe)

 GradGradGradGradGradGradGradGradGradGradGradGradGradGradGradGradGradGrad
 Berny optimization.
 Initialization pass.
                           ----------------------------
                           !    Initial Parameters    !
                           ! (Angstroms and Degrees)  !
 --------------------------                            --------------------------
 ! Name  Definition              Value          Derivative Info.                !
 --------------------------------------------------------------------------------
 ! R1    R(1,2)                  1.4019         estimate D2E/DX2                !
 ! R2    R(1,6)                  1.3996         estimate D2E/DX2                !
 ! R3    R(1,38)                 1.086          estimate D2E/DX2                !
 ! R4    R(2,3)                  1.4093         estimate D2E/DX2                !
 ! R5    R(2,39)                 1.0872         estimate D2E/DX2                !
 ! R6    R(3,4)                  1.4171         estimate D2E/DX2                !
 ! R7    R(3,7)                  1.5097         estimate D2E/DX2                !
 ! R8    R(4,5)                  1.3392         estimate D2E/DX2                !
 ! R9    R(4,40)                 1.0846         estimate D2E/DX2                !
 ! R10   R(5,6)                  1.3416         estimate D2E/DX2                !
 ! R11   R(6,41)                 1.089          estimate D2E/DX2                !
 ! R12   R(7,8)                  1.4039         estimate D2E/DX2                !
 ! R13   R(7,12)                 1.3472         estimate D2E/DX2                !
 ! R14   R(8,9)                  1.3995         estimate D2E/DX2                !
 ! R15   R(8,42)                 1.0831         estimate D2E/DX2                !
 ! R16   R(9,10)                 1.3302         estimate D2E/DX2                !
 ! R17   R(9,43)                 1.0897         estimate D2E/DX2                !
 ! R18   R(10,11)                1.3496         estimate D2E/DX2                !
 ! R19   R(11,12)                1.3363         estimate D2E/DX2                !
 ! R20   R(11,13)                1.3883         estimate D2E/DX2                !
 ! R21   R(13,14)                1.4434         estimate D2E/DX2                !
 ! R22   R(13,44)                1.009          estimate D2E/DX2                !
 ! R23   R(14,15)                1.4279         estimate D2E/DX2                !
 ! R24   R(14,19)                1.3997         estimate D2E/DX2                !
 ! R25   R(15,16)                1.4059         estimate D2E/DX2                !
 ! R26   R(15,37)                1.519          estimate D2E/DX2                !
 ! R27   R(16,17)                1.4002         estimate D2E/DX2                !
 ! R28   R(16,45)                1.0894         estimate D2E/DX2                !
 ! R29   R(17,18)                1.3983         estimate D2E/DX2                !
 ! R30   R(17,46)                1.0834         estimate D2E/DX2                !
 ! R31   R(18,19)                1.4039         estimate D2E/DX2                !
 ! R32   R(18,20)                1.43           estimate D2E/DX2                !
 ! R33   R(19,47)                1.0779         estimate D2E/DX2                !
 ! R34   R(20,21)                1.3753         estimate D2E/DX2                !
 ! R35   R(20,48)                1.0104         estimate D2E/DX2                !
 ! R36   R(21,22)                1.5172         estimate D2E/DX2                !
 ! R37   R(21,36)                1.221          estimate D2E/DX2                !
 ! R38   R(22,23)                1.4053         estimate D2E/DX2                !
 ! R39   R(22,27)                1.4045         estimate D2E/DX2                !
 ! R40   R(23,24)                1.3947         estimate D2E/DX2                !
 ! R41   R(23,49)                1.0874         estimate D2E/DX2                !
 ! R42   R(24,25)                1.4075         estimate D2E/DX2                !
 ! R43   R(24,50)                1.09           estimate D2E/DX2                !
 ! R44   R(25,26)                1.4083         estimate D2E/DX2                !
 ! R45   R(25,28)                1.5301         estimate D2E/DX2                !
 ! R46   R(26,27)                1.398          estimate D2E/DX2                !
 ! R47   R(26,51)                1.0896         estimate D2E/DX2                !
 ! R48   R(27,52)                1.0871         estimate D2E/DX2                !
 ! R49   R(28,29)                1.4757         estimate D2E/DX2                !
 ! R50   R(28,53)                1.1            estimate D2E/DX2                !
 ! R51   R(28,54)                1.0994         estimate D2E/DX2                !
 ! R52   R(29,30)                1.4777         estimate D2E/DX2                !
 ! R53   R(29,35)                1.48           estimate D2E/DX2                !
 ! R54   R(30,31)                1.5505         estimate D2E/DX2                !
 ! R55   R(30,55)                1.3797         estimate D2E/DX2                !
 ! R56   R(30,56)                1.5041         estimate D2E/DX2                !
 ! R57   R(31,32)                1.4844         estimate D2E/DX2                !
 ! R58   R(31,57)                1.0631         estimate D2E/DX2                !
 ! R59   R(31,58)                1.5615         estimate D2E/DX2                !
 ! R60   R(32,33)                1.468          estimate D2E/DX2                !
 ! R61   R(32,34)                1.4823         estimate D2E/DX2                !
 ! R62   R(33,59)                1.0962         estimate D2E/DX2                !
 ! R63   R(33,60)                1.0962         estimate D2E/DX2                !
 ! R64   R(33,61)                1.0959         estimate D2E/DX2                !
 ! R65   R(34,35)                1.5492         estimate D2E/DX2                !
 ! R66   R(34,62)                1.4576         estimate D2E/DX2                !
 ! R67   R(34,63)                1.4938         estimate D2E/DX2                !
 ! R68   R(35,64)                1.5656         estimate D2E/DX2                !
 ! R69   R(35,65)                0.971          estimate D2E/DX2                !
 ! R70   R(37,66)                1.0991         estimate D2E/DX2                !
 ! R71   R(37,67)                1.0992         estimate D2E/DX2                !
 ! R72   R(37,68)                1.0988         estimate D2E/DX2                !
 ! A1    A(2,1,6)              118.4534         estimate D2E/DX2                !
 ! A2    A(2,1,38)             121.1957         estimate D2E/DX2                !
 ! A3    A(6,1,38)             120.3509         estimate D2E/DX2                !
 ! A4    A(1,2,3)              119.9967         estimate D2E/DX2                !
 ! A5    A(1,2,39)             118.2512         estimate D2E/DX2                !
 ! A6    A(3,2,39)             121.741          estimate D2E/DX2                !
 ! A7    A(2,3,4)              115.6209         estimate D2E/DX2                !
 ! A8    A(2,3,7)              123.6301         estimate D2E/DX2                !
 ! A9    A(4,3,7)              120.746          estimate D2E/DX2                !
 ! A10   A(3,4,5)              125.3416         estimate D2E/DX2                !
 ! A11   A(3,4,40)             119.763          estimate D2E/DX2                !
 ! A12   A(5,4,40)             114.8765         estimate D2E/DX2                !
 ! A13   A(4,5,6)              117.2453         estimate D2E/DX2                !
 ! A14   A(1,6,5)              123.3291         estimate D2E/DX2                !
 ! A15   A(1,6,41)             120.7556         estimate D2E/DX2                !
 ! A16   A(5,6,41)             115.9135         estimate D2E/DX2                !
 ! A17   A(3,7,8)              125.6777         estimate D2E/DX2                !
 ! A18   A(3,7,12)             114.4246         estimate D2E/DX2                !
 ! A19   A(8,7,12)             119.8975         estimate D2E/DX2                !
 ! A20   A(7,8,9)              115.6549         estimate D2E/DX2                !
 ! A21   A(7,8,42)             124.1319         estimate D2E/DX2                !
 ! A22   A(9,8,42)             120.1957         estimate D2E/DX2                !
 ! A23   A(8,9,10)             124.5129         estimate D2E/DX2                !
 ! A24   A(8,9,43)             120.2001         estimate D2E/DX2                !
 ! A25   A(10,9,43)            115.287          estimate D2E/DX2                !
 ! A26   A(9,10,11)            115.8516         estimate D2E/DX2                !
 ! A27   A(10,11,12)           124.2366         estimate D2E/DX2                !
 ! A28   A(10,11,13)           115.5468         estimate D2E/DX2                !
 ! A29   A(12,11,13)           120.2158         estimate D2E/DX2                !
 ! A30   A(7,12,11)            119.8311         estimate D2E/DX2                !
 ! A31   A(11,13,14)           133.2299         estimate D2E/DX2                !
 ! A32   A(11,13,44)           109.6092         estimate D2E/DX2                !
 ! A33   A(14,13,44)           116.8927         estimate D2E/DX2                !
 ! A34   A(13,14,15)           119.6907         estimate D2E/DX2                !
 ! A35   A(13,14,19)           121.5171         estimate D2E/DX2                !
 ! A36   A(15,14,19)           118.7915         estimate D2E/DX2                !
 ! A37   A(14,15,16)           117.1739         estimate D2E/DX2                !
 ! A38   A(14,15,37)           123.3988         estimate D2E/DX2                !
 ! A39   A(16,15,37)           119.4162         estimate D2E/DX2                !
 ! A40   A(15,16,17)           123.9726         estimate D2E/DX2                !
 ! A41   A(15,16,45)           119.1702         estimate D2E/DX2                !
 ! A42   A(17,16,45)           116.8512         estimate D2E/DX2                !
 ! A43   A(16,17,18)           118.1374         estimate D2E/DX2                !
 ! A44   A(16,17,46)           121.7097         estimate D2E/DX2                !
 ! A45   A(18,17,46)           120.1527         estimate D2E/DX2                !
 ! A46   A(17,18,19)           119.2331         estimate D2E/DX2                !
 ! A47   A(17,18,20)           126.1533         estimate D2E/DX2                !
 ! A48   A(19,18,20)           114.5991         estimate D2E/DX2                !
 ! A49   A(14,19,18)           122.6642         estimate D2E/DX2                !
 ! A50   A(14,19,47)           117.7413         estimate D2E/DX2                !
 ! A51   A(18,19,47)           119.5925         estimate D2E/DX2                !
 ! A52   A(18,20,21)           131.6181         estimate D2E/DX2                !
 ! A53   A(18,20,48)           113.9757         estimate D2E/DX2                !
 ! A54   A(21,20,48)           114.2357         estimate D2E/DX2                !
 ! A55   A(20,21,22)           116.722          estimate D2E/DX2                !
 ! A56   A(20,21,36)           122.583          estimate D2E/DX2                !
 ! A57   A(22,21,36)           120.6787         estimate D2E/DX2                !
 ! A58   A(21,22,23)           122.3811         estimate D2E/DX2                !
 ! A59   A(21,22,27)           118.9398         estimate D2E/DX2                !
 ! A60   A(23,22,27)           118.6781         estimate D2E/DX2                !
 ! A61   A(22,23,24)           120.5063         estimate D2E/DX2                !
 ! A62   A(22,23,49)           119.9736         estimate D2E/DX2                !
 ! A63   A(24,23,49)           119.512          estimate D2E/DX2                !
 ! A64   A(23,24,25)           121.486          estimate D2E/DX2                !
 ! A65   A(23,24,50)           118.1702         estimate D2E/DX2                !
 ! A66   A(25,24,50)           120.3436         estimate D2E/DX2                !
 ! A67   A(24,25,26)           117.4609         estimate D2E/DX2                !
 ! A68   A(24,25,28)           120.3763         estimate D2E/DX2                !
 ! A69   A(26,25,28)           122.1102         estimate D2E/DX2                !
 ! A70   A(25,26,27)           121.4635         estimate D2E/DX2                !
 ! A71   A(25,26,51)           119.8886         estimate D2E/DX2                !
 ! A72   A(27,26,51)           118.6474         estimate D2E/DX2                !
 ! A73   A(22,27,26)           120.3754         estimate D2E/DX2                !
 ! A74   A(22,27,52)           118.5685         estimate D2E/DX2                !
 ! A75   A(26,27,52)           121.0475         estimate D2E/DX2                !
 ! A76   A(25,28,29)           118.1824         estimate D2E/DX2                !
 ! A77   A(25,28,53)           108.4636         estimate D2E/DX2                !
 ! A78   A(25,28,54)           107.7964         estimate D2E/DX2                !
 ! A79   A(29,28,53)           108.1207         estimate D2E/DX2                !
 ! A80   A(29,28,54)           107.2452         estimate D2E/DX2                !
 ! A81   A(53,28,54)           106.4562         estimate D2E/DX2                !
 ! A82   A(28,29,30)           118.0301         estimate D2E/DX2                !
 ! A83   A(28,29,35)           119.2741         estimate D2E/DX2                !
 ! A84   A(30,29,35)           110.2902         estimate D2E/DX2                !
 ! A85   A(29,30,31)           113.3319         estimate D2E/DX2                !
 ! A86   A(29,30,55)           110.2588         estimate D2E/DX2                !
 ! A87   A(29,30,56)           108.4044         estimate D2E/DX2                !
 ! A88   A(31,30,55)           109.4222         estimate D2E/DX2                !
 ! A89   A(31,30,56)           107.4241         estimate D2E/DX2                !
 ! A90   A(55,30,56)           107.8109         estimate D2E/DX2                !
 ! A91   A(30,31,32)           114.3614         estimate D2E/DX2                !
 ! A92   A(30,31,57)           112.2758         estimate D2E/DX2                !
 ! A93   A(30,31,58)           105.6962         estimate D2E/DX2                !
 ! A94   A(32,31,57)           109.7689         estimate D2E/DX2                !
 ! A95   A(32,31,58)           106.6917         estimate D2E/DX2                !
 ! A96   A(57,31,58)           107.5935         estimate D2E/DX2                !
 ! A97   A(31,32,33)           116.0791         estimate D2E/DX2                !
 ! A98   A(31,32,34)           109.5972         estimate D2E/DX2                !
 ! A99   A(33,32,34)           116.1996         estimate D2E/DX2                !
 ! A100  A(32,33,59)           110.9768         estimate D2E/DX2                !
 ! A101  A(32,33,60)           110.1903         estimate D2E/DX2                !
 ! A102  A(32,33,61)           110.2387         estimate D2E/DX2                !
 ! A103  A(59,33,60)           108.7506         estimate D2E/DX2                !
 ! A104  A(59,33,61)           108.872          estimate D2E/DX2                !
 ! A105  A(60,33,61)           107.7336         estimate D2E/DX2                !
 ! A106  A(32,34,35)           115.1256         estimate D2E/DX2                !
 ! A107  A(32,34,62)           108.8876         estimate D2E/DX2                !
 ! A108  A(32,34,63)           107.8042         estimate D2E/DX2                !
 ! A109  A(35,34,62)           108.1712         estimate D2E/DX2                !
 ! A110  A(35,34,63)           107.6359         estimate D2E/DX2                !
 ! A111  A(62,34,63)           109.0926         estimate D2E/DX2                !
 ! A112  A(29,35,34)           112.4513         estimate D2E/DX2                !
 ! A113  A(29,35,64)           107.3907         estimate D2E/DX2                !
 ! A114  A(29,35,65)           111.0015         estimate D2E/DX2                !
 ! A115  A(34,35,64)           105.7069         estimate D2E/DX2                !
 ! A116  A(34,35,65)           113.7355         estimate D2E/DX2                !
 ! A117  A(64,35,65)           105.9919         estimate D2E/DX2                !
 ! A118  A(15,37,66)           111.4014         estimate D2E/DX2                !
 ! A119  A(15,37,67)           111.4849         estimate D2E/DX2                !
 ! A120  A(15,37,68)           112.9476         estimate D2E/DX2                !
 ! A121  A(66,37,67)           107.5102         estimate D2E/DX2                !
 ! A122  A(66,37,68)           106.6393         estimate D2E/DX2                !
 ! A123  A(67,37,68)           106.5214         estimate D2E/DX2                !
 ! D1    D(6,1,2,3)             -0.6943         estimate D2E/DX2                !
 ! D2    D(6,1,2,39)          -179.5057         estimate D2E/DX2                !
 ! D3    D(38,1,2,3)           179.3289         estimate D2E/DX2                !
 ! D4    D(38,1,2,39)            0.5174         estimate D2E/DX2                !
 ! D5    D(2,1,6,5)             -0.3502         estimate D2E/DX2                !
 ! D6    D(2,1,6,41)          -179.8483         estimate D2E/DX2                !
 ! D7    D(38,1,6,5)           179.6268         estimate D2E/DX2                !
 ! D8    D(38,1,6,41)            0.1287         estimate D2E/DX2                !
 ! D9    D(1,2,3,4)              1.241          estimate D2E/DX2                !
 ! D10   D(1,2,3,7)           -179.3886         estimate D2E/DX2                !
 ! D11   D(39,2,3,4)          -179.99           estimate D2E/DX2                !
 ! D12   D(39,2,3,7)            -0.6197         estimate D2E/DX2                !
 ! D13   D(2,3,4,5)             -0.8891         estimate D2E/DX2                !
 ! D14   D(2,3,4,40)           177.4475         estimate D2E/DX2                !
 ! D15   D(7,3,4,5)            179.7209         estimate D2E/DX2                !
 ! D16   D(7,3,4,40)            -1.9425         estimate D2E/DX2                !
 ! D17   D(2,3,7,8)             -4.6429         estimate D2E/DX2                !
 ! D18   D(2,3,7,12)           175.1548         estimate D2E/DX2                !
 ! D19   D(4,3,7,8)            174.6966         estimate D2E/DX2                !
 ! D20   D(4,3,7,12)            -5.5057         estimate D2E/DX2                !
 ! D21   D(3,4,5,6)             -0.086          estimate D2E/DX2                !
 ! D22   D(40,4,5,6)          -178.4943         estimate D2E/DX2                !
 ! D23   D(4,5,6,1)              0.7348         estimate D2E/DX2                !
 ! D24   D(4,5,6,41)          -179.7448         estimate D2E/DX2                !
 ! D25   D(3,7,8,9)           -178.8278         estimate D2E/DX2                !
 ! D26   D(3,7,8,42)            -0.3506         estimate D2E/DX2                !
 ! D27   D(12,7,8,9)             1.3847         estimate D2E/DX2                !
 ! D28   D(12,7,8,42)          179.8618         estimate D2E/DX2                !
 ! D29   D(3,7,12,11)          179.2792         estimate D2E/DX2                !
 ! D30   D(8,7,12,11)           -0.9104         estimate D2E/DX2                !
 ! D31   D(7,8,9,10)            -0.8424         estimate D2E/DX2                !
 ! D32   D(7,8,9,43)           179.0887         estimate D2E/DX2                !
 ! D33   D(42,8,9,10)         -179.384          estimate D2E/DX2                !
 ! D34   D(42,8,9,43)            0.5471         estimate D2E/DX2                !
 ! D35   D(8,9,10,11)           -0.2044         estimate D2E/DX2                !
 ! D36   D(43,9,10,11)         179.8614         estimate D2E/DX2                !
 ! D37   D(9,10,11,12)           0.7875         estimate D2E/DX2                !
 ! D38   D(9,10,11,13)        -178.8772         estimate D2E/DX2                !
 ! D39   D(10,11,12,7)          -0.234          estimate D2E/DX2                !
 ! D40   D(13,11,12,7)         179.416          estimate D2E/DX2                !
 ! D41   D(10,11,13,14)       -176.3149         estimate D2E/DX2                !
 ! D42   D(10,11,13,44)         -2.6337         estimate D2E/DX2                !
 ! D43   D(12,11,13,14)          4.0059         estimate D2E/DX2                !
 ! D44   D(12,11,13,44)        177.687          estimate D2E/DX2                !
 ! D45   D(11,13,14,15)        162.7038         estimate D2E/DX2                !
 ! D46   D(11,13,14,19)        -17.5986         estimate D2E/DX2                !
 ! D47   D(44,13,14,15)        -10.6205         estimate D2E/DX2                !
 ! D48   D(44,13,14,19)        169.0771         estimate D2E/DX2                !
 ! D49   D(13,14,15,16)       -178.9455         estimate D2E/DX2                !
 ! D50   D(13,14,15,37)         -0.1663         estimate D2E/DX2                !
 ! D51   D(19,14,15,16)          1.3487         estimate D2E/DX2                !
 ! D52   D(19,14,15,37)       -179.8721         estimate D2E/DX2                !
 ! D53   D(13,14,19,18)        178.6317         estimate D2E/DX2                !
 ! D54   D(13,14,19,47)         -0.8514         estimate D2E/DX2                !
 ! D55   D(15,14,19,18)         -1.6681         estimate D2E/DX2                !
 ! D56   D(15,14,19,47)        178.8488         estimate D2E/DX2                !
 ! D57   D(14,15,16,17)          0.0761         estimate D2E/DX2                !
 ! D58   D(14,15,16,45)        179.1575         estimate D2E/DX2                !
 ! D59   D(37,15,16,17)       -178.7539         estimate D2E/DX2                !
 ! D60   D(37,15,16,45)          0.3275         estimate D2E/DX2                !
 ! D61   D(14,15,37,66)         64.109          estimate D2E/DX2                !
 ! D62   D(14,15,37,67)        -55.9939         estimate D2E/DX2                !
 ! D63   D(14,15,37,68)       -175.8962         estimate D2E/DX2                !
 ! D64   D(16,15,37,66)       -117.1378         estimate D2E/DX2                !
 ! D65   D(16,15,37,67)        122.7594         estimate D2E/DX2                !
 ! D66   D(16,15,37,68)          2.8571         estimate D2E/DX2                !
 ! D67   D(15,16,17,18)         -1.2399         estimate D2E/DX2                !
 ! D68   D(15,16,17,46)        178.9196         estimate D2E/DX2                !
 ! D69   D(45,16,17,18)        179.6591         estimate D2E/DX2                !
 ! D70   D(45,16,17,46)         -0.1814         estimate D2E/DX2                !
 ! D71   D(16,17,18,19)          0.9434         estimate D2E/DX2                !
 ! D72   D(16,17,18,20)        179.48           estimate D2E/DX2                !
 ! D73   D(46,17,18,19)       -179.2135         estimate D2E/DX2                !
 ! D74   D(46,17,18,20)         -0.6769         estimate D2E/DX2                !
 ! D75   D(17,18,19,14)          0.4915         estimate D2E/DX2                !
 ! D76   D(17,18,19,47)        179.9654         estimate D2E/DX2                !
 ! D77   D(20,18,19,14)       -178.209          estimate D2E/DX2                !
 ! D78   D(20,18,19,47)          1.2649         estimate D2E/DX2                !
 ! D79   D(17,18,20,21)         -8.2721         estimate D2E/DX2                !
 ! D80   D(17,18,20,48)        176.8346         estimate D2E/DX2                !
 ! D81   D(19,18,20,21)        170.3234         estimate D2E/DX2                !
 ! D82   D(19,18,20,48)         -4.5698         estimate D2E/DX2                !
 ! D83   D(18,20,21,22)       -168.3651         estimate D2E/DX2                !
 ! D84   D(18,20,21,36)         13.0967         estimate D2E/DX2                !
 ! D85   D(48,20,21,22)          6.5177         estimate D2E/DX2                !
 ! D86   D(48,20,21,36)       -172.0205         estimate D2E/DX2                !
 ! D87   D(20,21,22,23)         35.0465         estimate D2E/DX2                !
 ! D88   D(20,21,22,27)       -145.3147         estimate D2E/DX2                !
 ! D89   D(36,21,22,23)       -146.3856         estimate D2E/DX2                !
 ! D90   D(36,21,22,27)         33.2531         estimate D2E/DX2                !
 ! D91   D(21,22,23,24)       -178.5332         estimate D2E/DX2                !
 ! D92   D(21,22,23,49)          0.4302         estimate D2E/DX2                !
 ! D93   D(27,22,23,24)          1.8272         estimate D2E/DX2                !
 ! D94   D(27,22,23,49)       -179.2094         estimate D2E/DX2                !
 ! D95   D(21,22,27,26)        178.5577         estimate D2E/DX2                !
 ! D96   D(21,22,27,52)         -0.3843         estimate D2E/DX2                !
 ! D97   D(23,22,27,26)         -1.7901         estimate D2E/DX2                !
 ! D98   D(23,22,27,52)        179.2679         estimate D2E/DX2                !
 ! D99   D(22,23,24,25)         -1.3593         estimate D2E/DX2                !
 ! D100  D(22,23,24,50)        178.787          estimate D2E/DX2                !
 ! D101  D(49,23,24,25)        179.6725         estimate D2E/DX2                !
 ! D102  D(49,23,24,50)         -0.1811         estimate D2E/DX2                !
 ! D103  D(23,24,25,26)          0.7908         estimate D2E/DX2                !
 ! D104  D(23,24,25,28)        178.2084         estimate D2E/DX2                !
 ! D105  D(50,24,25,26)       -179.3587         estimate D2E/DX2                !
 ! D106  D(50,24,25,28)         -1.941          estimate D2E/DX2                !
 ! D107  D(24,25,26,27)         -0.7554         estimate D2E/DX2                !
 ! D108  D(24,25,26,51)        179.0006         estimate D2E/DX2                !
 ! D109  D(28,25,26,27)       -178.1252         estimate D2E/DX2                !
 ! D110  D(28,25,26,51)          1.6308         estimate D2E/DX2                !
 ! D111  D(24,25,28,29)        -83.2702         estimate D2E/DX2                !
 ! D112  D(24,25,28,53)         40.1584         estimate D2E/DX2                !
 ! D113  D(24,25,28,54)        155.0462         estimate D2E/DX2                !
 ! D114  D(26,25,28,29)         94.0245         estimate D2E/DX2                !
 ! D115  D(26,25,28,53)       -142.5469         estimate D2E/DX2                !
 ! D116  D(26,25,28,54)        -27.659          estimate D2E/DX2                !
 ! D117  D(25,26,27,22)          1.2877         estimate D2E/DX2                !
 ! D118  D(25,26,27,52)       -179.7969         estimate D2E/DX2                !
 ! D119  D(51,26,27,22)       -178.4712         estimate D2E/DX2                !
 ! D120  D(51,26,27,52)          0.4442         estimate D2E/DX2                !
 ! D121  D(25,28,29,30)       -165.2438         estimate D2E/DX2                !
 ! D122  D(25,28,29,35)         56.2681         estimate D2E/DX2                !
 ! D123  D(53,28,29,30)         71.1564         estimate D2E/DX2                !
 ! D124  D(53,28,29,35)        -67.3317         estimate D2E/DX2                !
 ! D125  D(54,28,29,30)        -43.2798         estimate D2E/DX2                !
 ! D126  D(54,28,29,35)        178.2321         estimate D2E/DX2                !
 ! D127  D(28,29,30,31)        -89.2787         estimate D2E/DX2                !
 ! D128  D(28,29,30,55)         33.761          estimate D2E/DX2                !
 ! D129  D(28,29,30,56)        151.564          estimate D2E/DX2                !
 ! D130  D(35,29,30,31)         52.669          estimate D2E/DX2                !
 ! D131  D(35,29,30,55)        175.7087         estimate D2E/DX2                !
 ! D132  D(35,29,30,56)        -66.4883         estimate D2E/DX2                !
 ! D133  D(28,29,35,34)         88.9811         estimate D2E/DX2                !
 ! D134  D(28,29,35,64)       -155.1464         estimate D2E/DX2                !
 ! D135  D(28,29,35,65)        -39.712          estimate D2E/DX2                !
 ! D136  D(30,29,35,34)        -52.4294         estimate D2E/DX2                !
 ! D137  D(30,29,35,64)         63.4431         estimate D2E/DX2                !
 ! D138  D(30,29,35,65)        178.8775         estimate D2E/DX2                !
 ! D139  D(29,30,31,32)        -52.698          estimate D2E/DX2                !
 ! D140  D(29,30,31,57)       -178.6222         estimate D2E/DX2                !
 ! D141  D(29,30,31,58)         64.3511         estimate D2E/DX2                !
 ! D142  D(55,30,31,32)       -176.1978         estimate D2E/DX2                !
 ! D143  D(55,30,31,57)         57.878          estimate D2E/DX2                !
 ! D144  D(55,30,31,58)        -59.1486         estimate D2E/DX2                !
 ! D145  D(56,30,31,32)         67.0208         estimate D2E/DX2                !
 ! D146  D(56,30,31,57)        -58.9034         estimate D2E/DX2                !
 ! D147  D(56,30,31,58)       -175.9301         estimate D2E/DX2                !
 ! D148  D(30,31,32,33)        -85.0919         estimate D2E/DX2                !
 ! D149  D(30,31,32,34)         49.0171         estimate D2E/DX2                !
 ! D150  D(57,31,32,33)         42.131          estimate D2E/DX2                !
 ! D151  D(57,31,32,34)        176.24           estimate D2E/DX2                !
 ! D152  D(58,31,32,33)        158.4323         estimate D2E/DX2                !
 ! D153  D(58,31,32,34)        -67.4588         estimate D2E/DX2                !
 ! D154  D(31,32,33,59)         65.6063         estimate D2E/DX2                !
 ! D155  D(31,32,33,60)        -54.9107         estimate D2E/DX2                !
 ! D156  D(31,32,33,61)       -173.6922         estimate D2E/DX2                !
 ! D157  D(34,32,33,59)        -65.4662         estimate D2E/DX2                !
 ! D158  D(34,32,33,60)        174.0168         estimate D2E/DX2                !
 ! D159  D(34,32,33,61)         55.2352         estimate D2E/DX2                !
 ! D160  D(31,32,34,35)        -49.675          estimate D2E/DX2                !
 ! D161  D(31,32,34,62)       -171.3101         estimate D2E/DX2                !
 ! D162  D(31,32,34,63)         70.4623         estimate D2E/DX2                !
 ! D163  D(33,32,34,35)         84.3729         estimate D2E/DX2                !
 ! D164  D(33,32,34,62)        -37.2622         estimate D2E/DX2                !
 ! D165  D(33,32,34,63)       -155.4898         estimate D2E/DX2                !
 ! D166  D(32,34,35,29)         53.1349         estimate D2E/DX2                !
 ! D167  D(32,34,35,64)        -63.7465         estimate D2E/DX2                !
 ! D168  D(32,34,35,65)       -179.6137         estimate D2E/DX2                !
 ! D169  D(62,34,35,29)        175.1568         estimate D2E/DX2                !
 ! D170  D(62,34,35,64)         58.2754         estimate D2E/DX2                !
 ! D171  D(62,34,35,65)        -57.5918         estimate D2E/DX2                !
 ! D172  D(63,34,35,29)        -67.0949         estimate D2E/DX2                !
 ! D173  D(63,34,35,64)        176.0237         estimate D2E/DX2                !
 ! D174  D(63,34,35,65)         60.1565         estimate D2E/DX2                !
 --------------------------------------------------------------------------------
 Trust Radius=3.00D-01 FncErr=1.00D-07 GrdErr=1.00D-06
 Number of steps in this run= 400 maximum allowed number of steps= 408.
 GradGradGradGradGradGradGradGradGradGradGradGradGradGradGradGradGradGrad

 Leave Link  103 at Wed Mar 11 00:05:05 2020, MaxMem= 2684354560 cpu:       0.1
 (Enter /opt/g09gh/gaussian/g09/l202.exe)
 Stoichiometry    C29H31N7O
 Framework group  C1[X(C29H31N7O)]
 Deg. of freedom   198
 Full point group                 C1      NOp   1
 Largest Abelian subgroup         C1      NOp   1
 Largest concise Abelian subgroup C1      NOp   1
                         Standard orientation:                         
 ---------------------------------------------------------------------
 Center     Atomic      Atomic             Coordinates (Angstroms)
 Number     Number       Type             X           Y           Z
 ---------------------------------------------------------------------
      1          6           0       -0.421075    4.343936   -0.712295
      2          6           0        0.951902    4.369635   -0.430055
      3          6           0        1.678507    3.164425   -0.355235
      4          6           0        0.935592    1.984317   -0.607581
      5          7           0       -0.373375    1.937779   -0.886612
      6          6           0       -1.034272    3.104585   -0.928696
      7          6           0        3.154202    3.095720   -0.044055
      8          6           0        4.008969    4.197513    0.117996
      9          6           0        5.349527    3.891272    0.378191
     10          7           0        5.832365    2.656976    0.491662
     11          6           0        4.936424    1.658650    0.343319
     12          7           0        3.639243    1.845260    0.082220
     13          7           0        5.442398    0.373874    0.487036
     14          6           0        4.861035   -0.939385    0.343367
     15          6           0        5.711320   -2.076952    0.195535
     16          6           0        5.088876   -3.327489    0.036739
     17          6           0        3.701281   -3.513639    0.014639
     18          6           0        2.882778   -2.392842    0.185492
     19          6           0        3.474506   -1.130618    0.351276
     20          7           0        1.452846   -2.384088    0.182096
     21          6           0        0.534151   -3.361308   -0.121985
     22          6           0       -0.908187   -2.917067   -0.277572
     23          6           0       -1.257021   -1.672468   -0.829019
     24          6           0       -2.595074   -1.290937   -0.925766
     25          6           0       -3.634400   -2.141820   -0.505103
     26          6           0       -3.272528   -3.391050    0.035167
     27          6           0       -1.934177   -3.782011    0.136852
     28          6           0       -5.091382   -1.681474   -0.584849
     29          7           0       -5.622198   -0.854328    0.515971
     30          6           0       -7.087143   -0.688165    0.615640
     31          6           0       -7.623771    0.524116   -0.188368
     32          7           0       -6.943174    1.808445    0.113053
     33          6           0       -7.456968    2.555696    1.267502
     34          6           0       -5.474277    1.617543    0.058179
     35          6           0       -4.937248    0.409963    0.866450
     36          8           0        0.839653   -4.537731   -0.238169
     37          6           0        7.227758   -1.990486    0.175756
     38          1           0       -1.001999    5.260084   -0.763889
     39          1           0        1.423224    5.333497   -0.254441
     40          1           0        1.436766    1.022498   -0.608565
     41          1           0       -2.098024    3.041189   -1.153104
     42          1           0        3.693242    5.229806    0.029593
     43          1           0        6.080276    4.690162    0.501897
     44          1           0        6.438508    0.417580    0.641958
     45          1           0        5.706562   -4.215423   -0.092645
     46          1           0        3.260308   -4.492982   -0.127295
     47          1           0        2.849055   -0.262671    0.482866
     48          1           0        1.047350   -1.478432    0.372591
     49          1           0       -0.479986   -0.991749   -1.168682
     50          1           0       -2.821416   -0.309024   -1.341277
     51          1           0       -4.044517   -4.074049    0.388323
     52          1           0       -1.662624   -4.749353    0.552063
     53          1           0       -5.231250   -1.129238   -1.525891
     54          1           0       -5.723850   -2.578178   -0.652991
     55          1           0       -7.727744   -1.836186    0.196975
     56          1           0       -7.442437   -0.463665    2.059842
     57          1           0       -8.675356    0.641805   -0.086162
     58          1           0       -7.328470    0.201027   -1.687285
     59          1           0       -7.283659    2.005635    2.199681
     60          1           0       -8.533408    2.730461    1.156407
     61          1           0       -6.965455    3.532822    1.335870
     62          1           0       -4.822912    2.823029    0.555207
     63          1           0       -5.093689    1.410535   -1.371366
     64          1           0       -5.268244    0.721763    2.364553
     65          1           0       -3.972766    0.307306    0.821354
     66          1           0        7.621483   -1.629897    1.136498
     67          1           0        7.581646   -1.303136   -0.605602
     68          1           0        7.709582   -2.958772   -0.018237
 ---------------------------------------------------------------------
 Rotational constants (GHZ):      0.1388704      0.0519106      0.0386571
 Leave Link  202 at Wed Mar 11 00:05:05 2020, MaxMem= 2684354560 cpu:       0.1
 (Enter /opt/g09gh/gaussian/g09/l301.exe)
 Standard basis: 6-31G(d) (6D, 7F)
 Ernie: Thresh=  0.10000D-02 Tol=  0.10000D-05 Strict=F.
 There are   617 symmetry adapted basis functions of A   symmetry.
 Integral buffers will be    131072 words long.
 Raffenetti 2 integral format.
 Two-electron integral symmetry is turned on.
   617 basis functions,  1160 primitive gaussians,   617 cartesian basis functions
   131 alpha electrons      131 beta electrons
       nuclear repulsion energy      3692.7726262385 Hartrees.
 IExCor= 4639 DFT=T Ex+Corr=wB97XD ExCW=0 ScaHFX=  1.000000
 ScaDFX=  1.000000  1.000000  1.000000  1.000000 ScalE2=  1.000000  1.000000
 IRadAn=      0 IRanWt=     -1 IRanGd=            0 ICorTp=0
  HFx wShort=  0.000000 wLong=  0.200000 cFull=  0.222036 cShort=  0.000000 cLong=  0.777964
  DFx wShort=  0.000000 wLong=  0.200000 cFull=  0.000000 cShort=  0.000000 cLong=  1.000000
 NAtoms=   68 NActive=   68 NUniq=   68 SFac= 7.50D-01 NAtFMM=   80 NAOKFM=F Big=T
 R6Disp: Dispersion energy =        -0.0558587343 Hartrees.
 Nuclear repulsion after empirical dispersion term =     3692.7167675042 Hartrees.
 Leave Link  301 at Wed Mar 11 00:05:05 2020, MaxMem= 2684354560 cpu:       0.4
 (Enter /opt/g09gh/gaussian/g09/l302.exe)
 NPDir=0 NMtPBC=     1 NCelOv=     1 NCel=       1 NClECP=     1 NCelD=      1
         NCelK=      1 NCelE2=     1 NClLst=     1 CellRange=     0.0.
 One-electron integrals computed using PRISM.
 NBasis=   617 RedAO= T  NBF=   617
 NBsUse=   617 1.00D-06 NBFU=   617
 Precomputing XC quadrature grid using
 IXCGrd= 2 IRadAn=           0 IRanWt=          -1 IRanGd=           0 AccXCQ= 1.00D-10.
 NRdTot=    4391 NPtTot=      561422 NUsed=      593056 NTot=      593088
 NSgBfM=   600   600   600   600   600 NAtAll=    68    68.
 Leave Link  302 at Wed Mar 11 00:05:06 2020, MaxMem= 2684354560 cpu:       8.3
 (Enter /opt/g09gh/gaussian/g09/l303.exe)
 DipDrv:  MaxL=1.
 Leave Link  303 at Wed Mar 11 00:05:06 2020, MaxMem= 2684354560 cpu:       0.6
 (Enter /opt/g09gh/gaussian/g09/l401.exe)
 Harris functional with IExCor= 4639 diagonalized for initial guess.
 ExpMin= 1.61D-01 ExpMax= 5.48D+03 ExpMxC= 8.25D+02 IAcc=1 IRadAn=         1 AccDes= 0.00D+00
 HarFok:  IExCor= 4639 AccDes= 0.00D+00 IRadAn=         1 IDoV= 1
 ScaDFX=  1.000000  1.000000  1.000000  1.000000
 FoFCou: FMM=F IPFlag=           0 FMFlag=      100000 FMFlg1=           1
         NFxFlg=           0 DoJE=T BraDBF=F KetDBF=T FulRan=T
         Omega=  0.000000  0.000000  1.000000  0.000000  0.000000 ICntrl=     500 IOpCl=  0
         NMat0=    1 NMatS0=    1 NMatT0=    0 NMatD0=    1 NMtDS0=    0 NMtDT0=    0
         I1Cent=           4 NGrid=           0.
 Petite list used in FoFCou.
 Harris En= -1512.34390458768    
 Initial guess orbital symmetries:
       Occupied  (A) (A) (A) (A) (A) (A) (A) (A) (A) (A) (A) (A)
                 (A) (A) (A) (A) (A) (A) (A) (A) (A) (A) (A) (A)
                 (A) (A) (A) (A) (A) (A) (A) (A) (A) (A) (A) (A)
                 (A) (A) (A) (A) (A) (A) (A) (A) (A) (A) (A) (A)
                 (A) (A) (A) (A) (A) (A) (A) (A) (A) (A) (A) (A)
                 (A) (A) (A) (A) (A) (A) (A) (A) (A) (A) (A) (A)
                 (A) (A) (A) (A) (A) (A) (A) (A) (A) (A) (A) (A)
                 (A) (A) (A) (A) (A) (A) (A) (A) (A) (A) (A) (A)
                 (A) (A) (A) (A) (A) (A) (A) (A) (A) (A) (A) (A)
                 (A) (A) (A) (A) (A) (A) (A) (A) (A) (A) (A) (A)
                 (A) (A) (A) (A) (A) (A) (A) (A) (A) (A) (A)
       Virtual   (A) (A) (A) (A) (A) (A) (A) (A) (A) (A) (A) (A)
                 (A) (A) (A) (A) (A) (A) (A) (A) (A) (A) (A) (A)
                 (A) (A) (A) (A) (A) (A) (A) (A) (A) (A) (A) (A)
                 (A) (A) (A) (A) (A) (A) (A) (A) (A) (A) (A) (A)
                 (A) (A) (A) (A) (A) (A) (A) (A) (A) (A) (A) (A)
                 (A) (A) (A) (A) (A) (A) (A) (A) (A) (A) (A) (A)
                 (A) (A) (A) (A) (A) (A) (A) (A) (A) (A) (A) (A)
                 (A) (A) (A) (A) (A) (A) (A) (A) (A) (A) (A) (A)
                 (A) (A) (A) (A) (A) (A) (A) (A) (A) (A) (A) (A)
                 (A) (A) (A) (A) (A) (A) (A) (A) (A) (A) (A) (A)
                 (A) (A) (A) (A) (A) (A) (A) (A) (A) (A) (A) (A)
                 (A) (A) (A) (A) (A) (A) (A) (A) (A) (A) (A) (A)
                 (A) (A) (A) (A) (A) (A) (A) (A) (A) (A) (A) (A)
                 (A) (A) (A) (A) (A) (A) (A) (A) (A) (A) (A) (A)
                 (A) (A) (A) (A) (A) (A) (A) (A) (A) (A) (A) (A)
                 (A) (A) (A) (A) (A) (A) (A) (A) (A) (A) (A) (A)
                 (A) (A) (A) (A) (A) (A) (A) (A) (A) (A) (A) (A)
                 (A) (A) (A) (A) (A) (A) (A) (A) (A) (A) (A) (A)
                 (A) (A) (A) (A) (A) (A) (A) (A) (A) (A) (A) (A)
                 (A) (A) (A) (A) (A) (A) (A) (A) (A) (A) (A) (A)
                 (A) (A) (A) (A) (A) (A) (A) (A) (A) (A) (A) (A)
                 (A) (A) (A) (A) (A) (A) (A) (A) (A) (A) (A) (A)
                 (A) (A) (A) (A) (A) (A) (A) (A) (A) (A) (A) (A)
                 (A) (A) (A) (A) (A) (A) (A) (A) (A) (A) (A) (A)
                 (A) (A) (A) (A) (A) (A) (A) (A) (A) (A) (A) (A)
                 (A) (A) (A) (A) (A) (A) (A) (A) (A) (A) (A) (A)
                 (A) (A) (A) (A) (A) (A) (A) (A) (A) (A) (A) (A)
                 (A) (A) (A) (A) (A) (A) (A) (A) (A) (A) (A) (A)
                 (A) (A) (A) (A) (A) (A) (A) (A) (A) (A) (A) (A)
                 (A) (A) (A) (A) (A) (A) (A) (A) (A) (A) (A) (A)
                 (A) (A) (A) (A) (A) (A) (A) (A) (A) (A) (A) (A)
                 (A) (A) (A) (A) (A) (A) (A) (A) (A) (A) (A) (A)
                 (A) (A) (A) (A) (A) (A) (A) (A) (A) (A) (A) (A)
                 (A) (A) (A) (A) (A) (A) (A) (A) (A) (A) (A) (A)
                 (A) (A) (A) (A) (A) (A) (A) (A) (A) (A) (A) (A)
                 (A) (A) (A) (A) (A) (A) (A) (A) (A) (A) (A) (A)
                 (A) (A) (A) (A) (A) (A) (A) (A) (A) (A) (A) (A)
                 (A) (A) (A) (A) (A) (A) (A) (A) (A) (A) (A) (A)
                 (A) (A) (A) (A) (A) (A) (A) (A) (A) (A) (A) (A)
                 (A) (A) (A) (A) (A) (A) (A) (A) (A) (A) (A) (A)
                 (A) (A) (A) (A) (A) (A)
 The electronic state of the initial guess is 1-A.
 Leave Link  401 at Wed Mar 11 00:05:09 2020, MaxMem= 2684354560 cpu:      17.9
 (Enter /opt/g09gh/gaussian/g09/l502.exe)
 Closed shell SCF:
 Requested convergence on RMS density matrix=1.00D-08 within 128 cycles.
 Requested convergence on MAX density matrix=1.00D-06.
 Requested convergence on             energy=1.00D-06.
 No special actions if energy rises.
 Using DIIS extrapolation, IDIIS=  1040.
 Integral symmetry usage will be decided dynamically.
       592431 words used for storage of precomputed grid.
 IEnd=     1761011 IEndB=     1761011 NGot=  2684354560 MDV=  2682991496
 LenX=  2682991496 LenY=  2682610190
 Fock matrices will be formed incrementally for  20 cycles.
 Integral accuracy reduced to 1.0D-05 until final iterations.

 Cycle   1  Pass 0  IDiag  1:
 FoFJK:  IHMeth= 1 ICntrl=     0 DoSepK=T KAlg= 1 I1Cent= 0 FoldK=F
 FoFCou: FMM=T IPFlag=           0 FMFlag=      100000 FMFlg1=           1
         NFxFlg=           0 DoJE=T BraDBF=F KetDBF=F FulRan=T
         Omega=  0.000000  0.000000  1.000000  0.000000  0.000000 ICntrl=     500 IOpCl=  0
         NMat0=    1 NMatS0=    1 NMatT0=    0 NMatD0=    1 NMtDS0=    0 NMtDT0=    0
         I1Cent=           0 NGrid=           0.
 Symmetry not used in FoFCou.
 FMM levels:  10  Number of levels for PrismC:   9
 E= -1581.07495535901    
 DIIS: error= 4.87D-02 at cycle   1 NSaved=   1.
 NSaved= 1 IEnMin= 1 EnMin= -1581.07495535901     IErMin= 1 ErrMin= 4.87D-02
 ErrMax= 4.87D-02 EMaxC= 1.00D-01 BMatC= 1.47D+00 BMatP= 1.47D+00
 IDIUse=3 WtCom= 5.13D-01 WtEn= 4.87D-01
 Coeff-Com:  0.100D+01
 Coeff-En:   0.100D+01
 Coeff:      0.100D+01
 Gap=     0.280 Goal=   None    Shift=    0.000
 GapD=    0.280 DampG=1.000 DampE=0.500 DampFc=0.5000 IDamp=-1.
 Damping current iteration by 5.00D-01
 RMSDP=1.90D-03 MaxDP=8.89D-02              OVMax= 1.71D-01

 Cycle   2  Pass 0  IDiag  1:
 RMSU=  6.72D-04    CP:  1.00D+00
 FoFJK:  IHMeth= 1 ICntrl=     0 DoSepK=T KAlg= 1 I1Cent= 0 FoldK=F
 E= -1581.25403589868     Delta-E=       -0.179080539677 Rises=F Damp=T
 DIIS: error= 2.43D-02 at cycle   2 NSaved=   2.
 NSaved= 2 IEnMin= 2 EnMin= -1581.25403589868     IErMin= 2 ErrMin= 2.43D-02
 ErrMax= 2.43D-02 EMaxC= 1.00D-01 BMatC= 3.22D-01 BMatP= 1.47D+00
 IDIUse=3 WtCom= 7.57D-01 WtEn= 2.43D-01
 Coeff-Com: -0.644D+00 0.164D+01
 Coeff-En:   0.000D+00 0.100D+01
 Coeff:     -0.487D+00 0.149D+01
 Gap=     0.279 Goal=   None    Shift=    0.000
 RMSDP=8.90D-04 MaxDP=3.83D-02 DE=-1.79D-01 OVMax= 1.23D-01

 Cycle   3  Pass 0  IDiag  1:
 RMSU=  5.82D-04    CP:  1.00D+00  1.36D+00
 FoFJK:  IHMeth= 1 ICntrl=     0 DoSepK=T KAlg= 1 I1Cent= 0 FoldK=F
 E= -1581.37967496561     Delta-E=       -0.125639066930 Rises=F Damp=F
 DIIS: error= 7.13D-03 at cycle   3 NSaved=   3.
 NSaved= 3 IEnMin= 3 EnMin= -1581.37967496561     IErMin= 3 ErrMin= 7.13D-03
 ErrMax= 7.13D-03 EMaxC= 1.00D-01 BMatC= 7.01D-02 BMatP= 3.22D-01
 IDIUse=3 WtCom= 9.29D-01 WtEn= 7.13D-02
 Coeff-Com: -0.373D+00 0.770D+00 0.603D+00
 Coeff-En:   0.000D+00 0.000D+00 0.100D+01
 Coeff:     -0.346D+00 0.715D+00 0.631D+00
 Gap=     0.266 Goal=   None    Shift=    0.000
 RMSDP=4.93D-04 MaxDP=3.30D-02 DE=-1.26D-01 OVMax= 6.37D-02

 Cycle   4  Pass 0  IDiag  1:
 RMSU=  1.44D-04    CP:  1.00D+00  1.66D+00  5.85D-01
 FoFJK:  IHMeth= 1 ICntrl=     0 DoSepK=T KAlg= 1 I1Cent= 0 FoldK=F
 E= -1581.44237293094     Delta-E=       -0.062697965326 Rises=F Damp=F
 DIIS: error= 1.71D-03 at cycle   4 NSaved=   4.
 NSaved= 4 IEnMin= 4 EnMin= -1581.44237293094     IErMin= 4 ErrMin= 1.71D-03
 ErrMax= 1.71D-03 EMaxC= 1.00D-01 BMatC= 3.74D-03 BMatP= 7.01D-02
 IDIUse=3 WtCom= 9.83D-01 WtEn= 1.71D-02
 Coeff-Com: -0.170D+00 0.346D+00 0.340D+00 0.483D+00
 Coeff-En:   0.000D+00 0.000D+00 0.000D+00 0.100D+01
 Coeff:     -0.167D+00 0.341D+00 0.334D+00 0.492D+00
 Gap=     0.261 Goal=   None    Shift=    0.000
 RMSDP=1.03D-04 MaxDP=9.03D-03 DE=-6.27D-02 OVMax= 1.02D-02

 Cycle   5  Pass 0  IDiag  1:
 RMSU=  4.63D-05    CP:  1.00D+00  1.64D+00  6.50D-01  7.22D-01
 FoFJK:  IHMeth= 1 ICntrl=     0 DoSepK=T KAlg= 1 I1Cent= 0 FoldK=F
 E= -1581.44564322934     Delta-E=       -0.003270298399 Rises=F Damp=F
 DIIS: error= 4.56D-04 at cycle   5 NSaved=   5.
 NSaved= 5 IEnMin= 5 EnMin= -1581.44564322934     IErMin= 5 ErrMin= 4.56D-04
 ErrMax= 4.56D-04 EMaxC= 1.00D-01 BMatC= 8.55D-05 BMatP= 3.74D-03
 IDIUse=3 WtCom= 9.95D-01 WtEn= 4.56D-03
 Coeff-Com: -0.148D-01 0.292D-01 0.488D-01 0.149D+00 0.788D+00
 Coeff-En:   0.000D+00 0.000D+00 0.000D+00 0.000D+00 0.100D+01
 Coeff:     -0.147D-01 0.290D-01 0.485D-01 0.148D+00 0.789D+00
 Gap=     0.259 Goal=   None    Shift=    0.000
 RMSDP=2.43D-05 MaxDP=2.51D-03 DE=-3.27D-03 OVMax= 2.92D-03

 Cycle   6  Pass 0  IDiag  1:
 RMSU=  1.32D-05    CP:  1.00D+00  1.65D+00  6.57D-01  7.88D-01  1.00D+00
 FoFJK:  IHMeth= 1 ICntrl=     0 DoSepK=T KAlg= 1 I1Cent= 0 FoldK=F
 E= -1581.44572854832     Delta-E=       -0.000085318985 Rises=F Damp=F
 DIIS: error= 2.10D-04 at cycle   6 NSaved=   6.
 NSaved= 6 IEnMin= 6 EnMin= -1581.44572854832     IErMin= 6 ErrMin= 2.10D-04
 ErrMax= 2.10D-04 EMaxC= 1.00D-01 BMatC= 2.73D-05 BMatP= 8.55D-05
 IDIUse=3 WtCom= 9.98D-01 WtEn= 2.10D-03
 Coeff-Com:  0.239D-01-0.494D-01-0.363D-01-0.172D-01 0.403D+00 0.676D+00
 Coeff-En:   0.000D+00 0.000D+00 0.000D+00 0.000D+00 0.000D+00 0.100D+01
 Coeff:      0.239D-01-0.493D-01-0.362D-01-0.172D-01 0.402D+00 0.677D+00
 Gap=     0.260 Goal=   None    Shift=    0.000
 RMSDP=1.31D-05 MaxDP=8.03D-04 DE=-8.53D-05 OVMax= 1.59D-03

 Cycle   7  Pass 0  IDiag  1:
 RMSU=  5.69D-06    CP:  1.00D+00  1.65D+00  6.60D-01  8.14D-01  1.12D+00
                    CP:  8.79D-01
 FoFJK:  IHMeth= 1 ICntrl=     0 DoSepK=T KAlg= 1 I1Cent= 0 FoldK=F
 E= -1581.44575885357     Delta-E=       -0.000030305251 Rises=F Damp=F
 DIIS: error= 5.54D-05 at cycle   7 NSaved=   7.
 NSaved= 7 IEnMin= 7 EnMin= -1581.44575885357     IErMin= 7 ErrMin= 5.54D-05
 ErrMax= 5.54D-05 EMaxC= 1.00D-01 BMatC= 1.64D-06 BMatP= 2.73D-05
 IDIUse=1 WtCom= 1.00D+00 WtEn= 0.00D+00
 Coeff-Com:  0.964D-02-0.197D-01-0.163D-01-0.198D-01 0.649D-01 0.230D+00
 Coeff-Com:  0.752D+00
 Coeff:      0.964D-02-0.197D-01-0.163D-01-0.198D-01 0.649D-01 0.230D+00
 Coeff:      0.752D+00
 Gap=     0.260 Goal=   None    Shift=    0.000
 RMSDP=4.02D-06 MaxDP=2.69D-04 DE=-3.03D-05 OVMax= 6.38D-04

 Initial convergence to 1.0D-05 achieved.  Increase integral accuracy.
 Cycle   8  Pass 1  IDiag  1:
 FoFJK:  IHMeth= 1 ICntrl=     0 DoSepK=T KAlg= 1 I1Cent= 0 FoldK=F
 E= -1581.44468140020     Delta-E=        0.001077453376 Rises=F Damp=F
 DIIS: error= 9.04D-05 at cycle   1 NSaved=   1.
 NSaved= 1 IEnMin= 1 EnMin= -1581.44468140020     IErMin= 1 ErrMin= 9.04D-05
 ErrMax= 9.04D-05 EMaxC= 1.00D-01 BMatC= 1.22D-05 BMatP= 1.22D-05
 IDIUse=1 WtCom= 1.00D+00 WtEn= 0.00D+00
 Coeff-Com:  0.100D+01
 Coeff:      0.100D+01
 Gap=     0.260 Goal=   None    Shift=    0.000
 RMSDP=4.02D-06 MaxDP=2.69D-04 DE= 1.08D-03 OVMax= 3.95D-04

 Cycle   9  Pass 1  IDiag  1:
 RMSU=  1.94D-05    CP:  1.00D+00
 FoFJK:  IHMeth= 1 ICntrl=     0 DoSepK=T KAlg= 1 I1Cent= 0 FoldK=F
 E= -1581.44469149402     Delta-E=       -0.000010093820 Rises=F Damp=F
 DIIS: error= 3.03D-05 at cycle   2 NSaved=   2.
 NSaved= 2 IEnMin= 2 EnMin= -1581.44469149402     IErMin= 2 ErrMin= 3.03D-05
 ErrMax= 3.03D-05 EMaxC= 1.00D-01 BMatC= 7.80D-07 BMatP= 1.22D-05
 IDIUse=1 WtCom= 1.00D+00 WtEn= 0.00D+00
 Coeff-Com:  0.418D-01 0.958D+00
 Coeff:      0.418D-01 0.958D+00
 Gap=     0.260 Goal=   None    Shift=    0.000
 RMSDP=3.20D-06 MaxDP=2.31D-04 DE=-1.01D-05 OVMax= 2.90D-04

 Cycle  10  Pass 1  IDiag  1:
 RMSU=  2.08D-06    CP:  1.00D+00  1.05D+00
 FoFJK:  IHMeth= 1 ICntrl=     0 DoSepK=T KAlg= 1 I1Cent= 0 FoldK=F
 E= -1581.44469161910     Delta-E=       -0.000000125081 Rises=F Damp=F
 DIIS: error= 3.25D-05 at cycle   3 NSaved=   3.
 NSaved= 3 IEnMin= 3 EnMin= -1581.44469161910     IErMin= 2 ErrMin= 3.03D-05
 ErrMax= 3.25D-05 EMaxC= 1.00D-01 BMatC= 8.96D-07 BMatP= 7.80D-07
 IDIUse=1 WtCom= 1.00D+00 WtEn= 0.00D+00
 Coeff-Com: -0.411D-01 0.533D+00 0.508D+00
 Coeff:     -0.411D-01 0.533D+00 0.508D+00
 Gap=     0.260 Goal=   None    Shift=    0.000
 RMSDP=1.56D-06 MaxDP=1.33D-04 DE=-1.25D-07 OVMax= 1.48D-04

 Cycle  11  Pass 1  IDiag  1:
 RMSU=  6.32D-07    CP:  1.00D+00  1.06D+00  5.76D-01
 FoFJK:  IHMeth= 1 ICntrl=     0 DoSepK=T KAlg= 1 I1Cent= 0 FoldK=F
 E= -1581.44469241173     Delta-E=       -0.000000792631 Rises=F Damp=F
 DIIS: error= 6.31D-06 at cycle   4 NSaved=   4.
 NSaved= 4 IEnMin= 4 EnMin= -1581.44469241173     IErMin= 4 ErrMin= 6.31D-06
 ErrMax= 6.31D-06 EMaxC= 1.00D-01 BMatC= 2.31D-08 BMatP= 7.80D-07
 IDIUse=1 WtCom= 1.00D+00 WtEn= 0.00D+00
 Coeff-Com: -0.177D-01 0.126D+00 0.177D+00 0.715D+00
 Coeff:     -0.177D-01 0.126D+00 0.177D+00 0.715D+00
 Gap=     0.260 Goal=   None    Shift=    0.000
 RMSDP=3.55D-07 MaxDP=3.42D-05 DE=-7.93D-07 OVMax= 3.90D-05

 Cycle  12  Pass 1  IDiag  1:
 RMSU=  2.23D-07    CP:  1.00D+00  1.06D+00  6.28D-01  1.04D+00
 FoFJK:  IHMeth= 1 ICntrl=     0 DoSepK=T KAlg= 1 I1Cent= 0 FoldK=F
 E= -1581.44469243622     Delta-E=       -0.000000024485 Rises=F Damp=F
 DIIS: error= 2.95D-06 at cycle   5 NSaved=   5.
 NSaved= 5 IEnMin= 5 EnMin= -1581.44469243622     IErMin= 5 ErrMin= 2.95D-06
 ErrMax= 2.95D-06 EMaxC= 1.00D-01 BMatC= 5.31D-09 BMatP= 2.31D-08
 IDIUse=1 WtCom= 1.00D+00 WtEn= 0.00D+00
 Coeff-Com:  0.725D-03-0.486D-01-0.230D-01 0.313D+00 0.758D+00
 Coeff:      0.725D-03-0.486D-01-0.230D-01 0.313D+00 0.758D+00
 Gap=     0.260 Goal=   None    Shift=    0.000
 RMSDP=2.05D-07 MaxDP=1.49D-05 DE=-2.45D-08 OVMax= 2.98D-05

 Cycle  13  Pass 1  IDiag  1:
 RMSU=  9.17D-08    CP:  1.00D+00  1.06D+00  6.49D-01  1.21D+00  9.48D-01
 FoFJK:  IHMeth= 1 ICntrl=     0 DoSepK=T KAlg= 1 I1Cent= 0 FoldK=F
 E= -1581.44469244405     Delta-E=       -0.000000007838 Rises=F Damp=F
 DIIS: error= 7.25D-07 at cycle   6 NSaved=   6.
 NSaved= 6 IEnMin= 6 EnMin= -1581.44469244405     IErMin= 6 ErrMin= 7.25D-07
 ErrMax= 7.25D-07 EMaxC= 1.00D-01 BMatC= 6.67D-10 BMatP= 5.31D-09
 IDIUse=1 WtCom= 1.00D+00 WtEn= 0.00D+00
 Coeff-Com:  0.245D-02-0.342D-01-0.314D-01 0.315D-01 0.298D+00 0.734D+00
 Coeff:      0.245D-02-0.342D-01-0.314D-01 0.315D-01 0.298D+00 0.734D+00
 Gap=     0.260 Goal=   None    Shift=    0.000
 RMSDP=8.24D-08 MaxDP=3.46D-06 DE=-7.84D-09 OVMax= 1.41D-05

 Cycle  14  Pass 1  IDiag  1:
 RMSU=  3.68D-08    CP:  1.00D+00  1.06D+00  6.53D-01  1.26D+00  1.08D+00
                    CP:  1.04D+00
 FoFJK:  IHMeth= 1 ICntrl=     0 DoSepK=T KAlg= 1 I1Cent= 0 FoldK=F
 E= -1581.44469244526     Delta-E=       -0.000000001210 Rises=F Damp=F
 DIIS: error= 4.11D-07 at cycle   7 NSaved=   7.
 NSaved= 7 IEnMin= 7 EnMin= -1581.44469244526     IErMin= 7 ErrMin= 4.11D-07
 ErrMax= 4.11D-07 EMaxC= 1.00D-01 BMatC= 1.17D-10 BMatP= 6.67D-10
 IDIUse=1 WtCom= 1.00D+00 WtEn= 0.00D+00
 Coeff-Com:  0.771D-03-0.347D-02-0.823D-02-0.549D-01-0.368D-01 0.275D+00
 Coeff-Com:  0.827D+00
 Coeff:      0.771D-03-0.347D-02-0.823D-02-0.549D-01-0.368D-01 0.275D+00
 Coeff:      0.827D+00
 Gap=     0.260 Goal=   None    Shift=    0.000
 RMSDP=4.54D-08 MaxDP=1.67D-06 DE=-1.21D-09 OVMax= 7.14D-06

 Cycle  15  Pass 1  IDiag  1:
 RMSU=  1.53D-08    CP:  1.00D+00  1.06D+00  6.57D-01  1.28D+00  1.13D+00
                    CP:  1.25D+00  1.07D+00
 FoFJK:  IHMeth= 1 ICntrl=     0 DoSepK=T KAlg= 1 I1Cent= 0 FoldK=F
 E= -1581.44469244561     Delta-E=       -0.000000000342 Rises=F Damp=F
 DIIS: error= 1.54D-07 at cycle   8 NSaved=   8.
 NSaved= 8 IEnMin= 8 EnMin= -1581.44469244561     IErMin= 8 ErrMin= 1.54D-07
 ErrMax= 1.54D-07 EMaxC= 1.00D-01 BMatC= 1.80D-11 BMatP= 1.17D-10
 IDIUse=1 WtCom= 1.00D+00 WtEn= 0.00D+00
 Coeff-Com: -0.109D-03 0.427D-02 0.218D-02-0.234D-01-0.568D-01-0.193D-01
 Coeff-Com:  0.301D+00 0.792D+00
 Coeff:     -0.109D-03 0.427D-02 0.218D-02-0.234D-01-0.568D-01-0.193D-01
 Coeff:      0.301D+00 0.792D+00
 Gap=     0.260 Goal=   None    Shift=    0.000
 RMSDP=1.70D-08 MaxDP=7.00D-07 DE=-3.42D-10 OVMax= 3.64D-06

 Cycle  16  Pass 1  IDiag  1:
 RMSU=  6.25D-09    CP:  1.00D+00  1.06D+00  6.58D-01  1.29D+00  1.15D+00
                    CP:  1.30D+00  1.25D+00  1.07D+00
 FoFJK:  IHMeth= 1 ICntrl=     0 DoSepK=T KAlg= 1 I1Cent= 0 FoldK=F
 E= -1581.44469244565     Delta-E=       -0.000000000045 Rises=F Damp=F
 DIIS: error= 7.06D-08 at cycle   9 NSaved=   9.
 NSaved= 9 IEnMin= 9 EnMin= -1581.44469244565     IErMin= 9 ErrMin= 7.06D-08
 ErrMax= 7.06D-08 EMaxC= 1.00D-01 BMatC= 3.45D-12 BMatP= 1.80D-11
 IDIUse=1 WtCom= 1.00D+00 WtEn= 0.00D+00
 Coeff-Com: -0.179D-03 0.229D-02 0.235D-02 0.138D-03-0.176D-01-0.611D-01
 Coeff-Com: -0.290D-01 0.311D+00 0.792D+00
 Coeff:     -0.179D-03 0.229D-02 0.235D-02 0.138D-03-0.176D-01-0.611D-01
 Coeff:     -0.290D-01 0.311D+00 0.792D+00
 Gap=     0.260 Goal=   None    Shift=    0.000
 RMSDP=7.45D-09 MaxDP=3.34D-07 DE=-4.55D-11 OVMax= 1.54D-06

 SCF Done:  E(RwB97XD) =  -1581.44469245     A.U. after   16 cycles
             Convg  =    0.7449D-08             -V/T =  2.0111
 KE= 1.564119961797D+03 PE=-1.105326832045D+04 EE= 4.214986898705D+03
 Leave Link  502 at Wed Mar 11 00:08:09 2020, MaxMem= 2684354560 cpu:    1077.0
 (Enter /opt/g09gh/gaussian/g09/l601.exe)
 Copying SCF densities to generalized density rwf, IOpCl= 0 IROHF=0.

 **********************************************************************

            Population analysis using the SCF density.

 **********************************************************************

 Orbital symmetries:
       Occupied  (A) (A) (A) (A) (A) (A) (A) (A) (A) (A) (A) (A)
                 (A) (A) (A) (A) (A) (A) (A) (A) (A) (A) (A) (A)
                 (A) (A) (A) (A) (A) (A) (A) (A) (A) (A) (A) (A)
                 (A) (A) (A) (A) (A) (A) (A) (A) (A) (A) (A) (A)
                 (A) (A) (A) (A) (A) (A) (A) (A) (A) (A) (A) (A)
                 (A) (A) (A) (A) (A) (A) (A) (A) (A) (A) (A) (A)
                 (A) (A) (A) (A) (A) (A) (A) (A) (A) (A) (A) (A)
                 (A) (A) (A) (A) (A) (A) (A) (A) (A) (A) (A) (A)
                 (A) (A) (A) (A) (A) (A) (A) (A) (A) (A) (A) (A)
                 (A) (A) (A) (A) (A) (A) (A) (A) (A) (A) (A) (A)
                 (A) (A) (A) (A) (A) (A) (A) (A) (A) (A) (A)
       Virtual   (A) (A) (A) (A) (A) (A) (A) (A) (A) (A) (A) (A)
                 (A) (A) (A) (A) (A) (A) (A) (A) (A) (A) (A) (A)
                 (A) (A) (A) (A) (A) (A) (A) (A) (A) (A) (A) (A)
                 (A) (A) (A) (A) (A) (A) (A) (A) (A) (A) (A) (A)
                 (A) (A) (A) (A) (A) (A) (A) (A) (A) (A) (A) (A)
                 (A) (A) (A) (A) (A) (A) (A) (A) (A) (A) (A) (A)
                 (A) (A) (A) (A) (A) (A) (A) (A) (A) (A) (A) (A)
                 (A) (A) (A) (A) (A) (A) (A) (A) (A) (A) (A) (A)
                 (A) (A) (A) (A) (A) (A) (A) (A) (A) (A) (A) (A)
                 (A) (A) (A) (A) (A) (A) (A) (A) (A) (A) (A) (A)
                 (A) (A) (A) (A) (A) (A) (A) (A) (A) (A) (A) (A)
                 (A) (A) (A) (A) (A) (A) (A) (A) (A) (A) (A) (A)
                 (A) (A) (A) (A) (A) (A) (A) (A) (A) (A) (A) (A)
                 (A) (A) (A) (A) (A) (A) (A) (A) (A) (A) (A) (A)
                 (A) (A) (A) (A) (A) (A) (A) (A) (A) (A) (A) (A)
                 (A) (A) (A) (A) (A) (A) (A) (A) (A) (A) (A) (A)
                 (A) (A) (A) (A) (A) (A) (A) (A) (A) (A) (A) (A)
                 (A) (A) (A) (A) (A) (A) (A) (A) (A) (A) (A) (A)
                 (A) (A) (A) (A) (A) (A) (A) (A) (A) (A) (A) (A)
                 (A) (A) (A) (A) (A) (A) (A) (A) (A) (A) (A) (A)
                 (A) (A) (A) (A) (A) (A) (A) (A) (A) (A) (A) (A)
                 (A) (A) (A) (A) (A) (A) (A) (A) (A) (A) (A) (A)
                 (A) (A) (A) (A) (A) (A) (A) (A) (A) (A) (A) (A)
                 (A) (A) (A) (A) (A) (A) (A) (A) (A) (A) (A) (A)
                 (A) (A) (A) (A) (A) (A) (A) (A) (A) (A) (A) (A)
                 (A) (A) (A) (A) (A) (A) (A) (A) (A) (A) (A) (A)
                 (A) (A) (A) (A) (A) (A) (A) (A) (A) (A) (A) (A)
                 (A) (A) (A) (A) (A) (A) (A) (A) (A) (A) (A) (A)
                 (A) (A) (A) (A) (A) (A) (A) (A) (A) (A) (A) (A)
                 (A) (A) (A) (A) (A) (A) (A) (A) (A) (A) (A) (A)
                 (A) (A) (A) (A) (A) (A) (A) (A) (A) (A) (A) (A)
                 (A) (A) (A) (A) (A) (A) (A) (A) (A) (A) (A) (A)
                 (A) (A) (A) (A) (A) (A) (A) (A) (A) (A) (A) (A)
                 (A) (A) (A) (A) (A) (A) (A) (A) (A) (A) (A) (A)
                 (A) (A) (A) (A) (A) (A) (A) (A) (A) (A) (A) (A)
                 (A) (A) (A) (A) (A) (A) (A) (A) (A) (A) (A) (A)
                 (A) (A) (A) (A) (A) (A) (A) (A) (A) (A) (A) (A)
                 (A) (A) (A) (A) (A) (A) (A) (A) (A) (A) (A) (A)
                 (A) (A) (A) (A) (A) (A) (A) (A) (A) (A) (A) (A)
                 (A) (A) (A) (A) (A) (A) (A) (A) (A) (A) (A) (A)
                 (A) (A) (A) (A) (A) (A)
 The electronic state is 1-A.
 Alpha  occ. eigenvalues --  -19.23482 -14.49535 -14.48908 -14.46673 -14.46385
 Alpha  occ. eigenvalues --  -14.46268 -14.46202 -14.45853 -10.42150 -10.40568
 Alpha  occ. eigenvalues --  -10.39141 -10.38722 -10.38298 -10.36511 -10.36487
 Alpha  occ. eigenvalues --  -10.35811 -10.35469 -10.35277 -10.35197 -10.35015
 Alpha  occ. eigenvalues --  -10.34371 -10.34237 -10.33803 -10.32928 -10.32315
 Alpha  occ. eigenvalues --  -10.32281 -10.32061 -10.31728 -10.31428 -10.31071
 Alpha  occ. eigenvalues --  -10.30881 -10.30806 -10.30763 -10.30358 -10.30221
 Alpha  occ. eigenvalues --  -10.29703 -10.29191  -1.13533  -1.11597  -1.05650
 Alpha  occ. eigenvalues --   -1.04017  -1.03751  -1.03081  -1.00197  -1.00160
 Alpha  occ. eigenvalues --   -0.95964  -0.94551  -0.92513  -0.89426  -0.88050
 Alpha  occ. eigenvalues --   -0.87168  -0.86415  -0.84698  -0.84210  -0.83880
 Alpha  occ. eigenvalues --   -0.82054  -0.79672  -0.78107  -0.77952  -0.76031
 Alpha  occ. eigenvalues --   -0.73608  -0.73448  -0.72512  -0.71833  -0.70273
 Alpha  occ. eigenvalues --   -0.70247  -0.69666  -0.68172  -0.66301  -0.64704
 Alpha  occ. eigenvalues --   -0.63295  -0.62311  -0.61620  -0.60645  -0.59731
 Alpha  occ. eigenvalues --   -0.58622  -0.58464  -0.57090  -0.56514  -0.56141
 Alpha  occ. eigenvalues --   -0.55899  -0.55765  -0.54768  -0.54349  -0.53916
 Alpha  occ. eigenvalues --   -0.53717  -0.53295  -0.52908  -0.52196  -0.51898
 Alpha  occ. eigenvalues --   -0.51483  -0.51373  -0.51200  -0.50783  -0.50326
 Alpha  occ. eigenvalues --   -0.50192  -0.50012  -0.49881  -0.49390  -0.48193
 Alpha  occ. eigenvalues --   -0.47471  -0.47293  -0.46489  -0.46149  -0.45660
 Alpha  occ. eigenvalues --   -0.45015  -0.44860  -0.44503  -0.43908  -0.43571
 Alpha  occ. eigenvalues --   -0.43121  -0.42967  -0.41959  -0.41490  -0.41187
 Alpha  occ. eigenvalues --   -0.40147  -0.38281  -0.38057  -0.37358  -0.35725
 Alpha  occ. eigenvalues --   -0.35550  -0.35180  -0.33864  -0.33683  -0.33329
 Alpha  occ. eigenvalues --   -0.32945  -0.32007  -0.31869  -0.29443  -0.27507
 Alpha  occ. eigenvalues --   -0.26692
 Alpha virt. eigenvalues --   -0.00685   0.02699   0.03107   0.04501   0.06194
 Alpha virt. eigenvalues --    0.06827   0.07280   0.07622   0.09583   0.09900
 Alpha virt. eigenvalues --    0.10237   0.11577   0.12953   0.13701   0.14251
 Alpha virt. eigenvalues --    0.14848   0.15989   0.17105   0.18188   0.19020
 Alpha virt. eigenvalues --    0.19574   0.19693   0.20016   0.21002   0.21722
 Alpha virt. eigenvalues --    0.22210   0.22476   0.22808   0.23064   0.23591
 Alpha virt. eigenvalues --    0.24024   0.24353   0.24828   0.25151   0.25559
 Alpha virt. eigenvalues --    0.25719   0.26324   0.26418   0.26698   0.27097
 Alpha virt. eigenvalues --    0.27394   0.27866   0.28002   0.28383   0.28573
 Alpha virt. eigenvalues --    0.28930   0.29396   0.29756   0.30500   0.30998
 Alpha virt. eigenvalues --    0.31147   0.31682   0.31954   0.32602   0.33430
 Alpha virt. eigenvalues --    0.34059   0.34728   0.35235   0.36005   0.36617
 Alpha virt. eigenvalues --    0.37456   0.37743   0.38439   0.39218   0.39520
 Alpha virt. eigenvalues --    0.40010   0.40633   0.41192   0.41346   0.41945
 Alpha virt. eigenvalues --    0.43436   0.44959   0.45305   0.46200   0.46977
 Alpha virt. eigenvalues --    0.47906   0.49342   0.51731   0.52637   0.53397
 Alpha virt. eigenvalues --    0.55284   0.55979   0.57124   0.57410   0.58301
 Alpha virt. eigenvalues --    0.58702   0.59232   0.59489   0.59919   0.60086
 Alpha virt. eigenvalues --    0.60673   0.61039   0.61209   0.61940   0.62000
 Alpha virt. eigenvalues --    0.62306   0.62714   0.63202   0.63313   0.63932
 Alpha virt. eigenvalues --    0.64452   0.64688   0.64871   0.65294   0.65593
 Alpha virt. eigenvalues --    0.65613   0.66032   0.66436   0.66600   0.66622
 Alpha virt. eigenvalues --    0.66864   0.67222   0.67520   0.67968   0.68307
 Alpha virt. eigenvalues --    0.68881   0.69321   0.69662   0.70276   0.70505
 Alpha virt. eigenvalues --    0.70564   0.70697   0.70973   0.71107   0.71525
 Alpha virt. eigenvalues --    0.71793   0.72263   0.72793   0.73082   0.73846
 Alpha virt. eigenvalues --    0.74508   0.74774   0.75589   0.75658   0.75986
 Alpha virt. eigenvalues --    0.76424   0.76979   0.77219   0.77886   0.78747
 Alpha virt. eigenvalues --    0.80218   0.80619   0.81120   0.81681   0.81873
 Alpha virt. eigenvalues --    0.82143   0.82835   0.83338   0.83655   0.84271
 Alpha virt. eigenvalues --    0.84790   0.85681   0.85972   0.86466   0.86801
 Alpha virt. eigenvalues --    0.87797   0.88392   0.88845   0.89328   0.89598
 Alpha virt. eigenvalues --    0.89851   0.90597   0.91643   0.91782   0.92212
 Alpha virt. eigenvalues --    0.92607   0.92721   0.93126   0.93485   0.93737
 Alpha virt. eigenvalues --    0.93963   0.94660   0.94931   0.95414   0.96082
 Alpha virt. eigenvalues --    0.96872   0.97008   0.97064   0.97902   0.98136
 Alpha virt. eigenvalues --    0.98666   0.99099   0.99612   0.99779   1.00669
 Alpha virt. eigenvalues --    1.01016   1.01657   1.01810   1.02208   1.02624
 Alpha virt. eigenvalues --    1.03521   1.04652   1.04910   1.05901   1.06121
 Alpha virt. eigenvalues --    1.06645   1.07160   1.07443   1.07787   1.08344
[...]
                 (A) (A) (A) (A) (A) (A) (A) (A) (A) (A) (A) (A)
                 (A) (A) (A) (A) (A) (A) (A) (A) (A) (A) (A) (A)
                 (A) (A) (A) (A) (A) (A) (A) (A) (A) (A) (A) (A)
                 (A) (A) (A) (A) (A) (A) (A) (A) (A) (A) (A) (A)
                 (A) (A) (A) (A) (A) (A) (A) (A) (A) (A) (A) (A)
                 (A) (A) (A) (A) (A) (A) (A) (A) (A) (A) (A) (A)
                 (A) (A) (A) (A) (A) (A) (A) (A) (A) (A) (A) (A)
                 (A) (A) (A) (A) (A) (A) (A) (A) (A) (A) (A) (A)
                 (A) (A) (A) (A) (A) (A) (A) (A) (A) (A) (A) (A)
                 (A) (A) (A) (A) (A) (A) (A) (A) (A) (A) (A) (A)
                 (A) (A) (A) (A) (A) (A) (A) (A) (A) (A) (A) (A)
                 (A) (A) (A) (A) (A) (A) (A) (A) (A) (A) (A) (A)
                 (A) (A) (A) (A) (A) (A) (A) (A) (A) (A) (A) (A)
                 (A) (A) (A) (A) (A) (A) (A) (A) (A) (A) (A) (A)
                 (A) (A) (A) (A) (A) (A) (A) (A) (A) (A) (A) (A)
                 (A) (A) (A) (A) (A) (A) (A) (A) (A) (A) (A) (A)
                 (A) (A) (A) (A) (A) (A) (A) (A) (A) (A) (A) (A)
                 (A) (A) (A) (A) (A) (A) (A) (A) (A) (A) (A) (A)
                 (A) (A) (A) (A) (A) (A) (A) (A) (A) (A) (A) (A)
                 (A) (A) (A) (A) (A) (A) (A) (A) (A) (A) (A) (A)
                 (A) (A) (A) (A) (A) (A) (A) (A) (A) (A) (A) (A)
                 (A) (A) (A) (A) (A) (A) (A) (A) (A) (A) (A) (A)
                 (A) (A) (A) (A) (A) (A) (A) (A) (A) (A) (A) (A)
                 (A) (A) (A) (A) (A) (A) (A) (A) (A) (A) (A) (A)
                 (A) (A) (A) (A) (A) (A) (A) (A) (A) (A) (A) (A)
                 (A) (A) (A) (A) (A) (A) (A) (A) (A) (A) (A) (A)
                 (A) (A) (A) (A) (A) (A) (A) (A) (A) (A) (A) (A)
                 (A) (A) (A) (A) (A) (A) (A) (A) (A) (A) (A) (A)
                 (A) (A) (A) (A) (A) (A) (A) (A) (A) (A) (A) (A)
                 (A) (A) (A) (A) (A) (A) (A) (A) (A) (A) (A) (A)
                 (A) (A) (A) (A) (A) (A)
 The electronic state is 1-A.
 Alpha  occ. eigenvalues --  -19.23157 -14.49129 -14.48280 -14.46604 -14.45982
 Alpha  occ. eigenvalues --  -14.45623 -14.43981 -14.43583 -10.41641 -10.39921
 Alpha  occ. eigenvalues --  -10.37509 -10.36239 -10.35180 -10.34893 -10.34526
 Alpha  occ. eigenvalues --  -10.34036 -10.33978 -10.33489 -10.32740 -10.32324
 Alpha  occ. eigenvalues --  -10.31759 -10.31458 -10.31351 -10.31233 -10.31031
 Alpha  occ. eigenvalues --  -10.30985 -10.30671 -10.30558 -10.30280 -10.30275
 Alpha  occ. eigenvalues --  -10.29955 -10.29786 -10.29727 -10.29440 -10.29335
 Alpha  occ. eigenvalues --  -10.28823 -10.28225  -1.13295  -1.12192  -1.06194
 Alpha  occ. eigenvalues --   -1.04438  -1.04368  -1.03418  -1.00607  -0.99923
 Alpha  occ. eigenvalues --   -0.95688  -0.94558  -0.92983  -0.89650  -0.87970
 Alpha  occ. eigenvalues --   -0.87275  -0.86222  -0.85511  -0.84125  -0.83659
 Alpha  occ. eigenvalues --   -0.81594  -0.79581  -0.78169  -0.77971  -0.76216
 Alpha  occ. eigenvalues --   -0.73737  -0.73442  -0.72822  -0.72523  -0.71148
 Alpha  occ. eigenvalues --   -0.69932  -0.69368  -0.67930  -0.66241  -0.65045
 Alpha  occ. eigenvalues --   -0.63795  -0.63203  -0.62023  -0.61690  -0.59965
 Alpha  occ. eigenvalues --   -0.58713  -0.58436  -0.57519  -0.56510  -0.55969
 Alpha  occ. eigenvalues --   -0.55707  -0.55216  -0.55115  -0.54966  -0.54203
 Alpha  occ. eigenvalues --   -0.53877  -0.53511  -0.53007  -0.52280  -0.52068
 Alpha  occ. eigenvalues --   -0.51680  -0.51422  -0.51133  -0.50850  -0.50614
 Alpha  occ. eigenvalues --   -0.50342  -0.49977  -0.49641  -0.49465  -0.48072
 Alpha  occ. eigenvalues --   -0.47668  -0.47140  -0.46761  -0.46490  -0.46050
 Alpha  occ. eigenvalues --   -0.45859  -0.45513  -0.44378  -0.43822  -0.43295
 Alpha  occ. eigenvalues --   -0.43169  -0.42749  -0.41927  -0.41848  -0.41525
 Alpha  occ. eigenvalues --   -0.41184  -0.40712  -0.39881  -0.38087  -0.37469
 Alpha  occ. eigenvalues --   -0.35661  -0.35149  -0.33892  -0.33274  -0.33181
 Alpha  occ. eigenvalues --   -0.32638  -0.31970  -0.31135  -0.29039  -0.27003
 Alpha  occ. eigenvalues --   -0.25680
 Alpha virt. eigenvalues --   -0.00249   0.03014   0.03660   0.04707   0.07083
 Alpha virt. eigenvalues --    0.07447   0.08503   0.10470   0.14824   0.15097
 Alpha virt. eigenvalues --    0.15584   0.16319   0.17435   0.17464   0.18662
 Alpha virt. eigenvalues --    0.19708   0.19898   0.20356   0.20439   0.21663
 Alpha virt. eigenvalues --    0.21930   0.22129   0.22498   0.22781   0.23333
 Alpha virt. eigenvalues --    0.23497   0.23612   0.24333   0.24483   0.24680
 Alpha virt. eigenvalues --    0.24962   0.25308   0.25660   0.26198   0.26472
 Alpha virt. eigenvalues --    0.27024   0.27287   0.27540   0.28171   0.28458
 Alpha virt. eigenvalues --    0.28692   0.29131   0.29619   0.29784   0.30261
 Alpha virt. eigenvalues --    0.31104   0.31441   0.31883   0.32091   0.32322
 Alpha virt. eigenvalues --    0.32856   0.33184   0.33375   0.34026   0.34172
 Alpha virt. eigenvalues --    0.34615   0.34945   0.36023   0.36368   0.36886
 Alpha virt. eigenvalues --    0.38504   0.38695   0.38838   0.39584   0.40388
 Alpha virt. eigenvalues --    0.41334   0.41575   0.42174   0.43036   0.43396
 Alpha virt. eigenvalues --    0.43686   0.45204   0.46686   0.47314   0.47767
 Alpha virt. eigenvalues --    0.48609   0.50201   0.52641   0.53101   0.54513
 Alpha virt. eigenvalues --    0.56041   0.56613   0.57210   0.58435   0.58892
 Alpha virt. eigenvalues --    0.59358   0.59682   0.60158   0.60284   0.60859
 Alpha virt. eigenvalues --    0.61426   0.62259   0.62462   0.62931   0.63104
 Alpha virt. eigenvalues --    0.63397   0.63506   0.64223   0.64271   0.64864
 Alpha virt. eigenvalues --    0.64999   0.65366   0.65625   0.65714   0.65966
 Alpha virt. eigenvalues --    0.66402   0.66576   0.66737   0.67113   0.67301
 Alpha virt. eigenvalues --    0.67788   0.68060   0.68428   0.68837   0.69252
 Alpha virt. eigenvalues --    0.69691   0.70049   0.70444   0.70850   0.71253
 Alpha virt. eigenvalues --    0.71338   0.71684   0.71888   0.72858   0.73025
 Alpha virt. eigenvalues --    0.73183   0.73344   0.73536   0.74612   0.75065
 Alpha virt. eigenvalues --    0.75174   0.75766   0.76067   0.76417   0.77523
 Alpha virt. eigenvalues --    0.77763   0.78565   0.79744   0.80592   0.80885
 Alpha virt. eigenvalues --    0.81389   0.81793   0.82346   0.83286   0.84316
 Alpha virt. eigenvalues --    0.84742   0.85759   0.86044   0.87054   0.87756
 Alpha virt. eigenvalues --    0.88051   0.88224   0.88800   0.89561   0.89884
 Alpha virt. eigenvalues --    0.90631   0.90764   0.91409   0.91775   0.92534
 Alpha virt. eigenvalues --    0.92897   0.93029   0.93217   0.93702   0.94066
 Alpha virt. eigenvalues --    0.94222   0.94426   0.94659   0.94719   0.95132
 Alpha virt. eigenvalues --    0.95506   0.95951   0.96646   0.96990   0.97321
 Alpha virt. eigenvalues --    0.97905   0.98317   0.98981   0.99210   0.99530
 Alpha virt. eigenvalues --    1.00374   1.00692   1.01349   1.01453   1.02048
 Alpha virt. eigenvalues --    1.02281   1.02956   1.03689   1.04071   1.04756
 Alpha virt. eigenvalues --    1.05477   1.05872   1.06111   1.06659   1.07489
 Alpha virt. eigenvalues --    1.07771   1.08139   1.08372   1.08644   1.09032
 Alpha virt. eigenvalues --    1.09245   1.09739   1.10746   1.11462   1.11884
 Alpha virt. eigenvalues --    1.12166   1.12518   1.13969   1.14422   1.14593
 Alpha virt. eigenvalues --    1.15818   1.16592   1.17203   1.17650   1.19073
 Alpha virt. eigenvalues --    1.20414   1.21189   1.22309   1.22931   1.23532
 Alpha virt. eigenvalues --    1.24011   1.25684   1.26093   1.26822   1.28045
 Alpha virt. eigenvalues --    1.28869   1.29336   1.29844   1.30340   1.30711
 Alpha virt. eigenvalues --    1.31160   1.32891   1.33571   1.34024   1.34537
 Alpha virt. eigenvalues --    1.35678   1.36910   1.37376   1.37887   1.38381
 Alpha virt. eigenvalues --    1.39544   1.40004   1.43581   1.44052   1.45066
 Alpha virt. eigenvalues --    1.46445   1.46712   1.47542   1.48222   1.48819
 Alpha virt. eigenvalues --    1.49029   1.49193   1.49534   1.51247   1.52016
 Alpha virt. eigenvalues --    1.52588   1.52809   1.53316   1.54094   1.54230
 Alpha virt. eigenvalues --    1.54755   1.55139   1.55659   1.56278   1.56988
 Alpha virt. eigenvalues --    1.57126   1.57652   1.58040   1.58174   1.59256
 Alpha virt. eigenvalues --    1.59625   1.60132   1.61411   1.62025   1.62635
 Alpha virt. eigenvalues --    1.64158   1.65184   1.65469   1.66513   1.66586
 Alpha virt. eigenvalues --    1.68153   1.69986   1.72144   1.75500   1.76306
 Alpha virt. eigenvalues --    1.78679   1.80577   1.82290   1.83505   1.84957
 Alpha virt. eigenvalues --    1.85098   1.85952   1.86591   1.86812   1.87722
 Alpha virt. eigenvalues --    1.87838   1.88102   1.89358   1.90147   1.90882
 Alpha virt. eigenvalues --    1.91618   1.91980   1.92613   1.92745   1.94065
 Alpha virt. eigenvalues --    1.94398   1.94778   1.95151   1.95669   1.97560
 Alpha virt. eigenvalues --    1.98504   1.99555   1.99597   2.00809   2.00985
 Alpha virt. eigenvalues --    2.01676   2.01769   2.02128   2.02605   2.03237
 Alpha virt. eigenvalues --    2.03874   2.05684   2.06256   2.06304   2.07404
 Alpha virt. eigenvalues --    2.08630   2.08956   2.09631   2.10218   2.12312
 Alpha virt. eigenvalues --    2.12416   2.13034   2.13446   2.14760   2.14964
 Alpha virt. eigenvalues --    2.15562   2.16130   2.16832   2.19586   2.19812
 Alpha virt. eigenvalues --    2.20345   2.20605   2.21280   2.22533   2.22670
 Alpha virt. eigenvalues --    2.22802   2.23116   2.24038   2.24173   2.25038
 Alpha virt. eigenvalues --    2.25464   2.25992   2.26252   2.27006   2.27291
 Alpha virt. eigenvalues --    2.28033   2.29184   2.29472   2.31737   2.32695
 Alpha virt. eigenvalues --    2.33664   2.34115   2.34678   2.35172   2.37012
 Alpha virt. eigenvalues --    2.37679   2.37911   2.38666   2.39186   2.40237
 Alpha virt. eigenvalues --    2.40862   2.41314   2.42100   2.42565   2.43264
 Alpha virt. eigenvalues --    2.43544   2.44069   2.44461   2.45065   2.45531
 Alpha virt. eigenvalues --    2.45902   2.47506   2.48435   2.49528   2.49933
 Alpha virt. eigenvalues --    2.50524   2.51686   2.52223   2.53662   2.56438
 Alpha virt. eigenvalues --    2.58828   2.60029   2.61738   2.61911   2.63906
 Alpha virt. eigenvalues --    2.64830   2.65563   2.65830   2.66147   2.68186
 Alpha virt. eigenvalues --    2.68793   2.70034   2.70635   2.71899   2.72309
 Alpha virt. eigenvalues --    2.74029   2.74479   2.75327   2.76007   2.76152
 Alpha virt. eigenvalues --    2.76507   2.77250   2.78928   2.81712   2.82093
 Alpha virt. eigenvalues --    2.82836   2.83194   2.84493   2.85072   2.85357
 Alpha virt. eigenvalues --    2.85964   2.86586   2.87017   2.87910   2.88429
 Alpha virt. eigenvalues --    2.89407   2.90696   2.92584   2.94189   2.94649
 Alpha virt. eigenvalues --    2.94987   2.96436   2.98994   3.03658   3.04540
 Alpha virt. eigenvalues --    3.05078   3.07148   3.09696   3.10175   3.13411
 Alpha virt. eigenvalues --    3.18926   3.28021   3.29623   3.39178   3.41522
 Alpha virt. eigenvalues --    3.44792   3.54220   3.56491   3.57689   4.13403
 Alpha virt. eigenvalues --    4.15197   4.15770   4.18236   4.18574   4.19139
 Alpha virt. eigenvalues --    4.19507   4.20792   4.22155   4.23002   4.23226
 Alpha virt. eigenvalues --    4.25039   4.26056   4.27501   4.30295   4.31774
 Alpha virt. eigenvalues --    4.32380   4.33939   4.36803   4.39433   4.40309
 Alpha virt. eigenvalues --    4.41888   4.44395   4.44546   4.46435   4.49012
 Alpha virt. eigenvalues --    4.50066   4.54599   4.55495   4.57544   4.61132
 Alpha virt. eigenvalues --    4.62220   4.67483   4.68973   4.79170   4.84464
 Alpha virt. eigenvalues --    4.89567
          Condensed to atoms (all electrons):
 Mulliken atomic charges:
              1
     1  C   -0.198617
     2  C   -0.155447
     3  C    0.033869
     4  C    0.007622
     5  N   -0.435251
     6  C    0.031709
     7  C    0.297135
     8  C   -0.253896
     9  C    0.047957
    10  N   -0.492508
    11  C    0.708970
    12  N   -0.568224
    13  N   -0.795677
    14  C    0.287678
    15  C    0.120508
    16  C   -0.239977
    17  C   -0.190348
    18  C    0.354638
    19  C   -0.264112
    20  N   -0.766749
    21  C    0.597959
    22  C    0.018197
    23  C   -0.211453
    24  C   -0.228186
    25  C    0.114956
    26  C   -0.195470
    27  C   -0.183670
    28  C   -0.219587
    29  N   -0.401009
    30  C   -0.185389
    31  C   -0.187068
    32  N   -0.385143
    33  C   -0.350559
    34  C   -0.186542
    35  C   -0.193018
    36  O   -0.516831
    37  C   -0.607122
    38  H    0.186195
    39  H    0.185503
    40  H    0.201628
    41  H    0.181938
    42  H    0.180056
    43  H    0.188933
    44  H    0.368654
    45  H    0.160520
    46  H    0.216146
    47  H    0.193168
    48  H    0.358671
    49  H    0.186741
    50  H    0.165243
    51  H    0.183168
    52  H    0.196148
    53  H    0.136870
    54  H    0.178412
    55  H    0.158856
    56  H    0.163641
    57  H    0.158649
    58  H    0.160857
    59  H    0.136519
    60  H    0.168240
    61  H    0.168875
    62  H    0.159502
    63  H    0.158733
    64  H    0.162579
    65  H    0.175191
    66  H    0.177513
    67  H    0.183334
    68  H    0.190175
 Sum of Mulliken atomic charges =   0.00000
 Mulliken charges with hydrogens summed into heavy atoms:
              1
     1  C   -0.012422
     2  C    0.030056
     3  C    0.033869
     4  C    0.209250
     5  N   -0.435251
     6  C    0.213647
     7  C    0.297135
     8  C   -0.073840
     9  C    0.236891
    10  N   -0.492508
    11  C    0.708970
    12  N   -0.568224
    13  N   -0.427023
    14  C    0.287678
    15  C    0.120508
    16  C   -0.079457
    17  C    0.025798
    18  C    0.354638
    19  C   -0.070944
    20  N   -0.408078
    21  C    0.597959
    22  C    0.018197
    23  C   -0.024712
    24  C   -0.062943
    25  C    0.114956
    26  C   -0.012302
    27  C    0.012478
    28  C    0.095695
    29  N   -0.401009
    30  C    0.137108
    31  C    0.132438
    32  N   -0.385143
    33  C    0.123074
    34  C    0.131692
    35  C    0.144752
    36  O   -0.516831
    37  C   -0.056101
 Sum of Mulliken charges with hydrogens summed into heavy atoms =   0.00000
 Electronic spatial extent (au):  <R**2>=          27475.3348
 Charge=              0.0000 electrons
 Dipole moment (field-independent basis, Debye):
    X=              0.6173    Y=              6.3876    Z=              1.0064  Tot=              6.4958
 Quadrupole moment (field-independent basis, Debye-Ang):
   XX=           -182.4283   YY=           -204.7106   ZZ=           -218.5691
   XY=              7.6612   XZ=              1.9577   YZ=             -4.8110
 Traceless Quadrupole moment (field-independent basis, Debye-Ang):
   XX=             19.4743   YY=             -2.8080   ZZ=            -16.6664
   XY=              7.6612   XZ=              1.9577   YZ=             -4.8110
 Octapole moment (field-independent basis, Debye-Ang**2):
  XXX=            -25.1436  YYY=            171.3797  ZZZ=             13.9947  XYY=            110.1835
  XXY=            -35.6465  XXZ=             -1.8772  XZZ=            -41.8095  YZZ=              0.7124
  YYZ=              9.5241  XYZ=             10.4172
 Hexadecapole moment (field-independent basis, Debye-Ang**3):
 XXXX=         -26247.8788 YYYY=          -7380.9104 ZZZZ=          -1123.2653 XXXY=             98.4482
 XXXZ=             80.1818 YYYX=            315.3796 YYYZ=            -56.0472 ZZZX=            -61.4531
 ZZZY=             29.8078 XXYY=          -5654.0954 XXZZ=          -4819.5864 YYZZ=          -1599.1411
 XXYZ=            -82.3797 YYXZ=             52.6168 ZZXY=            -28.3735
 N-N= 3.711742171821D+03 E-N=-1.109525412761D+04  KE= 1.567150506151D+03
 No NMR shielding tensors so no spin-rotation constants.
 Leave Link  601 at Wed Mar 11 02:19:31 2020, MaxMem= 2684354560 cpu:       4.6
 (Enter /opt/g09gh/gaussian/g09/l9999.exe)
 1\1\GINC-G2-NODE38\FOpt\RwB97XD\6-31G(d)\C29H31N7O1\BDW2292\11-Mar-202
 0\0\\#P opt=(,maxcycle=400) wB97XD/6-31G* MaxDisk=100GB\\MOLECULE0 Rot
 atable Bond Optimization on g2-node38.bme.utexas.edu\\0,1\C,0.73558657
 96,4.7001507898,-1.8171014567\C,2.0323074572,4.4656137713,-1.377085870
 1\C,2.4830986366,3.1509960499,-1.26823232\C,1.5898440539,2.1323014421,
 -1.6258462783\N,0.3412472379,2.3412819335,-2.0389185767\C,-0.070675716
 5,3.6096564517,-2.1255535308\C,3.8302804357,2.794469825,-0.7565921323\
 C,4.9189326054,3.6622561925,-0.7565509642\C,6.0983653477,3.1637418421,
 -0.2049645634\N,6.2247802372,1.9376284684,0.2844109084\C,5.1167078383,
 1.1721724491,0.2135243288\N,3.9365156716,1.5551863666,-0.2714767303\N,
 5.2649742274,-0.0985211058,0.6969907376\C,4.3736514716,-1.1882866133,0
 .6568062637\C,4.9063525804,-2.4860964432,0.7876252867\C,4.0200591656,-
 3.5569348403,0.7195493922\C,2.6512265712,-3.4043542435,0.5144176597\C,
 2.1457219811,-2.1118818194,0.3959625612\C,3.0030268652,-1.0150632634,0
 .4963068287\N,0.7954140868,-1.8025450024,0.1538548392\C,-0.240185371,-
 2.639582847,-0.1755199012\C,-1.4995731931,-1.926232704,-0.5794267261\C
 ,-1.5080352571,-0.6538872876,-1.1550750867\C,-2.7127908692,-0.04933249
 28,-1.4977226836\C,-3.9255495868,-0.7004843453,-1.2857890159\C,-3.9116
 831033,-1.9827255457,-0.7277279621\C,-2.7136615192,-2.5909251398,-0.38
 52130147\C,-5.2337923282,-0.0469737222,-1.6770349046\N,-6.2724256795,-
 0.2584083711,-0.6776206706\C,-7.6142606954,0.091496626,-1.1422795094\C
 ,-7.8622397512,1.6080069723,-1.1725704852\N,-7.587330138,2.2602229132,
 0.1064429754\C,-8.625980877,2.0514931462,1.0997909873\C,-6.2490201708,
 1.904564231,0.5770141944\C,-5.9995693475,0.3897832061,0.6083263058\O,-
 0.1702942304,-3.8574584661,-0.1346359679\C,6.3842617008,-2.7133112574,
 0.9799537819\H,0.3479812368,5.7094525155,-1.9044984256\H,2.673007218,5
 .296791547,-1.0969627354\H,1.9193459401,1.0980175911,-1.5739199098\H,-
 1.096298132,3.7583973485,-2.4550333371\H,4.8726208581,4.6629892971,-1.
 1675105005\H,6.9898994319,3.7861572304,-0.1606264447\H,6.2100936965,-0
 .2882175966,0.9950273613\H,4.4190858727,-4.5635580396,0.8157203001\H,1
 .9923919325,-4.2577868986,0.4405820057\H,2.6066487668,-0.0139005657,0.
 4134912682\H,0.5808106848,-0.8169740916,0.16947696\H,-0.5906445072,-0.
 1149266483,-1.3779893227\H,-2.6951793101,0.9437271386,-1.9398912257\H,
 -4.8579640762,-2.4848792122,-0.5511502511\H,-2.6957443405,-3.589564210
 3,0.0390986915\H,-5.0409507851,1.0154261096,-1.9106839372\H,-5.5909139
 691,-0.5020476984,-2.6103689636\H,-7.7711896855,-0.3428515521,-2.13640
 34854\H,-8.3342545645,-0.3869855344,-0.4649908618\H,-8.8976328368,1.82
 04274777,-1.4631751274\H,-7.2144024544,2.0703726749,-1.9300472209\H,-8
 .7746724473,1.0049121337,1.419182757\H,-9.579358724,2.4161615484,0.702
 4391132\H,-8.3902446593,2.6405501109,1.9925762122\H,-6.0975561911,2.33
 55546389,1.5733621194\H,-5.5213431377,2.3839642186,-0.0920052353\H,-6.
 6498266195,-0.0790851229,1.3582328349\H,-4.9670857649,0.1759437471,0.9
 021131414\H,6.7551886716,-2.2723521948,1.9153709366\H,6.9746495496,-2.
 2910807623,0.1566717833\H,6.604347429,-3.7829513667,1.0232717991\\Vers
 ion=EM64L-G09RevA.02\State=1-A\HF=-1581.7642336\RMSD=6.477e-09\RMSF=9.
 345e-06\Dipole=0.3434189,2.5309991,-0.08609\Quadrupole=14.8320423,-4.2
 668192,-10.5652231,5.3976299,1.2930013,-5.040257\PG=C01 [X(C29H31N7O1)
 ]\\@


 ALL MY ATTEMPTS TO ADAPT THE THEORETICAL FOUNDATIONS OF PHYSICS
 TO THESE NEW NOTIONS FAILED COMPLETELY. IT WAS AS IF THE GROUND HAD
 BEEN PULLED OUT FROM UNDER ONE WITH NO FIRM FOUNDATION TO BE SEEN ANYWHERE,
 UPON WHICH ONE COULD HAVE BUILT.  -- A.EINSTEIN
 Job cpu time:  0 days 13 hours 23 minutes 27.0 seconds.
 File lengths (MBytes):  RWF=    244 Int=      0 D2E=      0 Chk=     25 Scr=      1
 Normal termination of Gaussian 09 at Wed Mar 11 02:19:32 2020.
