68
MOLECULE0-opt-22-21-20-18-056.log	Energy: -992569.9519445
C          7.44801        1.88217        0.72191
C          6.88715        0.63158        0.94194
C          5.74885        0.26407        0.22443
C          5.23114        1.19201       -0.68697
N          5.76018        2.39320       -0.91026
C          6.84889        2.72316       -0.21083
C          5.08885       -1.05075        0.40227
C          5.77598       -2.18251        0.83582
C          5.02716       -3.34908        0.95971
N          3.73372       -3.42041        0.67968
C          3.16949       -2.27260        0.25134
N          3.78412       -1.09820        0.10853
N          1.84050       -2.39311       -0.04945
C          0.90802       -1.46643       -0.54174
C         -0.31711       -1.97852       -1.01646
C         -1.25584       -1.08420       -1.52124
C         -1.02233        0.28354       -1.55313
C          0.15924        0.78307       -1.01372
C          1.12808       -0.08648       -0.51904
N          0.39108        2.18155       -0.92925
C         -0.51545        3.15818       -0.58199
C         -1.74539        2.69825        0.14452
C         -1.68400        1.77691        1.19178
C         -2.85177        1.32096        1.78466
C         -4.10199        1.74230        1.32533
C         -4.14935        2.71527        0.32595
C         -2.98169        3.20179       -0.25280
C         -5.37637        1.10471        1.85416
N         -5.80505       -0.14050        1.23493
C         -5.07990       -1.36134        1.56599
C         -3.97240       -1.73048        0.56326
N         -4.43707       -1.74356       -0.82344
C         -5.25941       -2.89355       -1.15964
C         -5.05900       -0.45784       -1.13909
C         -6.19259       -0.08536       -0.16874
O         -0.31455        4.33210       -0.84174
C         -0.62544       -3.45425       -0.98290
H          8.32772        2.20585        1.26789
H          7.31577       -0.03906        1.68122
H          4.34762        0.93290       -1.26473
H          7.25984        3.71135       -0.40474
H          6.83875       -2.17438        1.04272
H          5.49351       -4.27274        1.29662
H          1.51940       -3.34319        0.06149
H         -2.21301       -1.46714       -1.86713
H         -1.76750        0.95735       -1.96060
H          2.04261        0.30716       -0.09846
H          1.25199        2.54737       -1.31554
H         -0.72269        1.39926        1.52644
H         -2.79505        0.59777        2.59506
H         -5.11317        3.08624       -0.01576
H         -3.01895        3.95442       -1.03426
H         -5.26534        0.91043        2.92777
H         -6.20063        1.82168        1.74849
H         -4.65718       -1.26114        2.57190
H         -5.80882       -2.18471        1.61113
H         -3.55899       -2.71743        0.80549
H         -3.15233       -1.00649        0.62423
H         -6.21443       -2.96918       -0.61244
H         -4.69108       -3.80910       -0.96159
H         -5.49056       -2.86586       -2.23003
H         -5.43968       -0.49262       -2.16713
H         -4.27402        0.30690       -1.09838
H         -7.03502       -0.77722       -0.31888
H         -6.56720        0.91899       -0.39474
H         -0.61890       -3.85518        0.04012
H          0.08871       -4.04137       -1.57464
H         -1.62237       -3.63799       -1.39158
