68
MOLECULE0-opt-23-22-21-36-327.log	Energy: -992567.8047577
C          0.19453        4.25605       -0.75716
C         -1.17472        4.06973       -0.61626
C         -1.65119        2.83710       -0.17097
C         -0.70307        1.84220        0.10709
N          0.61190        2.00965       -0.01939
C          1.04278        3.19863       -0.44660
C         -3.09834        2.54169       -0.01358
C         -4.08924        3.52135        0.04641
C         -5.39844        3.06509        0.17300
N         -5.73167        1.78167        0.23827
C         -4.69722        0.92077        0.18381
N         -3.41209        1.24754        0.06808
N         -5.04589       -0.40258        0.26437
C         -4.21176       -1.53529        0.30413
C         -4.67818       -2.68776        0.96355
C         -3.82416       -3.78627        1.02664
C         -2.54508       -3.76202        0.48344
C         -2.10732       -2.61492       -0.17589
C         -2.95509       -1.51786       -0.29678
N         -0.76977       -2.56283       -0.63462
C         -0.23930       -1.64842       -1.51216
C          1.26015       -1.56877       -1.54450
C          2.12824       -2.56393       -1.08884
C          3.49942       -2.33769       -1.06203
C          4.03372       -1.11734       -1.47973
C          3.16441       -0.15772       -1.99994
C          1.79591       -0.37491       -2.02949
C          5.51136       -0.80672       -1.30947
N          5.91657       -0.17741       -0.06330
C          5.91238       -1.00034        1.14044
C          4.61915       -0.89226        1.96646
N          4.24893        0.48652        2.26845
C          5.06815        1.10770        3.29264
C          4.15914        1.25596        1.03011
C          5.44508        1.18148        0.18682
O         -0.92127       -0.89624       -2.18942
C         -6.04638       -2.72984        1.59400
H          0.59779        5.19930       -1.11026
H         -1.86070        4.87093       -0.87511
H         -1.03970        0.86832        0.44882
H          2.12111        3.30584       -0.54851
H         -3.87278        4.58161        0.01157
H         -6.22332        3.77305        0.22572
H         -6.03224       -0.53681        0.42827
H         -4.16537       -4.68521        1.53339
H         -1.89517       -4.62842        0.57208
H         -2.62290       -0.64560       -0.83048
H         -0.11684       -3.09632       -0.08212
H          1.75431       -3.53395       -0.76924
H          4.16502       -3.11614       -0.69594
H          3.56489        0.78666       -2.36149
H          1.11395        0.38120       -2.40011
H          6.08986       -1.73330       -1.40955
H          5.82993       -0.14611       -2.12590
H          6.09671       -2.04330        0.85783
H          6.76240       -0.68893        1.76624
H          4.73007       -1.44285        2.90881
H          3.78734       -1.34364        1.41303
H          6.13667        1.23310        3.04205
H          5.01182        0.50863        4.20839
H          4.66242        2.10018        3.51745
H          3.94145        2.30155        1.28217
H          3.30200        0.87586        0.46253
H          6.24764        1.72421        0.70877
H          5.29952        1.68644       -0.77504
H         -6.84744       -2.62501        0.84954
H         -6.17591       -1.93051        2.33417
H         -6.20765       -3.68289        2.10439
