 Entering Gaussian System, Link 0=g09
 Input=MOLECULE0-opt-23-22-21-36-275.com
 Output=MOLECULE0-opt-23-22-21-36-275.log
 Initial command:
 /opt/g09gh/gaussian/g09/l1.exe /scratch/bdw2292/Gau-MOLECULE0/Gau-107165.inp -scrdir=/scratch/bdw2292/Gau-MOLECULE0/
 Entering Link 1 = /opt/g09gh/gaussian/g09/l1.exe PID=    107166.
  
 Copyright (c) 1988,1990,1992,1993,1995,1998,2003,2009, Gaussian, Inc.
                  All Rights Reserved.
  
 This is part of the Gaussian(R) 09 program.  It is based on
 the Gaussian(R) 03 system (copyright 2003, Gaussian, Inc.),
 the Gaussian(R) 98 system (copyright 1998, Gaussian, Inc.),
 the Gaussian(R) 94 system (copyright 1995, Gaussian, Inc.),
 the Gaussian 92(TM) system (copyright 1992, Gaussian, Inc.),
 the Gaussian 90(TM) system (copyright 1990, Gaussian, Inc.),
 the Gaussian 88(TM) system (copyright 1988, Gaussian, Inc.),
 the Gaussian 86(TM) system (copyright 1986, Carnegie Mellon
 University), and the Gaussian 82(TM) system (copyright 1983,
 Carnegie Mellon University). Gaussian is a federally registered
 trademark of Gaussian, Inc.
  
 This software contains proprietary and confidential information,
 including trade secrets, belonging to Gaussian, Inc.
  
 This software is provided under written license and may be
 used, copied, transmitted, or stored only in accord with that
 written license.
  
 The following legend is applicable only to US Government
 contracts under FAR:
  
                    RESTRICTED RIGHTS LEGEND
  
 Use, reproduction and disclosure by the US Government is
 subject to restrictions as set forth in subparagraphs (a)
 and (c) of the Commercial Computer Software - Restricted
 Rights clause in FAR 52.227-19.
  
 Gaussian, Inc.
 340 Quinnipiac St., Bldg. 40, Wallingford CT 06492
  
  
 ---------------------------------------------------------------
 Warning -- This program may not be used in any manner that
 competes with the business of Gaussian, Inc. or will provide
 assistance to any competitor of Gaussian, Inc.  The licensee
 of this program is prohibited from giving any competitor of
 Gaussian, Inc. access to this program.  By using this program,
 the user acknowledges that Gaussian, Inc. is engaged in the
 business of creating and licensing software in the field of
 computational chemistry and represents and warrants to the
 licensee that it is not a competitor of Gaussian, Inc. and that
 it will not use this program in any manner prohibited above.
 ---------------------------------------------------------------
  

 Cite this work as:
 Gaussian 09, Revision A.02,
 M. J. Frisch, G. W. Trucks, H. B. Schlegel, G. E. Scuseria, 
 M. A. Robb, J. R. Cheeseman, G. Scalmani, V. Barone, B. Mennucci, 
 G. A. Petersson, H. Nakatsuji, M. Caricato, X. Li, H. P. Hratchian, 
 A. F. Izmaylov, J. Bloino, G. Zheng, J. L. Sonnenberg, M. Hada, 
 M. Ehara, K. Toyota, R. Fukuda, J. Hasegawa, M. Ishida, T. Nakajima, 
 Y. Honda, O. Kitao, H. Nakai, T. Vreven, J. A. Montgomery, Jr., 
 J. E. Peralta, F. Ogliaro, M. Bearpark, J. J. Heyd, E. Brothers, 
 K. N. Kudin, V. N. Staroverov, R. Kobayashi, J. Normand, 
 K. Raghavachari, A. Rendell, J. C. Burant, S. S. Iyengar, J. Tomasi, 
 M. Cossi, N. Rega, J. M. Millam, M. Klene, J. E. Knox, J. B. Cross, 
 V. Bakken, C. Adamo, J. Jaramillo, R. Gomperts, R. E. Stratmann, 
 O. Yazyev, A. J. Austin, R. Cammi, C. Pomelli, J. W. Ochterski, 
 R. L. Martin, K. Morokuma, V. G. Zakrzewski, G. A. Voth, 
 P. Salvador, J. J. Dannenberg, S. Dapprich, A. D. Daniels, 
 O. Farkas, J. B. Foresman, J. V. Ortiz, J. Cioslowski, 
 and D. J. Fox, Gaussian, Inc., Wallingford CT, 2009.
 
 ******************************************
 Gaussian 09:  EM64L-G09RevA.02 11-Jun-2009
                 8-Apr-2020 
 ******************************************
 %RWF=/scratch/bdw2292/Gau-MOLECULE0/,100GB
 %Nosave
 %Chk=MOLECULE0-opt-23-22-21-36-275.chk
 %Mem=20GB
 %Nproc=6
 Will use up to    6 processors via shared memory.
 --------------------------------------------------
 #P opt=(,maxcycle=400) wB97XD/6-31G* MaxDisk=100GB
 --------------------------------------------------
 1/6=400,14=-1,18=20,19=15,26=3,38=1/1,3;
 2/9=110,12=2,17=6,18=5,40=1/2;
 3/5=1,6=6,7=1,11=2,16=1,25=1,30=1,71=1,74=-58/1,2,3;
 4//1;
 5/5=2,38=5/2;
 6/7=2,8=2,9=2,10=2,28=1/1;
 7//1,2,3,16;
 1/6=400,14=-1,18=20,19=15/3(2);
 2/9=110/2;
 99//99;
 2/9=110/2;
 3/5=1,6=6,7=1,11=2,16=1,25=1,30=1,71=1,74=-58/1,2,3;
 4/5=5,16=3/1;
 5/5=2,38=5/2;
 7//1,2,3,16;
 1/6=400,14=-1,18=20,19=15/3(-5);
 2/9=110/2;
 6/7=2,8=2,9=2,10=2,19=2,28=1/1;
 99/9=1/99;
 Leave Link    1 at Wed Apr  8 22:20:27 2020, MaxMem= 2684354560 cpu:       0.2
 (Enter /opt/g09gh/gaussian/g09/l101.exe)
 --------------------------------------------------------------
 MOLECULE0 Rotatable Bond Optimization on node37.bme.utexas.edu
 --------------------------------------------------------------
 Symbolic Z-matrix:
 Charge =  0 Multiplicity = 1
 C                    -2.37347   1.84373   5.33382 
 C                    -1.18739   1.43711   5.95925 
 C                    -0.28764   0.5954    5.27665 
 C                    -0.65202   0.24719   3.95271 
 N                    -1.77951   0.62418   3.33982 
 C                    -2.62641   1.40534   4.02898 
 C                     0.99217   0.07109   5.87693 
 C                     1.52808   0.45603   7.11721 
 C                     2.73522  -0.15566   7.47712 
 N                     3.3705   -1.06014   6.7343 
 C                     2.77613  -1.38026   5.56711 
 N                     1.63453  -0.84781   5.13257 
 N                     3.4313   -2.32815   4.80287 
 C                     3.18552  -2.88708   3.49609 
 C                     4.2378   -3.58085   2.82442 
 C                     3.96108  -4.08859   1.54453 
 C                     2.72718  -3.95065   0.89936 
 C                     1.69397  -3.29201   1.57495 
 C                     1.94114  -2.78144   2.85909 
 N                     0.37838  -3.06021   1.05305 
 C                    -0.13699  -3.25984  -0.20551 
 C                    -1.49399  -2.64235  -0.45678 
 C                    -1.59209  -1.3848   -1.07107 
 C                    -2.84629  -0.83703  -1.35318 
 C                    -4.03431  -1.54063  -1.07447 
 C                    -3.91596  -2.76778  -0.39161 
 C                    -2.66735  -3.32399  -0.10148 
 C                    -5.40402  -0.97055  -1.44854 
 N                    -6.10327  -0.0028   -0.58903 
 C                    -5.63657   1.40352  -0.54847 
 C                    -4.72357   1.77434   0.64838 
 N                    -5.2741    1.39988   1.972 
 C                    -6.30983   2.28339   2.52327 
 C                    -5.60233  -0.04516   1.92627 
 C                    -6.53847  -0.44396   0.75696 
 O                     0.43082  -3.902    -1.07236 
 C                     5.62381  -3.77203   3.41748 
 H                    -3.091     2.48119   5.8415 
 H                    -0.99974   1.76407   6.97908 
 H                     0.00828  -0.35661   3.3386 
 H                    -3.5417    1.69254   3.51807 
 H                     1.07862   1.18728   7.77794 
 H                     3.24089   0.07911   8.41335 
 H                     4.29147  -2.58774   5.26144 
 H                     4.74538  -4.61507   1.00234 
 H                     2.56295  -4.34112  -0.09714 
 H                     1.14274  -2.28844   3.38793 
 H                    -0.26003  -2.61233   1.69673 
 H                    -0.68076  -0.85243  -1.33167 
 H                    -2.89594   0.13963  -1.83386 
 H                    -4.81194  -3.31872  -0.10614 
 H                    -2.58778  -4.29135   0.3882 
 H                    -5.30363  -0.49475  -2.43462 
 H                    -6.09435  -1.81818  -1.568 
 H                    -5.11044   1.69845  -1.58389 
 H                    -6.8617    2.25433  -0.4462 
 H                    -4.46651   3.03213   0.64057 
 H                    -3.42564   1.05567   0.51009 
 H                    -7.20703   2.27931   1.89445 
 H                    -5.932     3.31001   2.59341 
 H                    -6.58517   1.95769   3.53327 
 H                    -6.08289  -0.38843   3.00934 
 H                    -4.26599  -0.79552   1.75654 
 H                    -7.84072   0.16882   1.00311 
 H                    -6.7234   -1.68095   0.76335 
 H                     5.6071   -4.33203   4.36335 
 H                     6.09993  -2.80886   3.62128 
 H                     6.29645  -4.31777   2.75072 
 
 NAtoms=     68 NQM=     68 NQMF=      0 NMic=      0 NMicF=      0 NTot=     68.
                    Isotopes and Nuclear Properties:
 (Nuclear quadrupole moments (NQMom) in fm**2, nuclear magnetic moments (NMagM)
  in nuclear magnetons)

  Atom         1           2           3           4           5           6           7           8           9          10
 IAtWgt=          12          12          12          12          14          12          12          12          12          14
 AtmWgt=  12.0000000  12.0000000  12.0000000  12.0000000  14.0030740  12.0000000  12.0000000  12.0000000  12.0000000  14.0030740
 NucSpn=           0           0           0           0           2           0           0           0           0           2
 AtZEff=   0.0000000   0.0000000   0.0000000   0.0000000   0.0000000   0.0000000   0.0000000   0.0000000   0.0000000   0.0000000
 NQMom=    0.0000000   0.0000000   0.0000000   0.0000000   2.0440000   0.0000000   0.0000000   0.0000000   0.0000000   2.0440000
 NMagM=    0.0000000   0.0000000   0.0000000   0.0000000   0.4037610   0.0000000   0.0000000   0.0000000   0.0000000   0.4037610

  Atom        11          12          13          14          15          16          17          18          19          20
 IAtWgt=          12          14          14          12          12          12          12          12          12          14
 AtmWgt=  12.0000000  14.0030740  14.0030740  12.0000000  12.0000000  12.0000000  12.0000000  12.0000000  12.0000000  14.0030740
 NucSpn=           0           2           2           0           0           0           0           0           0           2
 AtZEff=   0.0000000   0.0000000   0.0000000   0.0000000   0.0000000   0.0000000   0.0000000   0.0000000   0.0000000   0.0000000
 NQMom=    0.0000000   2.0440000   2.0440000   0.0000000   0.0000000   0.0000000   0.0000000   0.0000000   0.0000000   2.0440000
 NMagM=    0.0000000   0.4037610   0.4037610   0.0000000   0.0000000   0.0000000   0.0000000   0.0000000   0.0000000   0.4037610

  Atom        21          22          23          24          25          26          27          28          29          30
 IAtWgt=          12          12          12          12          12          12          12          12          14          12
 AtmWgt=  12.0000000  12.0000000  12.0000000  12.0000000  12.0000000  12.0000000  12.0000000  12.0000000  14.0030740  12.0000000
 NucSpn=           0           0           0           0           0           0           0           0           2           0
 AtZEff=   0.0000000   0.0000000   0.0000000   0.0000000   0.0000000   0.0000000   0.0000000   0.0000000   0.0000000   0.0000000
 NQMom=    0.0000000   0.0000000   0.0000000   0.0000000   0.0000000   0.0000000   0.0000000   0.0000000   2.0440000   0.0000000
 NMagM=    0.0000000   0.0000000   0.0000000   0.0000000   0.0000000   0.0000000   0.0000000   0.0000000   0.4037610   0.0000000

  Atom        31          32          33          34          35          36          37          38          39          40
 IAtWgt=          12          14          12          12          12          16          12           1           1           1
 AtmWgt=  12.0000000  14.0030740  12.0000000  12.0000000  12.0000000  15.9949146  12.0000000   1.0078250   1.0078250   1.0078250
 NucSpn=           0           2           0           0           0           0           0           1           1           1
 AtZEff=   0.0000000   0.0000000   0.0000000   0.0000000   0.0000000   0.0000000   0.0000000   0.0000000   0.0000000   0.0000000
 NQMom=    0.0000000   2.0440000   0.0000000   0.0000000   0.0000000   0.0000000   0.0000000   0.0000000   0.0000000   0.0000000
 NMagM=    0.0000000   0.4037610   0.0000000   0.0000000   0.0000000   0.0000000   0.0000000   2.7928460   2.7928460   2.7928460

  Atom        41          42          43          44          45          46          47          48          49          50
 IAtWgt=           1           1           1           1           1           1           1           1           1           1
 AtmWgt=   1.0078250   1.0078250   1.0078250   1.0078250   1.0078250   1.0078250   1.0078250   1.0078250   1.0078250   1.0078250
 NucSpn=           1           1           1           1           1           1           1           1           1           1
 AtZEff=   0.0000000   0.0000000   0.0000000   0.0000000   0.0000000   0.0000000   0.0000000   0.0000000   0.0000000   0.0000000
 NQMom=    0.0000000   0.0000000   0.0000000   0.0000000   0.0000000   0.0000000   0.0000000   0.0000000   0.0000000   0.0000000
 NMagM=    2.7928460   2.7928460   2.7928460   2.7928460   2.7928460   2.7928460   2.7928460   2.7928460   2.7928460   2.7928460

  Atom        51          52          53          54          55          56          57          58          59          60
 IAtWgt=           1           1           1           1           1           1           1           1           1           1
 AtmWgt=   1.0078250   1.0078250   1.0078250   1.0078250   1.0078250   1.0078250   1.0078250   1.0078250   1.0078250   1.0078250
 NucSpn=           1           1           1           1           1           1           1           1           1           1
 AtZEff=   0.0000000   0.0000000   0.0000000   0.0000000   0.0000000   0.0000000   0.0000000   0.0000000   0.0000000   0.0000000
 NQMom=    0.0000000   0.0000000   0.0000000   0.0000000   0.0000000   0.0000000   0.0000000   0.0000000   0.0000000   0.0000000
 NMagM=    2.7928460   2.7928460   2.7928460   2.7928460   2.7928460   2.7928460   2.7928460   2.7928460   2.7928460   2.7928460

  Atom        61          62          63          64          65          66          67          68
 IAtWgt=           1           1           1           1           1           1           1           1
 AtmWgt=   1.0078250   1.0078250   1.0078250   1.0078250   1.0078250   1.0078250   1.0078250   1.0078250
 NucSpn=           1           1           1           1           1           1           1           1
 AtZEff=   0.0000000   0.0000000   0.0000000   0.0000000   0.0000000   0.0000000   0.0000000   0.0000000
 NQMom=    0.0000000   0.0000000   0.0000000   0.0000000   0.0000000   0.0000000   0.0000000   0.0000000
 NMagM=    2.7928460   2.7928460   2.7928460   2.7928460   2.7928460   2.7928460   2.7928460   2.7928460
 Leave Link  101 at Wed Apr  8 22:20:27 2020, MaxMem= 2684354560 cpu:       0.4
 (Enter /opt/g09gh/gaussian/g09/l103.exe)

 GradGradGradGradGradGradGradGradGradGradGradGradGradGradGradGradGradGrad
 Berny optimization.
 Initialization pass.
                           ----------------------------
                           !    Initial Parameters    !
                           ! (Angstroms and Degrees)  !
 --------------------------                            --------------------------
 ! Name  Definition              Value          Derivative Info.                !
 --------------------------------------------------------------------------------
 ! R1    R(1,2)                  1.4012         estimate D2E/DX2                !
 ! R2    R(1,6)                  1.3996         estimate D2E/DX2                !
 ! R3    R(1,38)                 1.0858         estimate D2E/DX2                !
 ! R4    R(2,3)                  1.4085         estimate D2E/DX2                !
 ! R5    R(2,39)                 1.0873         estimate D2E/DX2                !
 ! R6    R(3,4)                  1.4166         estimate D2E/DX2                !
 ! R7    R(3,7)                  1.5077         estimate D2E/DX2                !
 ! R8    R(4,5)                  1.3375         estimate D2E/DX2                !
 ! R9    R(4,40)                 1.0852         estimate D2E/DX2                !
 ! R10   R(5,6)                  1.3425         estimate D2E/DX2                !
 ! R11   R(6,41)                 1.0869         estimate D2E/DX2                !
 ! R12   R(7,8)                  1.4049         estimate D2E/DX2                !
 ! R13   R(7,12)                 1.3458         estimate D2E/DX2                !
 ! R14   R(8,9)                  1.4003         estimate D2E/DX2                !
 ! R15   R(8,42)                 1.0832         estimate D2E/DX2                !
 ! R16   R(9,10)                 1.3317         estimate D2E/DX2                !
 ! R17   R(9,43)                 1.0896         estimate D2E/DX2                !
 ! R18   R(10,11)                1.3484         estimate D2E/DX2                !
 ! R19   R(11,12)                1.3325         estimate D2E/DX2                !
 ! R20   R(11,13)                1.3827         estimate D2E/DX2                !
 ! R21   R(13,14)                1.4424         estimate D2E/DX2                !
 ! R22   R(13,44)                1.0087         estimate D2E/DX2                !
 ! R23   R(14,15)                1.4282         estimate D2E/DX2                !
 ! R24   R(14,19)                1.4019         estimate D2E/DX2                !
 ! R25   R(15,16)                1.4044         estimate D2E/DX2                !
 ! R26   R(15,37)                1.5196         estimate D2E/DX2                !
 ! R27   R(16,17)                1.3992         estimate D2E/DX2                !
 ! R28   R(16,45)                1.0892         estimate D2E/DX2                !
 ! R29   R(17,18)                1.3992         estimate D2E/DX2                !
 ! R30   R(17,46)                1.0828         estimate D2E/DX2                !
 ! R31   R(18,19)                1.4038         estimate D2E/DX2                !
 ! R32   R(18,20)                1.4342         estimate D2E/DX2                !
 ! R33   R(19,47)                1.0771         estimate D2E/DX2                !
 ! R34   R(20,21)                1.3746         estimate D2E/DX2                !
 ! R35   R(20,48)                1.0112         estimate D2E/DX2                !
 ! R36   R(21,22)                1.5119         estimate D2E/DX2                !
 ! R37   R(21,36)                1.2191         estimate D2E/DX2                !
 ! R38   R(22,23)                1.403          estimate D2E/DX2                !
 ! R39   R(22,27)                1.4027         estimate D2E/DX2                !
 ! R40   R(23,24)                1.3974         estimate D2E/DX2                !
 ! R41   R(23,49)                1.0871         estimate D2E/DX2                !
 ! R42   R(24,25)                1.4086         estimate D2E/DX2                !
 ! R43   R(24,50)                1.0897         estimate D2E/DX2                !
 ! R44   R(25,26)                1.4093         estimate D2E/DX2                !
 ! R45   R(25,28)                1.53           estimate D2E/DX2                !
 ! R46   R(26,27)                1.3973         estimate D2E/DX2                !
 ! R47   R(26,51)                1.0899         estimate D2E/DX2                !
 ! R48   R(27,52)                1.0872         estimate D2E/DX2                !
 ! R49   R(28,29)                1.4711         estimate D2E/DX2                !
 ! R50   R(28,53)                1.0995         estimate D2E/DX2                !
 ! R51   R(28,54)                1.0997         estimate D2E/DX2                !
 ! R52   R(29,30)                1.4823         estimate D2E/DX2                !
 ! R53   R(29,35)                1.4818         estimate D2E/DX2                !
 ! R54   R(30,31)                1.5503         estimate D2E/DX2                !
 ! R55   R(30,55)                1.1983         estimate D2E/DX2                !
 ! R56   R(30,56)                1.4951         estimate D2E/DX2                !
 ! R57   R(31,32)                1.4816         estimate D2E/DX2                !
 ! R58   R(31,57)                1.2838         estimate D2E/DX2                !
 ! R59   R(31,58)                1.49           estimate D2E/DX2                !
 ! R60   R(32,33)                1.4688         estimate D2E/DX2                !
 ! R61   R(32,34)                1.4826         estimate D2E/DX2                !
 ! R62   R(33,59)                1.0956         estimate D2E/DX2                !
 ! R63   R(33,60)                1.0962         estimate D2E/DX2                !
 ! R64   R(33,61)                1.0964         estimate D2E/DX2                !
 ! R65   R(34,35)                1.5501         estimate D2E/DX2                !
 ! R66   R(34,62)                1.2336         estimate D2E/DX2                !
 ! R67   R(34,63)                1.542          estimate D2E/DX2                !
 ! R68   R(35,64)                1.4601         estimate D2E/DX2                !
 ! R69   R(35,65)                1.2507         estimate D2E/DX2                !
 ! R70   R(37,66)                1.0993         estimate D2E/DX2                !
 ! R71   R(37,67)                1.0936         estimate D2E/DX2                !
 ! R72   R(37,68)                1.0931         estimate D2E/DX2                !
 ! A1    A(2,1,6)              118.5703         estimate D2E/DX2                !
 ! A2    A(2,1,38)             121.4037         estimate D2E/DX2                !
 ! A3    A(6,1,38)             120.0254         estimate D2E/DX2                !
 ! A4    A(1,2,3)              119.8564         estimate D2E/DX2                !
 ! A5    A(1,2,39)             118.5217         estimate D2E/DX2                !
 ! A6    A(3,2,39)             121.6021         estimate D2E/DX2                !
 ! A7    A(2,3,4)              115.8166         estimate D2E/DX2                !
 ! A8    A(2,3,7)              123.8553         estimate D2E/DX2                !
 ! A9    A(4,3,7)              120.3279         estimate D2E/DX2                !
 ! A10   A(3,4,5)              125.1546         estimate D2E/DX2                !
 ! A11   A(3,4,40)             120.6053         estimate D2E/DX2                !
 ! A12   A(5,4,40)             114.2309         estimate D2E/DX2                !
 ! A13   A(4,5,6)              117.4218         estimate D2E/DX2                !
 ! A14   A(1,6,5)              123.1502         estimate D2E/DX2                !
 ! A15   A(1,6,41)             120.5101         estimate D2E/DX2                !
 ! A16   A(5,6,41)             116.3396         estimate D2E/DX2                !
 ! A17   A(3,7,8)              125.4517         estimate D2E/DX2                !
 ! A18   A(3,7,12)             114.9866         estimate D2E/DX2                !
 ! A19   A(8,7,12)             119.5593         estimate D2E/DX2                !
 ! A20   A(7,8,9)              115.8528         estimate D2E/DX2                !
 ! A21   A(7,8,42)             124.4164         estimate D2E/DX2                !
 ! A22   A(9,8,42)             119.7237         estimate D2E/DX2                !
 ! A23   A(8,9,10)             124.3711         estimate D2E/DX2                !
 ! A24   A(8,9,43)             121.7875         estimate D2E/DX2                !
 ! A25   A(10,9,43)            113.8413         estimate D2E/DX2                !
 ! A26   A(9,10,11)            115.7097         estimate D2E/DX2                !
 ! A27   A(10,11,12)           124.4077         estimate D2E/DX2                !
 ! A28   A(10,11,13)           115.6164         estimate D2E/DX2                !
 ! A29   A(12,11,13)           119.9759         estimate D2E/DX2                !
 ! A30   A(7,12,11)            120.0924         estimate D2E/DX2                !
 ! A31   A(11,13,14)           133.2879         estimate D2E/DX2                !
 ! A32   A(11,13,44)           109.2201         estimate D2E/DX2                !
 ! A33   A(14,13,44)           117.2223         estimate D2E/DX2                !
 ! A34   A(13,14,15)           119.2589         estimate D2E/DX2                !
 ! A35   A(13,14,19)           122.2561         estimate D2E/DX2                !
 ! A36   A(15,14,19)           118.4837         estimate D2E/DX2                !
 ! A37   A(14,15,16)           117.3239         estimate D2E/DX2                !
 ! A38   A(14,15,37)           123.338          estimate D2E/DX2                !
 ! A39   A(16,15,37)           119.3325         estimate D2E/DX2                !
 ! A40   A(15,16,17)           123.9394         estimate D2E/DX2                !
 ! A41   A(15,16,45)           119.1126         estimate D2E/DX2                !
 ! A42   A(17,16,45)           116.9447         estimate D2E/DX2                !
 ! A43   A(16,17,18)           118.3567         estimate D2E/DX2                !
 ! A44   A(16,17,46)           121.5038         estimate D2E/DX2                !
 ! A45   A(18,17,46)           120.1394         estimate D2E/DX2                !
 ! A46   A(17,18,19)           118.8718         estimate D2E/DX2                !
 ! A47   A(17,18,20)           125.2919         estimate D2E/DX2                !
 ! A48   A(19,18,20)           115.8235         estimate D2E/DX2                !
 ! A49   A(14,19,18)           122.9907         estimate D2E/DX2                !
 ! A50   A(14,19,47)           117.992          estimate D2E/DX2                !
 ! A51   A(18,19,47)           119.0167         estimate D2E/DX2                !
 ! A52   A(18,20,21)           130.8174         estimate D2E/DX2                !
 ! A53   A(18,20,48)           114.7767         estimate D2E/DX2                !
 ! A54   A(21,20,48)           114.233          estimate D2E/DX2                !
 ! A55   A(20,21,22)           115.4278         estimate D2E/DX2                !
 ! A56   A(20,21,36)           123.5671         estimate D2E/DX2                !
 ! A57   A(22,21,36)           120.9975         estimate D2E/DX2                !
 ! A58   A(21,22,23)           120.1055         estimate D2E/DX2                !
 ! A59   A(21,22,27)           120.6786         estimate D2E/DX2                !
 ! A60   A(23,22,27)           119.2075         estimate D2E/DX2                !
 ! A61   A(22,23,24)           120.166          estimate D2E/DX2                !
 ! A62   A(22,23,49)           119.0307         estimate D2E/DX2                !
 ! A63   A(24,23,49)           120.8            estimate D2E/DX2                !
 ! A64   A(23,24,25)           121.4164         estimate D2E/DX2                !
 ! A65   A(23,24,50)           118.7702         estimate D2E/DX2                !
 ! A66   A(25,24,50)           119.7717         estimate D2E/DX2                !
 ! A67   A(24,25,26)           117.3854         estimate D2E/DX2                !
 ! A68   A(24,25,28)           121.3694         estimate D2E/DX2                !
 ! A69   A(26,25,28)           121.2024         estimate D2E/DX2                !
 ! A70   A(25,26,27)           121.4822         estimate D2E/DX2                !
 ! A71   A(25,26,51)           119.871          estimate D2E/DX2                !
 ! A72   A(27,26,51)           118.6193         estimate D2E/DX2                !
 ! A73   A(22,27,26)           120.0949         estimate D2E/DX2                !
 ! A74   A(22,27,52)           119.0296         estimate D2E/DX2                !
 ! A75   A(26,27,52)           120.8707         estimate D2E/DX2                !
 ! A76   A(25,28,29)           121.8548         estimate D2E/DX2                !
 ! A77   A(25,28,53)           107.3835         estimate D2E/DX2                !
 ! A78   A(25,28,54)           107.538          estimate D2E/DX2                !
 ! A79   A(29,28,53)           106.4228         estimate D2E/DX2                !
 ! A80   A(29,28,54)           105.7915         estimate D2E/DX2                !
 ! A81   A(53,28,54)           107.0651         estimate D2E/DX2                !
 ! A82   A(28,29,30)           119.3695         estimate D2E/DX2                !
 ! A83   A(28,29,35)           118.3238         estimate D2E/DX2                !
 ! A84   A(30,29,35)           110.4923         estimate D2E/DX2                !
 ! A85   A(29,30,31)           115.6875         estimate D2E/DX2                !
 ! A86   A(29,30,55)           110.3716         estimate D2E/DX2                !
 ! A87   A(29,30,56)           106.4856         estimate D2E/DX2                !
 ! A88   A(31,30,55)           110.4649         estimate D2E/DX2                !
 ! A89   A(31,30,56)           107.0766         estimate D2E/DX2                !
 ! A90   A(55,30,56)           106.1909         estimate D2E/DX2                !
 ! A91   A(30,31,32)           114.2295         estimate D2E/DX2                !
 ! A92   A(30,31,57)           110.3378         estimate D2E/DX2                !
 ! A93   A(30,31,58)           109.0241         estimate D2E/DX2                !
 ! A94   A(32,31,57)           109.114          estimate D2E/DX2                !
 ! A95   A(32,31,58)           106.5396         estimate D2E/DX2                !
 ! A96   A(57,31,58)           107.3106         estimate D2E/DX2                !
 ! A97   A(31,32,33)           116.4423         estimate D2E/DX2                !
 ! A98   A(31,32,34)           107.5203         estimate D2E/DX2                !
 ! A99   A(33,32,34)           116.217          estimate D2E/DX2                !
 ! A100  A(32,33,59)           111.0886         estimate D2E/DX2                !
 ! A101  A(32,33,60)           110.1402         estimate D2E/DX2                !
 ! A102  A(32,33,61)           110.1314         estimate D2E/DX2                !
 ! A103  A(59,33,60)           108.8114         estimate D2E/DX2                !
 ! A104  A(59,33,61)           108.7818         estimate D2E/DX2                !
 ! A105  A(60,33,61)           107.8089         estimate D2E/DX2                !
 ! A106  A(32,34,35)           114.0637         estimate D2E/DX2                !
 ! A107  A(32,34,62)           109.2922         estimate D2E/DX2                !
 ! A108  A(32,34,63)           106.6093         estimate D2E/DX2                !
 ! A109  A(35,34,62)           110.8201         estimate D2E/DX2                !
 ! A110  A(35,34,63)           108.371          estimate D2E/DX2                !
 ! A111  A(62,34,63)           107.3875         estimate D2E/DX2                !
 ! A112  A(29,35,34)           115.5468         estimate D2E/DX2                !
 ! A113  A(29,35,64)           106.8653         estimate D2E/DX2                !
 ! A114  A(29,35,65)           110.0299         estimate D2E/DX2                !
 ! A115  A(34,35,64)           107.6678         estimate D2E/DX2                !
 ! A116  A(34,35,65)           109.8706         estimate D2E/DX2                !
 ! A117  A(64,35,65)           106.3995         estimate D2E/DX2                !
 ! A118  A(15,37,66)           112.7063         estimate D2E/DX2                !
 ! A119  A(15,37,67)           111.0401         estimate D2E/DX2                !
 ! A120  A(15,37,68)           112.706          estimate D2E/DX2                !
 ! A121  A(66,37,67)           107.1531         estimate D2E/DX2                !
 ! A122  A(66,37,68)           106.251          estimate D2E/DX2                !
 ! A123  A(67,37,68)           106.5882         estimate D2E/DX2                !
 ! D1    D(6,1,2,3)             -0.5527         estimate D2E/DX2                !
 ! D2    D(6,1,2,39)          -178.9602         estimate D2E/DX2                !
 ! D3    D(38,1,2,3)           179.163          estimate D2E/DX2                !
 ! D4    D(38,1,2,39)            0.7555         estimate D2E/DX2                !
 ! D5    D(2,1,6,5)             -0.7515         estimate D2E/DX2                !
 ! D6    D(2,1,6,41)           179.3131         estimate D2E/DX2                !
 ! D7    D(38,1,6,5)           179.5288         estimate D2E/DX2                !
 ! D8    D(38,1,6,41)           -0.4067         estimate D2E/DX2                !
 ! D9    D(1,2,3,4)              1.7468         estimate D2E/DX2                !
 ! D10   D(1,2,3,7)           -178.1215         estimate D2E/DX2                !
 ! D11   D(39,2,3,4)          -179.8961         estimate D2E/DX2                !
 ! D12   D(39,2,3,7)             0.2356         estimate D2E/DX2                !
 ! D13   D(2,3,4,5)             -1.9142         estimate D2E/DX2                !
 ! D14   D(2,3,4,40)           176.9186         estimate D2E/DX2                !
 ! D15   D(7,3,4,5)            177.9591         estimate D2E/DX2                !
 ! D16   D(7,3,4,40)            -3.2081         estimate D2E/DX2                !
 ! D17   D(2,3,7,8)             -7.2817         estimate D2E/DX2                !
 ! D18   D(2,3,7,12)           172.1479         estimate D2E/DX2                !
 ! D19   D(4,3,7,8)            172.8556         estimate D2E/DX2                !
 ! D20   D(4,3,7,12)            -7.7147         estimate D2E/DX2                !
 ! D21   D(3,4,5,6)              0.7118         estimate D2E/DX2                !
 ! D22   D(40,4,5,6)          -178.1866         estimate D2E/DX2                !
 ! D23   D(4,5,6,1)              0.6861         estimate D2E/DX2                !
 ! D24   D(4,5,6,41)          -179.3759         estimate D2E/DX2                !
 ! D25   D(3,7,8,9)           -179.7014         estimate D2E/DX2                !
 ! D26   D(3,7,8,42)            -0.6758         estimate D2E/DX2                !
 ! D27   D(12,7,8,9)             0.8929         estimate D2E/DX2                !
 ! D28   D(12,7,8,42)          179.9185         estimate D2E/DX2                !
 ! D29   D(3,7,12,11)         -179.9465         estimate D2E/DX2                !
 ! D30   D(8,7,12,11)           -0.4806         estimate D2E/DX2                !
 ! D31   D(7,8,9,10)            -0.6204         estimate D2E/DX2                !
 ! D32   D(7,8,9,43)           179.3729         estimate D2E/DX2                !
 ! D33   D(42,8,9,10)         -179.6948         estimate D2E/DX2                !
 ! D34   D(42,8,9,43)            0.2985         estimate D2E/DX2                !
 ! D35   D(8,9,10,11)           -0.0912         estimate D2E/DX2                !
 ! D36   D(43,9,10,11)         179.9149         estimate D2E/DX2                !
 ! D37   D(9,10,11,12)           0.5848         estimate D2E/DX2                !
 ! D38   D(9,10,11,13)        -179.4542         estimate D2E/DX2                !
 ! D39   D(10,11,12,7)          -0.3024         estimate D2E/DX2                !
 ! D40   D(13,11,12,7)         179.7382         estimate D2E/DX2                !
 ! D41   D(10,11,13,14)       -176.1924         estimate D2E/DX2                !
 ! D42   D(10,11,13,44)         -2.5151         estimate D2E/DX2                !
 ! D43   D(12,11,13,14)          3.7705         estimate D2E/DX2                !
 ! D44   D(12,11,13,44)        177.4477         estimate D2E/DX2                !
 ! D45   D(11,13,14,15)        162.892          estimate D2E/DX2                !
 ! D46   D(11,13,14,19)        -17.5119         estimate D2E/DX2                !
 ! D47   D(44,13,14,15)        -10.3923         estimate D2E/DX2                !
 ! D48   D(44,13,14,19)        169.2038         estimate D2E/DX2                !
 ! D49   D(13,14,15,16)       -178.9268         estimate D2E/DX2                !
 ! D50   D(13,14,15,37)          0.2052         estimate D2E/DX2                !
 ! D51   D(19,14,15,16)          1.4618         estimate D2E/DX2                !
 ! D52   D(19,14,15,37)       -179.4062         estimate D2E/DX2                !
 ! D53   D(13,14,19,18)        178.4618         estimate D2E/DX2                !
 ! D54   D(13,14,19,47)         -1.8154         estimate D2E/DX2                !
 ! D55   D(15,14,19,18)         -1.9391         estimate D2E/DX2                !
 ! D56   D(15,14,19,47)        177.7838         estimate D2E/DX2                !
 ! D57   D(14,15,16,17)          0.1426         estimate D2E/DX2                !
 ! D58   D(14,15,16,45)        179.4665         estimate D2E/DX2                !
 ! D59   D(37,15,16,17)       -179.0256         estimate D2E/DX2                !
 ! D60   D(37,15,16,45)          0.2984         estimate D2E/DX2                !
 ! D61   D(14,15,37,66)         60.4126         estimate D2E/DX2                !
 ! D62   D(14,15,37,67)        -59.8193         estimate D2E/DX2                !
 ! D63   D(14,15,37,68)       -179.3269         estimate D2E/DX2                !
 ! D64   D(16,15,37,66)       -120.472          estimate D2E/DX2                !
 ! D65   D(16,15,37,67)        119.2961         estimate D2E/DX2                !
 ! D66   D(16,15,37,68)         -0.2115         estimate D2E/DX2                !
 ! D67   D(15,16,17,18)         -1.3511         estimate D2E/DX2                !
 ! D68   D(15,16,17,46)        178.7584         estimate D2E/DX2                !
 ! D69   D(45,16,17,18)        179.3115         estimate D2E/DX2                !
 ! D70   D(45,16,17,46)         -0.579          estimate D2E/DX2                !
 ! D71   D(16,17,18,19)          0.9038         estimate D2E/DX2                !
 ! D72   D(16,17,18,20)        179.549          estimate D2E/DX2                !
 ! D73   D(46,17,18,19)       -179.2041         estimate D2E/DX2                !
 ! D74   D(46,17,18,20)         -0.559          estimate D2E/DX2                !
 ! D75   D(17,18,19,14)          0.7287         estimate D2E/DX2                !
 ! D76   D(17,18,19,47)       -178.9915         estimate D2E/DX2                !
 ! D77   D(20,18,19,14)       -178.0428         estimate D2E/DX2                !
 ! D78   D(20,18,19,47)          2.237          estimate D2E/DX2                !
 ! D79   D(17,18,20,21)         -8.3075         estimate D2E/DX2                !
 ! D80   D(17,18,20,48)        176.8196         estimate D2E/DX2                !
 ! D81   D(19,18,20,21)        170.3744         estimate D2E/DX2                !
 ! D82   D(19,18,20,48)         -4.4984         estimate D2E/DX2                !
 ! D83   D(18,20,21,22)       -168.244          estimate D2E/DX2                !
 ! D84   D(18,20,21,36)         12.7513         estimate D2E/DX2                !
 ! D85   D(48,20,21,22)          6.651          estimate D2E/DX2                !
 ! D86   D(48,20,21,36)       -172.3536         estimate D2E/DX2                !
 ! D87   D(20,21,22,23)         95.9919         estimate D2E/DX2                !
 ! D88   D(20,21,22,27)        -85.0673         estimate D2E/DX2                !
 ! D89   D(36,21,22,23)        -84.9757         estimate D2E/DX2                !
 ! D90   D(36,21,22,27)         93.9652         estimate D2E/DX2                !
 ! D91   D(21,22,23,24)        177.398          estimate D2E/DX2                !
 ! D92   D(21,22,23,49)         -1.9525         estimate D2E/DX2                !
 ! D93   D(27,22,23,24)         -1.5584         estimate D2E/DX2                !
 ! D94   D(27,22,23,49)        179.0911         estimate D2E/DX2                !
 ! D95   D(21,22,27,26)       -177.2319         estimate D2E/DX2                !
 ! D96   D(21,22,27,52)          1.9816         estimate D2E/DX2                !
 ! D97   D(23,22,27,26)          1.7184         estimate D2E/DX2                !
 ! D98   D(23,22,27,52)       -179.0681         estimate D2E/DX2                !
 ! D99   D(22,23,24,25)         -2.1457         estimate D2E/DX2                !
 ! D100  D(22,23,24,50)       -179.7884         estimate D2E/DX2                !
 ! D101  D(49,23,24,25)        177.1931         estimate D2E/DX2                !
 ! D102  D(49,23,24,50)         -0.4496         estimate D2E/DX2                !
 ! D103  D(23,24,25,26)          5.4955         estimate D2E/DX2                !
 ! D104  D(23,24,25,28)       -176.8544         estimate D2E/DX2                !
 ! D105  D(50,24,25,26)       -176.885          estimate D2E/DX2                !
 ! D106  D(50,24,25,28)          0.7652         estimate D2E/DX2                !
 ! D107  D(24,25,26,27)         -5.3349         estimate D2E/DX2                !
 ! D108  D(24,25,26,51)        176.5972         estimate D2E/DX2                !
 ! D109  D(28,25,26,27)        177.0108         estimate D2E/DX2                !
 ! D110  D(28,25,26,51)         -1.0571         estimate D2E/DX2                !
 ! D111  D(24,25,28,29)        -83.1238         estimate D2E/DX2                !
 ! D112  D(24,25,28,53)         39.7853         estimate D2E/DX2                !
 ! D113  D(24,25,28,54)        154.7102         estimate D2E/DX2                !
 ! D114  D(26,25,28,29)         94.4367         estimate D2E/DX2                !
 ! D115  D(26,25,28,53)       -142.6542         estimate D2E/DX2                !
 ! D116  D(26,25,28,54)        -27.7293         estimate D2E/DX2                !
 ! D117  D(25,26,27,22)          1.8182         estimate D2E/DX2                !
 ! D118  D(25,26,27,52)       -177.3806         estimate D2E/DX2                !
 ! D119  D(51,26,27,22)        179.9096         estimate D2E/DX2                !
 ! D120  D(51,26,27,52)          0.7108         estimate D2E/DX2                !
 ! D121  D(25,28,29,30)         74.8152         estimate D2E/DX2                !
 ! D122  D(25,28,29,35)        -64.6197         estimate D2E/DX2                !
 ! D123  D(53,28,29,30)        -48.5413         estimate D2E/DX2                !
 ! D124  D(53,28,29,35)        172.0239         estimate D2E/DX2                !
 ! D125  D(54,28,29,30)       -162.2005         estimate D2E/DX2                !
 ! D126  D(54,28,29,35)         58.3646         estimate D2E/DX2                !
 ! D127  D(28,29,30,31)        -98.4849         estimate D2E/DX2                !
 ! D128  D(28,29,30,55)         27.8478         estimate D2E/DX2                !
 ! D129  D(28,29,30,56)        142.6878         estimate D2E/DX2                !
 ! D130  D(35,29,30,31)         43.8439         estimate D2E/DX2                !
 ! D131  D(35,29,30,55)        170.1765         estimate D2E/DX2                !
 ! D132  D(35,29,30,56)        -74.9834         estimate D2E/DX2                !
 ! D133  D(28,29,35,34)         98.567          estimate D2E/DX2                !
 ! D134  D(28,29,35,64)       -141.6704         estimate D2E/DX2                !
 ! D135  D(28,29,35,65)        -26.5491         estimate D2E/DX2                !
 ! D136  D(30,29,35,34)        -44.203          estimate D2E/DX2                !
 ! D137  D(30,29,35,64)         75.5596         estimate D2E/DX2                !
 ! D138  D(30,29,35,65)       -169.319          estimate D2E/DX2                !
 ! D139  D(29,30,31,32)        -51.6209         estimate D2E/DX2                !
 ! D140  D(29,30,31,57)       -174.9718         estimate D2E/DX2                !
 ! D141  D(29,30,31,58)         67.4169         estimate D2E/DX2                !
 ! D142  D(55,30,31,32)       -177.9063         estimate D2E/DX2                !
 ! D143  D(55,30,31,57)         58.7428         estimate D2E/DX2                !
 ! D144  D(55,30,31,58)        -58.8686         estimate D2E/DX2                !
 ! D145  D(56,30,31,32)         66.8804         estimate D2E/DX2                !
 ! D146  D(56,30,31,57)        -56.4705         estimate D2E/DX2                !
 ! D147  D(56,30,31,58)       -174.0819         estimate D2E/DX2                !
 ! D148  D(30,31,32,33)        -78.3848         estimate D2E/DX2                !
 ! D149  D(30,31,32,34)         54.022          estimate D2E/DX2                !
 ! D150  D(57,31,32,33)         45.6246         estimate D2E/DX2                !
 ! D151  D(57,31,32,34)        178.0313         estimate D2E/DX2                !
 ! D152  D(58,31,32,33)        161.1823         estimate D2E/DX2                !
 ! D153  D(58,31,32,34)        -66.4109         estimate D2E/DX2                !
 ! D154  D(31,32,33,59)         63.8847         estimate D2E/DX2                !
 ! D155  D(31,32,33,60)        -56.7485         estimate D2E/DX2                !
 ! D156  D(31,32,33,61)       -175.5251         estimate D2E/DX2                !
 ! D157  D(34,32,33,59)        -64.4073         estimate D2E/DX2                !
 ! D158  D(34,32,33,60)        174.9596         estimate D2E/DX2                !
 ! D159  D(34,32,33,61)         56.1829         estimate D2E/DX2                !
 ! D160  D(31,32,34,35)        -54.3717         estimate D2E/DX2                !
 ! D161  D(31,32,34,62)       -179.034          estimate D2E/DX2                !
 ! D162  D(31,32,34,63)         65.1926         estimate D2E/DX2                !
 ! D163  D(33,32,34,35)         78.157          estimate D2E/DX2                !
 ! D164  D(33,32,34,62)        -46.5054         estimate D2E/DX2                !
 ! D165  D(33,32,34,63)       -162.2787         estimate D2E/DX2                !
 ! D166  D(32,34,35,29)         52.3665         estimate D2E/DX2                !
 ! D167  D(32,34,35,64)        -66.956          estimate D2E/DX2                !
 ! D168  D(32,34,35,65)        177.5646         estimate D2E/DX2                !
 ! D169  D(62,34,35,29)        176.2097         estimate D2E/DX2                !
 ! D170  D(62,34,35,64)         56.8872         estimate D2E/DX2                !
 ! D171  D(62,34,35,65)        -58.5922         estimate D2E/DX2                !
 ! D172  D(63,34,35,29)        -66.199          estimate D2E/DX2                !
 ! D173  D(63,34,35,64)        174.4785         estimate D2E/DX2                !
 ! D174  D(63,34,35,65)         58.9992         estimate D2E/DX2                !
 --------------------------------------------------------------------------------
 Trust Radius=3.00D-01 FncErr=1.00D-07 GrdErr=1.00D-06
 Number of steps in this run= 400 maximum allowed number of steps= 408.
 GradGradGradGradGradGradGradGradGradGradGradGradGradGradGradGradGradGrad

 Leave Link  103 at Wed Apr  8 22:20:27 2020, MaxMem= 2684354560 cpu:       0.1
 (Enter /opt/g09gh/gaussian/g09/l202.exe)
 Stoichiometry    C29H31N7O
 Framework group  C1[X(C29H31N7O)]
 Deg. of freedom   198
 Full point group                 C1      NOp   1
 Largest Abelian subgroup         C1      NOp   1
 Largest concise Abelian subgroup C1      NOp   1
                         Standard orientation:                         
 ---------------------------------------------------------------------
 Center     Atomic      Atomic             Coordinates (Angstroms)
 Number     Number       Type             X           Y           Z
 ---------------------------------------------------------------------
      1          6           0       -0.711118    4.352429   -0.062622
      2          6           0        0.687639    4.351801    0.019594
      3          6           0        1.395695    3.138732   -0.085633
      4          6           0        0.608709    1.982602   -0.311146
      5          7           0       -0.726289    1.963292   -0.391148
      6          6           0       -1.370487    3.133951   -0.260918
      7          6           0        2.894852    3.028417    0.030623
      8          6           0        3.787698    4.110094    0.111143
      9          6           0        5.144228    3.776281    0.207450
     10          7           0        5.611376    2.529564    0.237652
     11          6           0        4.682064    1.554909    0.170465
     12          7           0        3.371093    1.770289    0.067708
     13          7           0        5.168327    0.261274    0.213817
     14          6           0        4.544100   -1.034201    0.101668
     15          6           0        5.353612   -2.177346   -0.177030
     16          6           0        4.700996   -3.414807   -0.300545
     17          6           0        3.318374   -3.585299   -0.169860
     18          6           0        2.535828   -2.464434    0.128560
     19          6           0        3.163703   -1.216282    0.265221
     20          7           0        1.110296   -2.467199    0.285770
     21          6           0        0.182086   -3.452842    0.048330
     22          6           0       -1.261376   -3.003498    0.067739
     23          6           0       -1.914165   -2.680828   -1.131498
     24          6           0       -3.263503   -2.317767   -1.120818
     25          6           0       -4.011876   -2.308293    0.072485
     26          6           0       -3.320167   -2.563743    1.273521
     27          6           0       -1.970268   -2.924789    1.275587
     28          6           0       -5.506176   -1.979540    0.072892
     29          7           0       -5.995974   -0.592359    0.081009
     30          6           0       -5.917583    0.213561   -1.160583
     31          6           0       -4.709835    1.180628   -1.258899
     32          7           0       -4.544612    2.068489   -0.084309
     33          6           0       -5.436810    3.233085   -0.014115
     34          6           0       -4.494596    1.208098    1.122001
     35          6           0       -5.704142    0.249348    1.265106
     36          8           0        0.473701   -4.620047   -0.148655
     37          6           0        6.860484   -2.108776   -0.361188
     38          1           0       -1.282815    5.271008    0.028629
     39          1           0        1.198064    5.296438    0.190794
     40          1           0        1.077521    1.014395   -0.454243
     41          1           0       -2.455187    3.096472   -0.318303
     42          1           0        3.491277    5.151677    0.087611
     43          1           0        5.920345    4.538954    0.264939
     44          1           0        6.176122    0.286353    0.249444
     45          1           0        5.289256   -4.304400   -0.521601
     46          1           0        2.853827   -4.555665   -0.292498
     47          1           0        2.565779   -0.354784    0.511095
     48          1           0        0.711411   -1.576494    0.550384
     49          1           0       -1.357880   -2.728412   -2.064307
     50          1           0       -3.748803   -2.075043   -2.065789
     51          1           0       -3.848041   -2.511530    2.225588
     52          1           0       -1.457353   -3.160683    2.204659
     53          1           0       -5.948504   -2.460202   -0.811490
     54          1           0       -5.950733   -2.459058    0.957050
     55          1           0       -5.963876   -0.498164   -2.123487
     56          1           0       -7.155253    1.051276   -1.201479
     57          1           0       -4.798336    1.898641   -2.319466
     58          1           0       -3.456167    0.382599   -1.367091
     59          1           0       -6.483292    2.922827    0.080823
     60          1           0       -5.330157    3.845235   -0.917180
     61          1           0       -5.174372    3.858088    0.847562
     62          1           0       -4.376614    1.917738    2.124160
     63          1           0       -3.212715    0.359139    1.005030
     64          1           0       -6.890340    1.065551    1.507380
     65          1           0       -5.558320   -0.470869    2.277228
     66          1           0        7.379872   -1.726783    0.529248
     67          1           0        7.124652   -1.452416   -1.195044
     68          1           0        7.303738   -3.083919   -0.579070
 ---------------------------------------------------------------------
 Rotational constants (GHZ):      0.1345191      0.0631802      0.0445321
 Leave Link  202 at Wed Apr  8 22:20:27 2020, MaxMem= 2684354560 cpu:       0.0
 (Enter /opt/g09gh/gaussian/g09/l301.exe)
 Standard basis: 6-31G(d) (6D, 7F)
 Ernie: Thresh=  0.10000D-02 Tol=  0.10000D-05 Strict=F.
 There are   617 symmetry adapted basis functions of A   symmetry.
 Integral buffers will be    131072 words long.
 Raffenetti 2 integral format.
 Two-electron integral symmetry is turned on.
   617 basis functions,  1160 primitive gaussians,   617 cartesian basis functions
   131 alpha electrons      131 beta electrons
       nuclear repulsion energy      3792.9348943426 Hartrees.
 IExCor= 4639 DFT=T Ex+Corr=wB97XD ExCW=0 ScaHFX=  1.000000
 ScaDFX=  1.000000  1.000000  1.000000  1.000000 ScalE2=  1.000000  1.000000
 IRadAn=      0 IRanWt=     -1 IRanGd=            0 ICorTp=0
  HFx wShort=  0.000000 wLong=  0.200000 cFull=  0.222036 cShort=  0.000000 cLong=  0.777964
  DFx wShort=  0.000000 wLong=  0.200000 cFull=  0.000000 cShort=  0.000000 cLong=  1.000000
 NAtoms=   68 NActive=   68 NUniq=   68 SFac= 7.50D-01 NAtFMM=   80 NAOKFM=F Big=T
 R6Disp: Dispersion energy =        -0.0592003589 Hartrees.
 Nuclear repulsion after empirical dispersion term =     3792.8756939837 Hartrees.
 Leave Link  301 at Wed Apr  8 22:20:27 2020, MaxMem= 2684354560 cpu:       0.2
 (Enter /opt/g09gh/gaussian/g09/l302.exe)
 NPDir=0 NMtPBC=     1 NCelOv=     1 NCel=       1 NClECP=     1 NCelD=      1
         NCelK=      1 NCelE2=     1 NClLst=     1 CellRange=     0.0.
 One-electron integrals computed using PRISM.
 NBasis=   617 RedAO= T  NBF=   617
 NBsUse=   617 1.00D-06 NBFU=   617
 Precomputing XC quadrature grid using
 IXCGrd= 2 IRadAn=           0 IRanWt=          -1 IRanGd=           0 AccXCQ= 1.00D-10.
 NRdTot=    4373 NPtTot=      558940 NUsed=      590448 NTot=      590480
 NSgBfM=   606   606   606   606   606 NAtAll=    68    68.
 Leave Link  302 at Wed Apr  8 22:20:29 2020, MaxMem= 2684354560 cpu:       7.6
 (Enter /opt/g09gh/gaussian/g09/l303.exe)
 DipDrv:  MaxL=1.
 Leave Link  303 at Wed Apr  8 22:20:29 2020, MaxMem= 2684354560 cpu:       0.5
 (Enter /opt/g09gh/gaussian/g09/l401.exe)
 Harris functional with IExCor= 4639 diagonalized for initial guess.
 ExpMin= 1.61D-01 ExpMax= 5.48D+03 ExpMxC= 8.25D+02 IAcc=1 IRadAn=         1 AccDes= 0.00D+00
 HarFok:  IExCor= 4639 AccDes= 0.00D+00 IRadAn=         1 IDoV= 1
 ScaDFX=  1.000000  1.000000  1.000000  1.000000
 FoFCou: FMM=F IPFlag=           0 FMFlag=      100000 FMFlg1=           1
         NFxFlg=           0 DoJE=T BraDBF=F KetDBF=T FulRan=T
         Omega=  0.000000  0.000000  1.000000  0.000000  0.000000 ICntrl=     500 IOpCl=  0
         NMat0=    1 NMatS0=    1 NMatT0=    0 NMatD0=    1 NMtDS0=    0 NMtDT0=    0
         I1Cent=           4 NGrid=           0.
 Petite list used in FoFCou.
 Harris En= -1512.40842019466    
 Initial guess orbital symmetries:
       Occupied  (A) (A) (A) (A) (A) (A) (A) (A) (A) (A) (A) (A)
                 (A) (A) (A) (A) (A) (A) (A) (A) (A) (A) (A) (A)
                 (A) (A) (A) (A) (A) (A) (A) (A) (A) (A) (A) (A)
                 (A) (A) (A) (A) (A) (A) (A) (A) (A) (A) (A) (A)
                 (A) (A) (A) (A) (A) (A) (A) (A) (A) (A) (A) (A)
                 (A) (A) (A) (A) (A) (A) (A) (A) (A) (A) (A) (A)
                 (A) (A) (A) (A) (A) (A) (A) (A) (A) (A) (A) (A)
                 (A) (A) (A) (A) (A) (A) (A) (A) (A) (A) (A) (A)
                 (A) (A) (A) (A) (A) (A) (A) (A) (A) (A) (A) (A)
                 (A) (A) (A) (A) (A) (A) (A) (A) (A) (A) (A) (A)
                 (A) (A) (A) (A) (A) (A) (A) (A) (A) (A) (A)
       Virtual   (A) (A) (A) (A) (A) (A) (A) (A) (A) (A) (A) (A)
                 (A) (A) (A) (A) (A) (A) (A) (A) (A) (A) (A) (A)
                 (A) (A) (A) (A) (A) (A) (A) (A) (A) (A) (A) (A)
                 (A) (A) (A) (A) (A) (A) (A) (A) (A) (A) (A) (A)
                 (A) (A) (A) (A) (A) (A) (A) (A) (A) (A) (A) (A)
                 (A) (A) (A) (A) (A) (A) (A) (A) (A) (A) (A) (A)
                 (A) (A) (A) (A) (A) (A) (A) (A) (A) (A) (A) (A)
                 (A) (A) (A) (A) (A) (A) (A) (A) (A) (A) (A) (A)
                 (A) (A) (A) (A) (A) (A) (A) (A) (A) (A) (A) (A)
                 (A) (A) (A) (A) (A) (A) (A) (A) (A) (A) (A) (A)
                 (A) (A) (A) (A) (A) (A) (A) (A) (A) (A) (A) (A)
                 (A) (A) (A) (A) (A) (A) (A) (A) (A) (A) (A) (A)
                 (A) (A) (A) (A) (A) (A) (A) (A) (A) (A) (A) (A)
                 (A) (A) (A) (A) (A) (A) (A) (A) (A) (A) (A) (A)
                 (A) (A) (A) (A) (A) (A) (A) (A) (A) (A) (A) (A)
                 (A) (A) (A) (A) (A) (A) (A) (A) (A) (A) (A) (A)
                 (A) (A) (A) (A) (A) (A) (A) (A) (A) (A) (A) (A)
                 (A) (A) (A) (A) (A) (A) (A) (A) (A) (A) (A) (A)
                 (A) (A) (A) (A) (A) (A) (A) (A) (A) (A) (A) (A)
                 (A) (A) (A) (A) (A) (A) (A) (A) (A) (A) (A) (A)
                 (A) (A) (A) (A) (A) (A) (A) (A) (A) (A) (A) (A)
                 (A) (A) (A) (A) (A) (A) (A) (A) (A) (A) (A) (A)
                 (A) (A) (A) (A) (A) (A) (A) (A) (A) (A) (A) (A)
                 (A) (A) (A) (A) (A) (A) (A) (A) (A) (A) (A) (A)
                 (A) (A) (A) (A) (A) (A) (A) (A) (A) (A) (A) (A)
                 (A) (A) (A) (A) (A) (A) (A) (A) (A) (A) (A) (A)
                 (A) (A) (A) (A) (A) (A) (A) (A) (A) (A) (A) (A)
                 (A) (A) (A) (A) (A) (A) (A) (A) (A) (A) (A) (A)
                 (A) (A) (A) (A) (A) (A) (A) (A) (A) (A) (A) (A)
                 (A) (A) (A) (A) (A) (A) (A) (A) (A) (A) (A) (A)
                 (A) (A) (A) (A) (A) (A) (A) (A) (A) (A) (A) (A)
                 (A) (A) (A) (A) (A) (A) (A) (A) (A) (A) (A) (A)
                 (A) (A) (A) (A) (A) (A) (A) (A) (A) (A) (A) (A)
                 (A) (A) (A) (A) (A) (A) (A) (A) (A) (A) (A) (A)
                 (A) (A) (A) (A) (A) (A) (A) (A) (A) (A) (A) (A)
                 (A) (A) (A) (A) (A) (A) (A) (A) (A) (A) (A) (A)
                 (A) (A) (A) (A) (A) (A) (A) (A) (A) (A) (A) (A)
                 (A) (A) (A) (A) (A) (A) (A) (A) (A) (A) (A) (A)
                 (A) (A) (A) (A) (A) (A) (A) (A) (A) (A) (A) (A)
                 (A) (A) (A) (A) (A) (A) (A) (A) (A) (A) (A) (A)
                 (A) (A) (A) (A) (A) (A)
 The electronic state of the initial guess is 1-A.
 Leave Link  401 at Wed Apr  8 22:20:31 2020, MaxMem= 2684354560 cpu:      16.3
 (Enter /opt/g09gh/gaussian/g09/l502.exe)
 Closed shell SCF:
 Requested convergence on RMS density matrix=1.00D-08 within 128 cycles.
 Requested convergence on MAX density matrix=1.00D-06.
 Requested convergence on             energy=1.00D-06.
 No special actions if energy rises.
 Using DIIS extrapolation, IDIIS=  1040.
 Integral symmetry usage will be decided dynamically.
       589823 words used for storage of precomputed grid.
 IEnd=     1758403 IEndB=     1758403 NGot=  2684354560 MDV=  2682994104
 LenX=  2682994104 LenY=  2682612798
 Fock matrices will be formed incrementally for  20 cycles.
 Integral accuracy reduced to 1.0D-05 until final iterations.

 Cycle   1  Pass 0  IDiag  1:
 FoFJK:  IHMeth= 1 ICntrl=     0 DoSepK=T KAlg= 1 I1Cent= 0 FoldK=F
 FoFCou: FMM=T IPFlag=           0 FMFlag=      100000 FMFlg1=           1
         NFxFlg=           0 DoJE=T BraDBF=F KetDBF=F FulRan=T
         Omega=  0.000000  0.000000  1.000000  0.000000  0.000000 ICntrl=     500 IOpCl=  0
         NMat0=    1 NMatS0=    1 NMatT0=    0 NMatD0=    1 NMtDS0=    0 NMtDT0=    0
         I1Cent=           0 NGrid=           0.
 Symmetry not used in FoFCou.
 FMM levels:  10  Number of levels for PrismC:   9
 E= -1581.14347065514    
 DIIS: error= 7.19D-02 at cycle   1 NSaved=   1.
 NSaved= 1 IEnMin= 1 EnMin= -1581.14347065514     IErMin= 1 ErrMin= 7.19D-02
 ErrMax= 7.19D-02 EMaxC= 1.00D-01 BMatC= 1.46D+00 BMatP= 1.46D+00
 IDIUse=3 WtCom= 2.81D-01 WtEn= 7.19D-01
 Coeff-Com:  0.100D+01
 Coeff-En:   0.100D+01
 Coeff:      0.100D+01
 Gap=     0.294 Goal=   None    Shift=    0.000
 GapD=    0.294 DampG=1.000 DampE=0.500 DampFc=0.5000 IDamp=-1.
 Damping current iteration by 5.00D-01
 RMSDP=1.89D-03 MaxDP=8.90D-02              OVMax= 1.68D-01

 Cycle   2  Pass 0  IDiag  1:
 RMSU=  6.69D-04    CP:  1.00D+00
 FoFJK:  IHMeth= 1 ICntrl=     0 DoSepK=T KAlg= 1 I1Cent= 0 FoldK=F
 E= -1581.32138852414     Delta-E=       -0.177917868995 Rises=F Damp=T
 DIIS: error= 3.63D-02 at cycle   2 NSaved=   2.
 NSaved= 2 IEnMin= 2 EnMin= -1581.32138852414     IErMin= 2 ErrMin= 3.63D-02
 ErrMax= 3.63D-02 EMaxC= 1.00D-01 BMatC= 3.22D-01 BMatP= 1.46D+00
 IDIUse=3 WtCom= 6.37D-01 WtEn= 3.63D-01
 Coeff-Com: -0.650D+00 0.165D+01
 Coeff-En:   0.000D+00 0.100D+01
 Coeff:     -0.414D+00 0.141D+01
 Gap=     0.293 Goal=   None    Shift=    0.000
 RMSDP=8.56D-04 MaxDP=3.89D-02 DE=-1.78D-01 OVMax= 1.17D-01

 Cycle   3  Pass 0  IDiag  1:
 RMSU=  5.48D-04    CP:  1.00D+00  1.38D+00
 FoFJK:  IHMeth= 1 ICntrl=     0 DoSepK=T KAlg= 1 I1Cent= 0 FoldK=F
 E= -1581.46239784119     Delta-E=       -0.141009317047 Rises=F Damp=F
 DIIS: error= 8.50D-03 at cycle   3 NSaved=   3.
 NSaved= 3 IEnMin= 3 EnMin= -1581.46239784119     IErMin= 3 ErrMin= 8.50D-03
 ErrMax= 8.50D-03 EMaxC= 1.00D-01 BMatC= 5.17D-02 BMatP= 3.22D-01
 IDIUse=3 WtCom= 9.15D-01 WtEn= 8.50D-02
 Coeff-Com: -0.340D+00 0.705D+00 0.635D+00
 Coeff-En:   0.000D+00 0.000D+00 0.100D+01
 Coeff:     -0.311D+00 0.645D+00 0.666D+00
 Gap=     0.278 Goal=   None    Shift=    0.000
 RMSDP=4.43D-04 MaxDP=3.02D-02 DE=-1.41D-01 OVMax= 5.81D-02

 Cycle   4  Pass 0  IDiag  1:
 RMSU=  1.43D-04    CP:  1.00D+00  1.66D+00  6.19D-01
 FoFJK:  IHMeth= 1 ICntrl=     0 DoSepK=T KAlg= 1 I1Cent= 0 FoldK=F
 E= -1581.50798591782     Delta-E=       -0.045588076637 Rises=F Damp=F
 DIIS: error= 2.97D-03 at cycle   4 NSaved=   4.
 NSaved= 4 IEnMin= 4 EnMin= -1581.50798591782     IErMin= 4 ErrMin= 2.97D-03
 ErrMax= 2.97D-03 EMaxC= 1.00D-01 BMatC= 3.69D-03 BMatP= 5.17D-02
 IDIUse=3 WtCom= 9.70D-01 WtEn= 2.97D-02
 Coeff-Com: -0.151D+00 0.307D+00 0.358D+00 0.485D+00
 Coeff-En:   0.000D+00 0.000D+00 0.000D+00 0.100D+01
 Coeff:     -0.146D+00 0.298D+00 0.348D+00 0.500D+00
 Gap=     0.271 Goal=   None    Shift=    0.000
 RMSDP=1.01D-04 MaxDP=9.46D-03 DE=-4.56D-02 OVMax= 1.06D-02

 Cycle   5  Pass 0  IDiag  1:
 RMSU=  4.49D-05    CP:  1.00D+00  1.64D+00  6.86D-01  7.18D-01
 FoFJK:  IHMeth= 1 ICntrl=     0 DoSepK=T KAlg= 1 I1Cent= 0 FoldK=F
 E= -1581.51116202969     Delta-E=       -0.003176111869 Rises=F Damp=F
 DIIS: error= 5.87D-04 at cycle   5 NSaved=   5.
 NSaved= 5 IEnMin= 5 EnMin= -1581.51116202969     IErMin= 5 ErrMin= 5.87D-04
 ErrMax= 5.87D-04 EMaxC= 1.00D-01 BMatC= 9.84D-05 BMatP= 3.69D-03
 IDIUse=3 WtCom= 9.94D-01 WtEn= 5.87D-03
 Coeff-Com: -0.163D-01 0.323D-01 0.609D-01 0.172D+00 0.751D+00
 Coeff-En:   0.000D+00 0.000D+00 0.000D+00 0.000D+00 0.100D+01
 Coeff:     -0.162D-01 0.321D-01 0.606D-01 0.171D+00 0.752D+00
 Gap=     0.270 Goal=   None    Shift=    0.000
 RMSDP=2.37D-05 MaxDP=2.67D-03 DE=-3.18D-03 OVMax= 2.70D-03

 Cycle   6  Pass 0  IDiag  1:
 RMSU=  1.29D-05    CP:  1.00D+00  1.65D+00  6.92D-01  7.83D-01  9.77D-01
 FoFJK:  IHMeth= 1 ICntrl=     0 DoSepK=T KAlg= 1 I1Cent= 0 FoldK=F
 E= -1581.51125375213     Delta-E=       -0.000091722434 Rises=F Damp=F
 DIIS: error= 2.33D-04 at cycle   6 NSaved=   6.
 NSaved= 6 IEnMin= 6 EnMin= -1581.51125375213     IErMin= 6 ErrMin= 2.33D-04
 ErrMax= 2.33D-04 EMaxC= 1.00D-01 BMatC= 2.59D-05 BMatP= 9.84D-05
 IDIUse=3 WtCom= 9.98D-01 WtEn= 2.33D-03
 Coeff-Com:  0.218D-01-0.452D-01-0.382D-01-0.119D-01 0.380D+00 0.694D+00
 Coeff-En:   0.000D+00 0.000D+00 0.000D+00 0.000D+00 0.000D+00 0.100D+01
 Coeff:      0.218D-01-0.451D-01-0.381D-01-0.119D-01 0.379D+00 0.695D+00
 Gap=     0.271 Goal=   None    Shift=    0.000
 RMSDP=1.31D-05 MaxDP=9.12D-04 DE=-9.17D-05 OVMax= 1.67D-03

 Cycle   7  Pass 0  IDiag  1:
 RMSU=  5.49D-06    CP:  1.00D+00  1.65D+00  6.96D-01  8.12D-01  1.09D+00
                    CP:  8.82D-01
 FoFJK:  IHMeth= 1 ICntrl=     0 DoSepK=T KAlg= 1 I1Cent= 0 FoldK=F
 E= -1581.51128287789     Delta-E=       -0.000029125764 Rises=F Damp=F
 DIIS: error= 6.15D-05 at cycle   7 NSaved=   7.
 NSaved= 7 IEnMin= 7 EnMin= -1581.51128287789     IErMin= 7 ErrMin= 6.15D-05
 ErrMax= 6.15D-05 EMaxC= 1.00D-01 BMatC= 1.58D-06 BMatP= 2.59D-05
 IDIUse=1 WtCom= 1.00D+00 WtEn= 0.00D+00
 Coeff-Com:  0.915D-02-0.187D-01-0.180D-01-0.192D-01 0.653D-01 0.240D+00
 Coeff-Com:  0.741D+00
 Coeff:      0.915D-02-0.187D-01-0.180D-01-0.192D-01 0.653D-01 0.240D+00
 Coeff:      0.741D+00
 Gap=     0.271 Goal=   None    Shift=    0.000
 RMSDP=3.83D-06 MaxDP=2.49D-04 DE=-2.91D-05 OVMax= 6.33D-04

 Initial convergence to 1.0D-05 achieved.  Increase integral accuracy.
 Cycle   8  Pass 1  IDiag  1:
 FoFJK:  IHMeth= 1 ICntrl=     0 DoSepK=T KAlg= 1 I1Cent= 0 FoldK=F
 E= -1581.50959620642     Delta-E=        0.001686671468 Rises=F Damp=F
 DIIS: error= 9.06D-05 at cycle   1 NSaved=   1.
 NSaved= 1 IEnMin= 1 EnMin= -1581.50959620642     IErMin= 1 ErrMin= 9.06D-05
 ErrMax= 9.06D-05 EMaxC= 1.00D-01 BMatC= 1.41D-05 BMatP= 1.41D-05
 IDIUse=1 WtCom= 1.00D+00 WtEn= 0.00D+00
 Coeff-Com:  0.100D+01
 Coeff:      0.100D+01
 Gap=     0.271 Goal=   None    Shift=    0.000
 RMSDP=3.83D-06 MaxDP=2.49D-04 DE= 1.69D-03 OVMax= 4.25D-04

 Cycle   9  Pass 1  IDiag  1:
 RMSU=  2.19D-05    CP:  1.00D+00
 FoFJK:  IHMeth= 1 ICntrl=     0 DoSepK=T KAlg= 1 I1Cent= 0 FoldK=F
 E= -1581.50960787130     Delta-E=       -0.000011664878 Rises=F Damp=F
 DIIS: error= 3.25D-05 at cycle   2 NSaved=   2.
 NSaved= 2 IEnMin= 2 EnMin= -1581.50960787130     IErMin= 2 ErrMin= 3.25D-05
 ErrMax= 3.25D-05 EMaxC= 1.00D-01 BMatC= 7.87D-07 BMatP= 1.41D-05
 IDIUse=1 WtCom= 1.00D+00 WtEn= 0.00D+00
 Coeff-Com:  0.279D-01 0.972D+00
 Coeff:      0.279D-01 0.972D+00
 Gap=     0.271 Goal=   None    Shift=    0.000
 RMSDP=3.40D-06 MaxDP=2.20D-04 DE=-1.17D-05 OVMax= 3.37D-04

 Cycle  10  Pass 1  IDiag  1:
 RMSU=  2.17D-06    CP:  1.00D+00  1.05D+00
 FoFJK:  IHMeth= 1 ICntrl=     0 DoSepK=T KAlg= 1 I1Cent= 0 FoldK=F
 E= -1581.50960791042     Delta-E=       -0.000000039122 Rises=F Damp=F
 DIIS: error= 3.55D-05 at cycle   3 NSaved=   3.
 NSaved= 3 IEnMin= 3 EnMin= -1581.50960791042     IErMin= 2 ErrMin= 3.25D-05
 ErrMax= 3.55D-05 EMaxC= 1.00D-01 BMatC= 9.64D-07 BMatP= 7.87D-07
 IDIUse=1 WtCom= 1.00D+00 WtEn= 0.00D+00
 Coeff-Com: -0.405D-01 0.544D+00 0.497D+00
 Coeff:     -0.405D-01 0.544D+00 0.497D+00
 Gap=     0.271 Goal=   None    Shift=    0.000
 RMSDP=1.62D-06 MaxDP=1.29D-04 DE=-3.91D-08 OVMax= 1.75D-04

 Cycle  11  Pass 1  IDiag  1:
 RMSU=  6.30D-07    CP:  1.00D+00  1.06D+00  5.67D-01
 FoFJK:  IHMeth= 1 ICntrl=     0 DoSepK=T KAlg= 1 I1Cent= 0 FoldK=F
 E= -1581.50960877885     Delta-E=       -0.000000868426 Rises=F Damp=F
 DIIS: error= 7.90D-06 at cycle   4 NSaved=   4.
 NSaved= 4 IEnMin= 4 EnMin= -1581.50960877885     IErMin= 4 ErrMin= 7.90D-06
 ErrMax= 7.90D-06 EMaxC= 1.00D-01 BMatC= 2.04D-08 BMatP= 7.87D-07
 IDIUse=1 WtCom= 1.00D+00 WtEn= 0.00D+00
 Coeff-Com: -0.154D-01 0.110D+00 0.158D+00 0.747D+00
 Coeff:     -0.154D-01 0.110D+00 0.158D+00 0.747D+00
 Gap=     0.271 Goal=   None    Shift=    0.000
 RMSDP=3.36D-07 MaxDP=3.45D-05 DE=-8.68D-07 OVMax= 3.75D-05

 Cycle  12  Pass 1  IDiag  1:
 RMSU=  2.14D-07    CP:  1.00D+00  1.06D+00  6.11D-01  1.05D+00
 FoFJK:  IHMeth= 1 ICntrl=     0 DoSepK=T KAlg= 1 I1Cent= 0 FoldK=F
 E= -1581.50960879856     Delta-E=       -0.000000019713 Rises=F Damp=F
 DIIS: error= 4.24D-06 at cycle   5 NSaved=   5.
 NSaved= 5 IEnMin= 5 EnMin= -1581.50960879856     IErMin= 5 ErrMin= 4.24D-06
 ErrMax= 4.24D-06 EMaxC= 1.00D-01 BMatC= 5.74D-09 BMatP= 2.04D-08
 IDIUse=1 WtCom= 1.00D+00 WtEn= 0.00D+00
 Coeff-Com: -0.185D-03-0.388D-01-0.815D-02 0.358D+00 0.689D+00
 Coeff:     -0.185D-03-0.388D-01-0.815D-02 0.358D+00 0.689D+00
 Gap=     0.271 Goal=   None    Shift=    0.000
 RMSDP=1.71D-07 MaxDP=1.50D-05 DE=-1.97D-08 OVMax= 2.16D-05

 Cycle  13  Pass 1  IDiag  1:
 RMSU=  8.47D-08    CP:  1.00D+00  1.06D+00  6.27D-01  1.17D+00  8.86D-01
 FoFJK:  IHMeth= 1 ICntrl=     0 DoSepK=T KAlg= 1 I1Cent= 0 FoldK=F
 E= -1581.50960880538     Delta-E=       -0.000000006817 Rises=F Damp=F
 DIIS: error= 1.02D-06 at cycle   6 NSaved=   6.
 NSaved= 6 IEnMin= 6 EnMin= -1581.50960880538     IErMin= 6 ErrMin= 1.02D-06
 ErrMax= 1.02D-06 EMaxC= 1.00D-01 BMatC= 5.48D-10 BMatP= 5.74D-09
 IDIUse=1 WtCom= 1.00D+00 WtEn= 0.00D+00
 Coeff-Com:  0.177D-02-0.275D-01-0.223D-01 0.410D-01 0.256D+00 0.751D+00
 Coeff:      0.177D-02-0.275D-01-0.223D-01 0.410D-01 0.256D+00 0.751D+00
 Gap=     0.271 Goal=   None    Shift=    0.000
 RMSDP=7.29D-08 MaxDP=3.32D-06 DE=-6.82D-09 OVMax= 1.45D-05

 Cycle  14  Pass 1  IDiag  1:
 RMSU=  3.56D-08    CP:  1.00D+00  1.06D+00  6.29D-01  1.21D+00  1.00D+00
                    CP:  1.04D+00
 FoFJK:  IHMeth= 1 ICntrl=     0 DoSepK=T KAlg= 1 I1Cent= 0 FoldK=F
 E= -1581.50960880646     Delta-E=       -0.000000001081 Rises=F Damp=F
 DIIS: error= 3.70D-07 at cycle   7 NSaved=   7.
 NSaved= 7 IEnMin= 7 EnMin= -1581.50960880646     IErMin= 7 ErrMin= 3.70D-07
 ErrMax= 3.70D-07 EMaxC= 1.00D-01 BMatC= 1.09D-10 BMatP= 5.48D-10
 IDIUse=1 WtCom= 1.00D+00 WtEn= 0.00D+00
 Coeff-Com:  0.715D-03-0.348D-02-0.768D-02-0.559D-01-0.303D-01 0.299D+00
 Coeff-Com:  0.798D+00
 Coeff:      0.715D-03-0.348D-02-0.768D-02-0.559D-01-0.303D-01 0.299D+00
 Coeff:      0.798D+00
 Gap=     0.271 Goal=   None    Shift=    0.000
 RMSDP=3.84D-08 MaxDP=1.62D-06 DE=-1.08D-09 OVMax= 7.50D-06

 Cycle  15  Pass 1  IDiag  1:
 RMSU=  1.39D-08    CP:  1.00D+00  1.06D+00  6.32D-01  1.23D+00  1.05D+00
                    CP:  1.24D+00  1.07D+00
 FoFJK:  IHMeth= 1 ICntrl=     0 DoSepK=T KAlg= 1 I1Cent= 0 FoldK=F
 E= -1581.50960880671     Delta-E=       -0.000000000255 Rises=F Damp=F
 DIIS: error= 1.17D-07 at cycle   8 NSaved=   8.
 NSaved= 8 IEnMin= 8 EnMin= -1581.50960880671     IErMin= 8 ErrMin= 1.17D-07
 ErrMax= 1.17D-07 EMaxC= 1.00D-01 BMatC= 1.59D-11 BMatP= 1.09D-10
 IDIUse=1 WtCom= 1.00D+00 WtEn= 0.00D+00
 Coeff-Com: -0.456D-04 0.333D-02 0.116D-02-0.251D-01-0.497D-01-0.261D-01
 Coeff-Com:  0.261D+00 0.836D+00
 Coeff:     -0.456D-04 0.333D-02 0.116D-02-0.251D-01-0.497D-01-0.261D-01
 Coeff:      0.261D+00 0.836D+00
 Gap=     0.271 Goal=   None    Shift=    0.000
 RMSDP=1.69D-08 MaxDP=8.52D-07 DE=-2.55D-10 OVMax= 4.29D-06

 Cycle  16  Pass 1  IDiag  1:
 RMSU=  6.36D-09    CP:  1.00D+00  1.06D+00  6.32D-01  1.23D+00  1.06D+00
                    CP:  1.30D+00  1.26D+00  1.14D+00
 FoFJK:  IHMeth= 1 ICntrl=     0 DoSepK=T KAlg= 1 I1Cent= 0 FoldK=F
 E= -1581.50960880668     Delta-E=        0.000000000039 Rises=F Damp=F
 DIIS: error= 6.20D-08 at cycle   9 NSaved=   9.
 NSaved= 9 IEnMin= 8 EnMin= -1581.50960880671     IErMin= 9 ErrMin= 6.20D-08
 ErrMax= 6.20D-08 EMaxC= 1.00D-01 BMatC= 3.40D-12 BMatP= 1.59D-11
 IDIUse=1 WtCom= 1.00D+00 WtEn= 0.00D+00
 Coeff-Com: -0.168D-03 0.199D-02 0.210D-02 0.235D-02-0.128D-01-0.758D-01
 Coeff-Com: -0.730D-01 0.310D+00 0.845D+00
 Coeff:     -0.168D-03 0.199D-02 0.210D-02 0.235D-02-0.128D-01-0.758D-01
 Coeff:     -0.730D-01 0.310D+00 0.845D+00
 Gap=     0.271 Goal=   None    Shift=    0.000
 RMSDP=8.27D-09 MaxDP=4.22D-07 DE= 3.91D-11 OVMax= 1.94D-06

 SCF Done:  E(RwB97XD) =  -1581.50960881     A.U. after   16 cycles
             Convg  =    0.8267D-08             -V/T =  2.0112
 KE= 1.563990712500D+03 PE=-1.125446656676D+04 EE= 4.316090551467D+03
 Leave Link  502 at Wed Apr  8 22:23:31 2020, MaxMem= 2684354560 cpu:    1077.3
 (Enter /opt/g09gh/gaussian/g09/l601.exe)
 Copying SCF densities to generalized density rwf, IOpCl= 0 IROHF=0.

 **********************************************************************

            Population analysis using the SCF density.

 **********************************************************************

 Orbital symmetries:
       Occupied  (A) (A) (A) (A) (A) (A) (A) (A) (A) (A) (A) (A)
                 (A) (A) (A) (A) (A) (A) (A) (A) (A) (A) (A) (A)
                 (A) (A) (A) (A) (A) (A) (A) (A) (A) (A) (A) (A)
                 (A) (A) (A) (A) (A) (A) (A) (A) (A) (A) (A) (A)
                 (A) (A) (A) (A) (A) (A) (A) (A) (A) (A) (A) (A)
                 (A) (A) (A) (A) (A) (A) (A) (A) (A) (A) (A) (A)
                 (A) (A) (A) (A) (A) (A) (A) (A) (A) (A) (A) (A)
                 (A) (A) (A) (A) (A) (A) (A) (A) (A) (A) (A) (A)
                 (A) (A) (A) (A) (A) (A) (A) (A) (A) (A) (A) (A)
                 (A) (A) (A) (A) (A) (A) (A) (A) (A) (A) (A) (A)
                 (A) (A) (A) (A) (A) (A) (A) (A) (A) (A) (A)
       Virtual   (A) (A) (A) (A) (A) (A) (A) (A) (A) (A) (A) (A)
                 (A) (A) (A) (A) (A) (A) (A) (A) (A) (A) (A) (A)
                 (A) (A) (A) (A) (A) (A) (A) (A) (A) (A) (A) (A)
                 (A) (A) (A) (A) (A) (A) (A) (A) (A) (A) (A) (A)
                 (A) (A) (A) (A) (A) (A) (A) (A) (A) (A) (A) (A)
                 (A) (A) (A) (A) (A) (A) (A) (A) (A) (A) (A) (A)
                 (A) (A) (A) (A) (A) (A) (A) (A) (A) (A) (A) (A)
                 (A) (A) (A) (A) (A) (A) (A) (A) (A) (A) (A) (A)
                 (A) (A) (A) (A) (A) (A) (A) (A) (A) (A) (A) (A)
                 (A) (A) (A) (A) (A) (A) (A) (A) (A) (A) (A) (A)
                 (A) (A) (A) (A) (A) (A) (A) (A) (A) (A) (A) (A)
                 (A) (A) (A) (A) (A) (A) (A) (A) (A) (A) (A) (A)
                 (A) (A) (A) (A) (A) (A) (A) (A) (A) (A) (A) (A)
                 (A) (A) (A) (A) (A) (A) (A) (A) (A) (A) (A) (A)
                 (A) (A) (A) (A) (A) (A) (A) (A) (A) (A) (A) (A)
                 (A) (A) (A) (A) (A) (A) (A) (A) (A) (A) (A) (A)
                 (A) (A) (A) (A) (A) (A) (A) (A) (A) (A) (A) (A)
                 (A) (A) (A) (A) (A) (A) (A) (A) (A) (A) (A) (A)
                 (A) (A) (A) (A) (A) (A) (A) (A) (A) (A) (A) (A)
                 (A) (A) (A) (A) (A) (A) (A) (A) (A) (A) (A) (A)
                 (A) (A) (A) (A) (A) (A) (A) (A) (A) (A) (A) (A)
                 (A) (A) (A) (A) (A) (A) (A) (A) (A) (A) (A) (A)
                 (A) (A) (A) (A) (A) (A) (A) (A) (A) (A) (A) (A)
                 (A) (A) (A) (A) (A) (A) (A) (A) (A) (A) (A) (A)
                 (A) (A) (A) (A) (A) (A) (A) (A) (A) (A) (A) (A)
                 (A) (A) (A) (A) (A) (A) (A) (A) (A) (A) (A) (A)
                 (A) (A) (A) (A) (A) (A) (A) (A) (A) (A) (A) (A)
                 (A) (A) (A) (A) (A) (A) (A) (A) (A) (A) (A) (A)
                 (A) (A) (A) (A) (A) (A) (A) (A) (A) (A) (A) (A)
                 (A) (A) (A) (A) (A) (A) (A) (A) (A) (A) (A) (A)
                 (A) (A) (A) (A) (A) (A) (A) (A) (A) (A) (A) (A)
                 (A) (A) (A) (A) (A) (A) (A) (A) (A) (A) (A) (A)
                 (A) (A) (A) (A) (A) (A) (A) (A) (A) (A) (A) (A)
                 (A) (A) (A) (A) (A) (A) (A) (A) (A) (A) (A) (A)
                 (A) (A) (A) (A) (A) (A) (A) (A) (A) (A) (A) (A)
                 (A) (A) (A) (A) (A) (A) (A) (A) (A) (A) (A) (A)
                 (A) (A) (A) (A) (A) (A) (A) (A) (A) (A) (A) (A)
                 (A) (A) (A) (A) (A) (A) (A) (A) (A) (A) (A) (A)
                 (A) (A) (A) (A) (A) (A) (A) (A) (A) (A) (A) (A)
                 (A) (A) (A) (A) (A) (A) (A) (A) (A) (A) (A) (A)
                 (A) (A) (A) (A) (A) (A)
 The electronic state is 1-A.
 Alpha  occ. eigenvalues --  -19.23835 -14.49145 -14.49022 -14.46524 -14.46138
 Alpha  occ. eigenvalues --  -14.45598 -14.45165 -14.45045 -10.41494 -10.40670
 Alpha  occ. eigenvalues --  -10.37620 -10.37569 -10.37382 -10.37255 -10.37162
 Alpha  occ. eigenvalues --  -10.35933 -10.35671 -10.34891 -10.33942 -10.33882
 Alpha  occ. eigenvalues --  -10.33262 -10.33219 -10.33081 -10.32333 -10.31822
 Alpha  occ. eigenvalues --  -10.31678 -10.31637 -10.31571 -10.31288 -10.31264
 Alpha  occ. eigenvalues --  -10.31199 -10.31054 -10.30985 -10.30103 -10.30040
 Alpha  occ. eigenvalues --  -10.29602 -10.29028  -1.13792  -1.11193  -1.04251
 Alpha  occ. eigenvalues --   -1.03840  -1.03518  -1.02886  -1.00211  -0.99577
 Alpha  occ. eigenvalues --   -0.96089  -0.94387  -0.91520  -0.88714  -0.87925
 Alpha  occ. eigenvalues --   -0.86376  -0.86026  -0.84931  -0.83604  -0.83234
 Alpha  occ. eigenvalues --   -0.82187  -0.79655  -0.78145  -0.77070  -0.75512
 Alpha  occ. eigenvalues --   -0.72834  -0.72452  -0.71599  -0.71278  -0.70586
 Alpha  occ. eigenvalues --   -0.70276  -0.69323  -0.68013  -0.66225  -0.64193
 Alpha  occ. eigenvalues --   -0.62742  -0.62214  -0.60771  -0.60221  -0.59421
 Alpha  occ. eigenvalues --   -0.57976  -0.57745  -0.56842  -0.56259  -0.55767
 Alpha  occ. eigenvalues --   -0.55439  -0.55088  -0.54539  -0.54339  -0.54054
 Alpha  occ. eigenvalues --   -0.53413  -0.52857  -0.52337  -0.51683  -0.51336
 Alpha  occ. eigenvalues --   -0.51139  -0.50990  -0.50683  -0.50643  -0.50459
 Alpha  occ. eigenvalues --   -0.49709  -0.49373  -0.49027  -0.48720  -0.48490
 Alpha  occ. eigenvalues --   -0.47339  -0.46732  -0.45856  -0.45534  -0.45340
 Alpha  occ. eigenvalues --   -0.45088  -0.44805  -0.44779  -0.44366  -0.43839
 Alpha  occ. eigenvalues --   -0.43236  -0.42772  -0.41994  -0.40998  -0.40874
 Alpha  occ. eigenvalues --   -0.39645  -0.38647  -0.37772  -0.36431  -0.35848
 Alpha  occ. eigenvalues --   -0.34674  -0.34413  -0.34143  -0.32957  -0.32920
 Alpha  occ. eigenvalues --   -0.32334  -0.31982  -0.31425  -0.29319  -0.27310
 Alpha  occ. eigenvalues --   -0.26881
 Alpha virt. eigenvalues --    0.00221   0.03753   0.05018   0.05227   0.05898
 Alpha virt. eigenvalues --    0.06416   0.08045   0.08140   0.10165   0.11404
 Alpha virt. eigenvalues --    0.12148   0.12584   0.14330   0.14773   0.15556
 Alpha virt. eigenvalues --    0.16144   0.16592   0.17287   0.17739   0.18753
 Alpha virt. eigenvalues --    0.19413   0.19558   0.19840   0.20686   0.20772
 Alpha virt. eigenvalues --    0.21535   0.22705   0.23146   0.23470   0.23521
 Alpha virt. eigenvalues --    0.23860   0.24269   0.24567   0.24681   0.25407
 Alpha virt. eigenvalues --    0.25908   0.26013   0.26196   0.26475   0.26926
 Alpha virt. eigenvalues --    0.27511   0.27744   0.27803   0.28491   0.28666
 Alpha virt. eigenvalues --    0.29182   0.29463   0.29978   0.30599   0.31099
 Alpha virt. eigenvalues --    0.31321   0.32100   0.32609   0.32753   0.33499
 Alpha virt. eigenvalues --    0.33975   0.34744   0.35126   0.36809   0.37459
 Alpha virt. eigenvalues --    0.37568   0.38093   0.38969   0.39344   0.39851
 Alpha virt. eigenvalues --    0.40308   0.40906   0.41255   0.41886   0.42683
 Alpha virt. eigenvalues --    0.43791   0.44861   0.45382   0.46465   0.47346
 Alpha virt. eigenvalues --    0.48415   0.49785   0.51225   0.52865   0.54108
 Alpha virt. eigenvalues --    0.55197   0.55790   0.56473   0.57282   0.57846
 Alpha virt. eigenvalues --    0.58147   0.58727   0.58853   0.59252   0.60111
 Alpha virt. eigenvalues --    0.60192   0.60488   0.61170   0.61543   0.61951
 Alpha virt. eigenvalues --    0.62350   0.62414   0.63184   0.63745   0.63927
 Alpha virt. eigenvalues --    0.64144   0.64562   0.65140   0.65287   0.65533
 Alpha virt. eigenvalues --    0.65982   0.66400   0.66556   0.66620   0.66792
 Alpha virt. eigenvalues --    0.67014   0.67232   0.67394   0.68280   0.68421
 Alpha virt. eigenvalues --    0.68772   0.69030   0.69386   0.70106   0.70513
 Alpha virt. eigenvalues --    0.70705   0.71252   0.71415   0.71695   0.72324
 Alpha virt. eigenvalues --    0.72852   0.72963   0.73297   0.73873   0.74379
 Alpha virt. eigenvalues --    0.74711   0.74950   0.75380   0.76002   0.76683
 Alpha virt. eigenvalues --    0.77088   0.77681   0.79208   0.79996   0.80284
 Alpha virt. eigenvalues --    0.80706   0.81104   0.81799   0.82418   0.82849
 Alpha virt. eigenvalues --    0.83491   0.83789   0.83916   0.84278   0.85424
 Alpha virt. eigenvalues --    0.85624   0.86214   0.86565   0.88225   0.88501
 Alpha virt. eigenvalues --    0.88698   0.88997   0.89338   0.89889   0.90042
 Alpha virt. eigenvalues --    0.90240   0.90735   0.90927   0.91374   0.91980
 Alpha virt. eigenvalues --    0.92456   0.93125   0.93373   0.93918   0.94150
 Alpha virt. eigenvalues --    0.94394   0.94545   0.94760   0.95144   0.95505
 Alpha virt. eigenvalues --    0.95672   0.96305   0.97223   0.97917   0.98422
 Alpha virt. eigenvalues --    0.98565   0.98843   0.99307   0.99533   1.00346
 Alpha virt. eigenvalues --    1.00688   1.01153   1.01640   1.02321   1.02513
 Alpha virt. eigenvalues --    1.03063   1.03538   1.04201   1.05555   1.05975
 Alpha virt. eigenvalues --    1.06875   1.06985   1.07413   1.07625   1.08673
[...]
                 (A) (A) (A) (A) (A) (A) (A) (A) (A) (A) (A) (A)
                 (A) (A) (A) (A) (A) (A) (A) (A) (A) (A) (A) (A)
                 (A) (A) (A) (A) (A) (A) (A) (A) (A) (A) (A) (A)
                 (A) (A) (A) (A) (A) (A) (A) (A) (A) (A) (A) (A)
                 (A) (A) (A) (A) (A) (A) (A) (A) (A) (A) (A) (A)
                 (A) (A) (A) (A) (A) (A) (A) (A) (A) (A) (A) (A)
                 (A) (A) (A) (A) (A) (A) (A) (A) (A) (A) (A) (A)
                 (A) (A) (A) (A) (A) (A) (A) (A) (A) (A) (A) (A)
                 (A) (A) (A) (A) (A) (A) (A) (A) (A) (A) (A) (A)
                 (A) (A) (A) (A) (A) (A) (A) (A) (A) (A) (A) (A)
                 (A) (A) (A) (A) (A) (A) (A) (A) (A) (A) (A) (A)
                 (A) (A) (A) (A) (A) (A) (A) (A) (A) (A) (A) (A)
                 (A) (A) (A) (A) (A) (A) (A) (A) (A) (A) (A) (A)
                 (A) (A) (A) (A) (A) (A) (A) (A) (A) (A) (A) (A)
                 (A) (A) (A) (A) (A) (A) (A) (A) (A) (A) (A) (A)
                 (A) (A) (A) (A) (A) (A) (A) (A) (A) (A) (A) (A)
                 (A) (A) (A) (A) (A) (A) (A) (A) (A) (A) (A) (A)
                 (A) (A) (A) (A) (A) (A) (A) (A) (A) (A) (A) (A)
                 (A) (A) (A) (A) (A) (A) (A) (A) (A) (A) (A) (A)
                 (A) (A) (A) (A) (A) (A) (A) (A) (A) (A) (A) (A)
                 (A) (A) (A) (A) (A) (A) (A) (A) (A) (A) (A) (A)
                 (A) (A) (A) (A) (A) (A) (A) (A) (A) (A) (A) (A)
                 (A) (A) (A) (A) (A) (A) (A) (A) (A) (A) (A) (A)
                 (A) (A) (A) (A) (A) (A) (A) (A) (A) (A) (A) (A)
                 (A) (A) (A) (A) (A) (A) (A) (A) (A) (A) (A) (A)
                 (A) (A) (A) (A) (A) (A) (A) (A) (A) (A) (A) (A)
                 (A) (A) (A) (A) (A) (A) (A) (A) (A) (A) (A) (A)
                 (A) (A) (A) (A) (A) (A) (A) (A) (A) (A) (A) (A)
                 (A) (A) (A) (A) (A) (A) (A) (A) (A) (A) (A) (A)
                 (A) (A) (A) (A) (A) (A) (A) (A) (A) (A) (A) (A)
                 (A) (A) (A) (A) (A) (A) (A) (A) (A) (A) (A) (A)
                 (A) (A) (A) (A) (A) (A) (A) (A) (A) (A) (A) (A)
                 (A) (A) (A) (A) (A) (A) (A) (A) (A) (A) (A) (A)
                 (A) (A) (A) (A) (A) (A)
 The electronic state is 1-A.
 Alpha  occ. eigenvalues --  -19.23556 -14.48723 -14.48567 -14.45460 -14.44977
 Alpha  occ. eigenvalues --  -14.44765 -14.44138 -14.43887 -10.41116 -10.40304
 Alpha  occ. eigenvalues --  -10.36857 -10.35717 -10.34350 -10.33982 -10.33482
 Alpha  occ. eigenvalues --  -10.32915 -10.32837 -10.32722 -10.32242 -10.31838
 Alpha  occ. eigenvalues --  -10.31575 -10.31415 -10.31339 -10.31311 -10.31297
 Alpha  occ. eigenvalues --  -10.31273 -10.31169 -10.31106 -10.30973 -10.30726
 Alpha  occ. eigenvalues --  -10.30583 -10.30492 -10.30242 -10.29844 -10.29421
 Alpha  occ. eigenvalues --  -10.28840 -10.28339  -1.13694  -1.11703  -1.04647
 Alpha  occ. eigenvalues --   -1.04395  -1.04049  -1.03464  -1.00138  -1.00023
 Alpha  occ. eigenvalues --   -0.96429  -0.94465  -0.91892  -0.88887  -0.88039
 Alpha  occ. eigenvalues --   -0.86392  -0.86118  -0.85845  -0.85004  -0.83467
 Alpha  occ. eigenvalues --   -0.82347  -0.79696  -0.78120  -0.77202  -0.75695
 Alpha  occ. eigenvalues --   -0.73776  -0.73098  -0.72603  -0.71673  -0.71038
 Alpha  occ. eigenvalues --   -0.70627  -0.69356  -0.68046  -0.66243  -0.64617
 Alpha  occ. eigenvalues --   -0.64071  -0.62982  -0.62089  -0.60747  -0.59869
 Alpha  occ. eigenvalues --   -0.58435  -0.57890  -0.56934  -0.56375  -0.55760
 Alpha  occ. eigenvalues --   -0.55570  -0.55417  -0.54931  -0.54689  -0.54306
 Alpha  occ. eigenvalues --   -0.54048  -0.53541  -0.53294  -0.52910  -0.52324
 Alpha  occ. eigenvalues --   -0.51325  -0.51263  -0.50941  -0.50650  -0.50494
 Alpha  occ. eigenvalues --   -0.50265  -0.49625  -0.49164  -0.48818  -0.48575
 Alpha  occ. eigenvalues --   -0.47283  -0.47189  -0.46797  -0.46459  -0.45869
 Alpha  occ. eigenvalues --   -0.45413  -0.45207  -0.44747  -0.44207  -0.43766
 Alpha  occ. eigenvalues --   -0.43346  -0.42640  -0.42508  -0.41969  -0.41447
 Alpha  occ. eigenvalues --   -0.41370  -0.40931  -0.39490  -0.37745  -0.36534
 Alpha  occ. eigenvalues --   -0.34521  -0.34376  -0.33745  -0.33305  -0.32953
 Alpha  occ. eigenvalues --   -0.32254  -0.32164  -0.31175  -0.28988  -0.27016
 Alpha  occ. eigenvalues --   -0.25577
 Alpha virt. eigenvalues --    0.00605   0.03184   0.04123   0.05506   0.06078
 Alpha virt. eigenvalues --    0.08110   0.08593   0.10659   0.14270   0.15048
 Alpha virt. eigenvalues --    0.16204   0.16663   0.16933   0.18005   0.18857
 Alpha virt. eigenvalues --    0.19193   0.19647   0.20238   0.20553   0.21049
 Alpha virt. eigenvalues --    0.21432   0.21923   0.22409   0.22941   0.23295
 Alpha virt. eigenvalues --    0.23386   0.23793   0.23943   0.24687   0.24965
 Alpha virt. eigenvalues --    0.25321   0.25834   0.26030   0.26208   0.26729
 Alpha virt. eigenvalues --    0.27230   0.27456   0.27858   0.28153   0.28534
 Alpha virt. eigenvalues --    0.28969   0.29035   0.29395   0.29652   0.30328
 Alpha virt. eigenvalues --    0.30957   0.31414   0.31420   0.32044   0.32383
 Alpha virt. eigenvalues --    0.32956   0.33266   0.33370   0.33980   0.34356
 Alpha virt. eigenvalues --    0.35019   0.35335   0.36183   0.37630   0.37731
 Alpha virt. eigenvalues --    0.38467   0.38993   0.39810   0.40263   0.40522
 Alpha virt. eigenvalues --    0.41057   0.41715   0.42264   0.42378   0.42631
 Alpha virt. eigenvalues --    0.44075   0.45196   0.46314   0.47406   0.47825
 Alpha virt. eigenvalues --    0.48863   0.50045   0.51296   0.53098   0.54777
 Alpha virt. eigenvalues --    0.56417   0.57011   0.57589   0.57874   0.58308
 Alpha virt. eigenvalues --    0.59194   0.59592   0.59957   0.60290   0.60764
 Alpha virt. eigenvalues --    0.61193   0.61629   0.61790   0.62468   0.62914
 Alpha virt. eigenvalues --    0.63199   0.63323   0.63846   0.64563   0.64972
 Alpha virt. eigenvalues --    0.65126   0.65420   0.65607   0.65945   0.66334
 Alpha virt. eigenvalues --    0.66656   0.66866   0.66993   0.67131   0.67398
 Alpha virt. eigenvalues --    0.67808   0.68271   0.68993   0.69145   0.69340
 Alpha virt. eigenvalues --    0.69967   0.70336   0.70579   0.70958   0.71204
 Alpha virt. eigenvalues --    0.71780   0.71859   0.72497   0.72606   0.73320
 Alpha virt. eigenvalues --    0.73449   0.73819   0.74292   0.75300   0.75452
 Alpha virt. eigenvalues --    0.76059   0.76628   0.76788   0.77683   0.78339
 Alpha virt. eigenvalues --    0.78765   0.78777   0.80544   0.80704   0.81472
 Alpha virt. eigenvalues --    0.82433   0.82677   0.83320   0.83473   0.84103
 Alpha virt. eigenvalues --    0.85036   0.85475   0.85768   0.86944   0.88501
 Alpha virt. eigenvalues --    0.88699   0.88889   0.89719   0.89992   0.90286
 Alpha virt. eigenvalues --    0.90457   0.90778   0.91237   0.91410   0.92745
 Alpha virt. eigenvalues --    0.93093   0.93120   0.93448   0.93799   0.93996
 Alpha virt. eigenvalues --    0.94246   0.94899   0.95076   0.95218   0.95284
 Alpha virt. eigenvalues --    0.95660   0.96297   0.97128   0.97556   0.98080
 Alpha virt. eigenvalues --    0.98411   0.98696   0.98825   0.99654   1.00068
 Alpha virt. eigenvalues --    1.00546   1.00896   1.01107   1.01679   1.01881
 Alpha virt. eigenvalues --    1.02215   1.03075   1.03862   1.04015   1.04536
 Alpha virt. eigenvalues --    1.05545   1.05705   1.06158   1.06709   1.07494
 Alpha virt. eigenvalues --    1.07719   1.07935   1.08351   1.08748   1.09111
 Alpha virt. eigenvalues --    1.09864   1.10523   1.10795   1.11013   1.11985
 Alpha virt. eigenvalues --    1.12303   1.12661   1.13892   1.14925   1.16047
 Alpha virt. eigenvalues --    1.16279   1.16934   1.17412   1.18186   1.19000
 Alpha virt. eigenvalues --    1.20232   1.21502   1.22384   1.23736   1.23870
 Alpha virt. eigenvalues --    1.25114   1.25636   1.25923   1.26823   1.27823
 Alpha virt. eigenvalues --    1.28862   1.29605   1.30161   1.31167   1.31333
 Alpha virt. eigenvalues --    1.32368   1.33084   1.33309   1.34226   1.34499
 Alpha virt. eigenvalues --    1.36614   1.36984   1.37729   1.38011   1.39600
 Alpha virt. eigenvalues --    1.40256   1.41566   1.42148   1.43929   1.44524
 Alpha virt. eigenvalues --    1.46010   1.47365   1.47544   1.47974   1.48262
 Alpha virt. eigenvalues --    1.49424   1.49940   1.50456   1.50810   1.51503
 Alpha virt. eigenvalues --    1.53472   1.53706   1.54597   1.54668   1.54952
 Alpha virt. eigenvalues --    1.55732   1.55763   1.56168   1.56809   1.57517
 Alpha virt. eigenvalues --    1.57997   1.58423   1.59015   1.59247   1.59348
 Alpha virt. eigenvalues --    1.60133   1.60724   1.61505   1.63044   1.63271
 Alpha virt. eigenvalues --    1.63933   1.64859   1.66052   1.67146   1.67700
 Alpha virt. eigenvalues --    1.68544   1.69544   1.72628   1.74126   1.77163
 Alpha virt. eigenvalues --    1.79389   1.79974   1.81213   1.81619   1.83158
 Alpha virt. eigenvalues --    1.85146   1.85626   1.87039   1.87486   1.88017
 Alpha virt. eigenvalues --    1.88437   1.89337   1.89665   1.90750   1.91144
 Alpha virt. eigenvalues --    1.91620   1.92614   1.92849   1.93496   1.93560
 Alpha virt. eigenvalues --    1.94271   1.94828   1.96135   1.96425   1.98340
 Alpha virt. eigenvalues --    1.98483   1.99534   1.99881   2.00088   2.00714
 Alpha virt. eigenvalues --    2.01729   2.02475   2.03011   2.03699   2.04921
 Alpha virt. eigenvalues --    2.05287   2.06440   2.06908   2.07171   2.07798
 Alpha virt. eigenvalues --    2.08280   2.09081   2.09369   2.09836   2.11275
 Alpha virt. eigenvalues --    2.11738   2.12412   2.13474   2.14325   2.14774
 Alpha virt. eigenvalues --    2.15240   2.16800   2.17093   2.19871   2.20264
 Alpha virt. eigenvalues --    2.20771   2.21371   2.21471   2.22253   2.22448
 Alpha virt. eigenvalues --    2.23454   2.23815   2.24210   2.24722   2.25507
 Alpha virt. eigenvalues --    2.25767   2.26652   2.26894   2.27031   2.27474
 Alpha virt. eigenvalues --    2.28911   2.29627   2.29700   2.32708   2.33829
 Alpha virt. eigenvalues --    2.34996   2.35630   2.35806   2.36277   2.36873
 Alpha virt. eigenvalues --    2.37378   2.38673   2.38806   2.39563   2.40234
 Alpha virt. eigenvalues --    2.40752   2.41682   2.42321   2.43021   2.43379
 Alpha virt. eigenvalues --    2.43827   2.44677   2.45017   2.45546   2.46064
 Alpha virt. eigenvalues --    2.46662   2.47452   2.48331   2.49104   2.49799
 Alpha virt. eigenvalues --    2.50230   2.50753   2.52451   2.53284   2.55005
 Alpha virt. eigenvalues --    2.59505   2.60168   2.60322   2.61900   2.62598
 Alpha virt. eigenvalues --    2.64490   2.65304   2.65997   2.67290   2.67977
 Alpha virt. eigenvalues --    2.69686   2.70807   2.71306   2.72000   2.73038
 Alpha virt. eigenvalues --    2.73750   2.74326   2.74739   2.76604   2.76966
 Alpha virt. eigenvalues --    2.77587   2.77956   2.79554   2.80173   2.82327
 Alpha virt. eigenvalues --    2.82864   2.83374   2.83729   2.85193   2.85610
 Alpha virt. eigenvalues --    2.86620   2.86892   2.87600   2.88482   2.88582
 Alpha virt. eigenvalues --    2.89574   2.91581   2.92104   2.93958   2.94561
 Alpha virt. eigenvalues --    2.95524   2.96117   2.97496   3.00547   3.03161
 Alpha virt. eigenvalues --    3.04293   3.07317   3.08710   3.10575   3.11638
 Alpha virt. eigenvalues --    3.19040   3.26948   3.30034   3.38625   3.41839
 Alpha virt. eigenvalues --    3.45319   3.53291   3.57144   3.57293   4.12230
 Alpha virt. eigenvalues --    4.13654   4.16257   4.18009   4.18787   4.19078
 Alpha virt. eigenvalues --    4.20395   4.21149   4.22372   4.23399   4.25349
 Alpha virt. eigenvalues --    4.25807   4.27491   4.27811   4.30142   4.32357
 Alpha virt. eigenvalues --    4.33220   4.34314   4.37529   4.39873   4.40540
 Alpha virt. eigenvalues --    4.42597   4.44587   4.45746   4.48298   4.49431
 Alpha virt. eigenvalues --    4.50654   4.52708   4.57180   4.60042   4.62064
 Alpha virt. eigenvalues --    4.64337   4.66592   4.68343   4.80314   4.84362
 Alpha virt. eigenvalues --    4.89454
          Condensed to atoms (all electrons):
 Mulliken atomic charges:
              1
     1  C   -0.201460
     2  C   -0.158952
     3  C    0.030054
     4  C   -0.001198
     5  N   -0.435058
     6  C    0.012231
     7  C    0.296502
     8  C   -0.253092
     9  C    0.046137
    10  N   -0.493828
    11  C    0.700756
    12  N   -0.566150
    13  N   -0.790273
    14  C    0.284759
    15  C    0.122408
    16  C   -0.240668
    17  C   -0.186855
    18  C    0.351635
    19  C   -0.258332
    20  N   -0.762692
    21  C    0.588980
    22  C    0.019439
    23  C   -0.174029
    24  C   -0.222866
    25  C    0.158316
    26  C   -0.216597
    27  C   -0.202561
    28  C   -0.267479
    29  N   -0.382148
    30  C   -0.186833
    31  C   -0.184048
    32  N   -0.393841
    33  C   -0.352080
    34  C   -0.184468
    35  C   -0.181594
    36  O   -0.511641
    37  C   -0.604388
    38  H    0.175086
    39  H    0.178087
    40  H    0.197064
    41  H    0.218973
    42  H    0.178680
    43  H    0.186357
    44  H    0.366480
    45  H    0.160425
    46  H    0.212409
    47  H    0.191950
    48  H    0.363588
    49  H    0.199347
    50  H    0.165262
    51  H    0.162878
    52  H    0.174386
    53  H    0.170822
    54  H    0.171341
    55  H    0.158444
    56  H    0.159161
    57  H    0.156981
    58  H    0.187076
    59  H    0.144173
    60  H    0.171642
    61  H    0.162080
    62  H    0.150155
    63  H    0.175562
    64  H    0.159384
    65  H    0.154210
    66  H    0.176601
    67  H    0.184445
    68  H    0.188866
 Sum of Mulliken atomic charges =   0.00000
 Mulliken charges with hydrogens summed into heavy atoms:
              1
     1  C   -0.026375
     2  C    0.019135
     3  C    0.030054
     4  C    0.195866
     5  N   -0.435058
     6  C    0.231203
     7  C    0.296502
     8  C   -0.074411
     9  C    0.232494
    10  N   -0.493828
    11  C    0.700756
    12  N   -0.566150
    13  N   -0.423794
    14  C    0.284759
    15  C    0.122408
    16  C   -0.080242
    17  C    0.025554
    18  C    0.351635
    19  C   -0.066382
    20  N   -0.399104
    21  C    0.588980
    22  C    0.019439
    23  C    0.025318
    24  C   -0.057604
    25  C    0.158316
    26  C   -0.053719
    27  C   -0.028175
    28  C    0.074684
    29  N   -0.382148
    30  C    0.130772
    31  C    0.160010
    32  N   -0.393841
    33  C    0.125816
    34  C    0.141249
    35  C    0.131999
    36  O   -0.511641
    37  C   -0.054476
 Sum of Mulliken charges with hydrogens summed into heavy atoms =   0.00000
 Electronic spatial extent (au):  <R**2>=          21899.7023
 Charge=              0.0000 electrons
 Dipole moment (field-independent basis, Debye):
    X=             -0.9911    Y=              5.3052    Z=              1.5283  Tot=              5.6092
 Quadrupole moment (field-independent basis, Debye-Ang):
   XX=           -192.0620   YY=           -207.5154   ZZ=           -213.4591
   XY=             -0.0217   XZ=             -0.3620   YZ=              1.6087
 Traceless Quadrupole moment (field-independent basis, Debye-Ang):
   XX=             12.2835   YY=             -3.1699   ZZ=             -9.1136
   XY=             -0.0217   XZ=             -0.3620   YZ=              1.6087
 Octapole moment (field-independent basis, Debye-Ang**2):
  XXX=             61.2984  YYY=            196.8228  ZZZ=              1.4059  XYY=             26.3114
  XXY=            -15.8663  XXZ=            -35.9701  XZZ=            -40.3133  YZZ=             -7.1287
  YYZ=              6.1648  XYZ=             -3.0721
 Hexadecapole moment (field-independent basis, Debye-Ang**3):
 XXXX=         -19810.4362 YYYY=          -8338.6244 ZZZZ=           -884.6111 XXXY=           -355.4186
 XXXZ=             61.1242 YYYX=            126.5992 YYYZ=             70.8666 ZZZX=             -2.1666
 ZZZY=              6.6222 XXYY=          -4352.1221 XXZZ=          -3472.8058 YYZZ=          -1637.8975
 XXYZ=             73.5450 YYXZ=             14.6129 ZZXY=              2.6137
 N-N= 3.875087486427D+03 E-N=-1.142228755325D+04  KE= 1.567151856795D+03
 No NMR shielding tensors so no spin-rotation constants.
 Leave Link  601 at Thu Apr  9 00:39:42 2020, MaxMem= 2684354560 cpu:       2.9
 (Enter /opt/g09gh/gaussian/g09/l9999.exe)
 1\1\GINC-NODE52\FOpt\RwB97XD\6-31G(d)\C29H31N7O1\BDW2292\09-Apr-2020\0
 \\#P opt=(,maxcycle=400) wB97XD/6-31G* MaxDisk=100GB\\MOLECULE0 Rotata
 ble Bond Optimization on node37.bme.utexas.edu\\0,1\C,-2.4617987265,1.
 456840557,5.3698228536\C,-1.3419337404,0.9733886585,6.0347376769\C,-0.
 3292954805,0.363142477,5.2955277095\C,-0.5052154742,0.2830913986,3.906
 8174028\N,-1.5776406066,0.7310538824,3.2592548084\C,-2.5415403502,1.30
 79094078,3.9874041943\C,0.8857654427,-0.2263740367,5.907934404\C,1.367
 1354057,0.099178158,7.1748146882\C,2.5111481937,-0.5787783685,7.590253
 1221\N,3.152217222,-1.4748178586,6.8488285371\C,2.6169454565,-1.695644
 7358,5.6327104028\N,1.5158600827,-1.1263473737,5.149467827\N,3.2953529
 026,-2.5954048454,4.8532114362\C,3.090416942,-2.9202613401,3.498334179
 9\C,4.1875929163,-3.3801620753,2.744820132\C,3.9719447209,-3.66987382,
 1.4004063983\C,2.7394923567,-3.5076364733,0.7730852128\C,1.6657263335,
 -3.0610491441,1.5402620143\C,1.8396606726,-2.8032824746,2.8996785448\N
 ,0.3665122156,-2.8433013164,1.0402921113\C,-0.0322176799,-2.7206504483
 ,-0.2668341303\C,-1.4843122932,-2.3675205224,-0.4272200244\C,-1.850540
 3512,-1.6002211228,-1.5321706883\C,-3.1796227451,-1.2476814473,-1.7280
 306668\C,-4.1752326846,-1.6649694865,-0.841758287\C,-3.8038206214,-2.4
 596080716,0.2442398459\C,-2.4743396588,-2.8008032655,0.4587613137\C,-5
 .6287266532,-1.2769280725,-1.0709784356\N,-6.1559372665,-0.1284790093,
 -0.3569160395\C,-5.5620826104,1.1680821426,-0.657760532\C,-4.482122237
 1,1.5986482091,0.3474067728\N,-4.9481814671,1.5358325432,1.7327943759\
 C,-5.8934111779,2.5813837198,2.0877719474\C,-5.4198063948,0.1833721701
 ,2.02393394\C,-6.5085924857,-0.2885149488,1.047153892\O,0.7061416333,-
 2.8639904419,-1.226960382\C,5.5527395588,-3.5361843618,3.3648577274\H,
 -3.2710481076,1.9307713881,5.9158167207\H,-1.2724998405,1.0487744801,7
 .1164621231\H,0.276599223,-0.1656931542,3.2997537366\H,-3.4078767805,1
 .6472418731,3.4187758491\H,0.8992689205,0.8435282013,7.8070742424\H,2.
 9384900606,-0.3846994586,8.5720254971\H,4.148473066,-2.9176354964,5.28
 47169939\H,4.8117995758,-4.0204733976,0.8058774758\H,2.6167677315,-3.7
 038219736,-0.2824138513\H,1.0034589059,-2.4659362559,3.4947740204\H,-0
 .295070305,-2.5129847847,1.7282492132\H,-1.0808430073,-1.2936627876,-2
 .2330132238\H,-3.4523019464,-0.6487493224,-2.5939636399\H,-4.567544101
 2,-2.8299076981,0.9245109349\H,-2.2197636275,-3.4464772659,1.295183028
 1\H,-5.7667377355,-1.0849979711,-2.1429869843\H,-6.2671488443,-2.13394
 33337,-0.8246657259\H,-5.1434015342,1.1385243443,-1.6695375351\H,-6.36
 39518069,1.9217466801,-0.6709955962\H,-4.1512600118,2.6215144842,0.131
 8886726\H,-3.6073846133,0.9428069726,0.2656453315\H,-6.8523799515,2.56
 07288263,1.5433499302\H,-5.4279387097,3.5559745455,1.9058077324\H,-6.1
 18341907,2.5097609439,3.1581415977\H,-5.7983476919,0.1545113291,3.0534
 058053\H,-4.5490315827,-0.4808850794,1.9711706982\H,-7.4278505592,0.28
 62421474,1.2376171621\H,-6.7535338447,-1.3401527073,1.2330491359\H,5.5
 635043272,-4.2972711161,4.1571225157\H,5.911220759,-2.5962328037,3.802
 9649183\H,6.2838955889,-3.8466438726,2.6140419361\\Version=EM64L-G09Re
 vA.02\State=1-A\HF=-1581.7640372\RMSD=8.789e-09\RMSF=4.650e-06\Dipole=
 -1.1127066,0.7704671,1.7430814\Quadrupole=5.8438294,-5.6049929,-0.2388
 365,-3.914515,4.5586246,-0.1432316\PG=C01 [X(C29H31N7O1)]\\@


 NECESSARY EVIL: ONE WE LIKE TOO MUCH TO RELINQUISH.
 Job cpu time:  0 days 13 hours 49 minutes 46.5 seconds.
 File lengths (MBytes):  RWF=    244 Int=      0 D2E=      0 Chk=     25 Scr=      1
 Normal termination of Gaussian 09 at Thu Apr  9 00:39:42 2020.
