68
MOLECULE0-opt-29-28-25-24-097.log	Energy: -992570.4031112
C         -1.22632        4.80708       -0.66975
C         -2.52742        4.35148       -0.49543
C         -2.73263        3.05559       -0.02512
C         -1.59731        2.28409        0.25691
N         -0.34515        2.70347        0.08504
C         -0.17417        3.94633       -0.37594
C         -4.08094        2.45787        0.14120
C         -5.24374        3.19863        0.33393
C         -6.42547        2.46605        0.43990
N         -6.48130        1.14231        0.38218
C         -5.29535        0.52213        0.21623
N         -4.11431        1.12443        0.08445
N         -5.36239       -0.84336        0.18273
C         -4.33214       -1.80114        0.12831
C         -4.63996       -3.12721        0.49347
C         -3.61048       -4.06283        0.45748
C         -2.30247       -3.74846        0.09615
C         -2.02355       -2.43353       -0.26742
C         -3.04048       -1.47832       -0.27344
N         -0.75108       -1.95598       -0.62924
C          0.46492       -2.58381       -0.55782
C          1.63416       -1.68598       -0.85304
C          1.62075       -0.30609       -0.62931
C          2.73843        0.46178       -0.93280
C          3.89468       -0.12120       -1.45177
C          3.89898       -1.50171       -1.66987
C          2.79041       -2.27866       -1.36305
C          5.12607        0.72099       -1.75325
N          6.11100        0.90646       -0.70157
C          6.90938       -0.25147       -0.31595
C          6.33425       -1.03301        0.87766
N          6.04281       -0.18324        2.02922
C          7.22418        0.24653        2.75584
C          5.16580        0.91217        1.62520
C          5.72401        1.72282        0.44322
O          0.60831       -3.76809       -0.30010
C         -6.03131       -3.52041        0.92080
H         -1.02929        5.80591       -1.04400
H         -3.36931        4.98865       -0.75081
H         -1.72416        1.27791        0.64763
H          0.85558        4.26567       -0.51857
H         -5.24506        4.27851        0.41596
H         -7.37682        2.97443        0.58325
H         -6.29991       -1.18610        0.33012
H         -3.83552       -5.08895        0.73712
H         -1.52058       -4.49438        0.09966
H         -2.82089       -0.46189       -0.56383
H         -0.73732       -0.99793       -0.94503
H          0.76286        0.19827       -0.19160
H          2.70303        1.53329       -0.75057
H          4.78641       -1.97376       -2.08560
H          2.79837       -3.35250       -1.51929
H          5.64872        0.28032       -2.61149
H          4.79710        1.71994       -2.06681
H          7.01962       -0.91090       -1.18439
H          7.91869        0.10426       -0.05986
H          7.03644       -1.81685        1.18617
H          5.39948       -1.52396        0.58278
H          7.92518        0.88528        2.18987
H          7.77774       -0.63736        3.09112
H          6.91294        0.80378        3.64629
H          5.00128        1.57044        2.48693
H          4.19706        0.47796        1.35224
H          6.61295        2.27842        0.77769
H          4.99154        2.46876        0.11412
H         -6.77137       -3.36431        0.12388
H         -6.36511       -2.95448        1.80016
H         -6.06688       -4.58060        1.18387
