 Entering Gaussian System, Link 0=g09
 Input=MOLECULE0-opt-25-28-29-35-266.com
 Output=MOLECULE0-opt-25-28-29-35-266.log
 Initial command:
 /opt/g09gh/gaussian/g09/l1.exe /scratch/bdw2292/Gau-MOLECULE0/Gau-123915.inp -scrdir=/scratch/bdw2292/Gau-MOLECULE0/
 Entering Link 1 = /opt/g09gh/gaussian/g09/l1.exe PID=    123916.
  
 Copyright (c) 1988,1990,1992,1993,1995,1998,2003,2009, Gaussian, Inc.
                  All Rights Reserved.
  
 This is part of the Gaussian(R) 09 program.  It is based on
 the Gaussian(R) 03 system (copyright 2003, Gaussian, Inc.),
 the Gaussian(R) 98 system (copyright 1998, Gaussian, Inc.),
 the Gaussian(R) 94 system (copyright 1995, Gaussian, Inc.),
 the Gaussian 92(TM) system (copyright 1992, Gaussian, Inc.),
 the Gaussian 90(TM) system (copyright 1990, Gaussian, Inc.),
 the Gaussian 88(TM) system (copyright 1988, Gaussian, Inc.),
 the Gaussian 86(TM) system (copyright 1986, Carnegie Mellon
 University), and the Gaussian 82(TM) system (copyright 1983,
 Carnegie Mellon University). Gaussian is a federally registered
 trademark of Gaussian, Inc.
  
 This software contains proprietary and confidential information,
 including trade secrets, belonging to Gaussian, Inc.
  
 This software is provided under written license and may be
 used, copied, transmitted, or stored only in accord with that
 written license.
  
 The following legend is applicable only to US Government
 contracts under FAR:
  
                    RESTRICTED RIGHTS LEGEND
  
 Use, reproduction and disclosure by the US Government is
 subject to restrictions as set forth in subparagraphs (a)
 and (c) of the Commercial Computer Software - Restricted
 Rights clause in FAR 52.227-19.
  
 Gaussian, Inc.
 340 Quinnipiac St., Bldg. 40, Wallingford CT 06492
  
  
 ---------------------------------------------------------------
 Warning -- This program may not be used in any manner that
 competes with the business of Gaussian, Inc. or will provide
 assistance to any competitor of Gaussian, Inc.  The licensee
 of this program is prohibited from giving any competitor of
 Gaussian, Inc. access to this program.  By using this program,
 the user acknowledges that Gaussian, Inc. is engaged in the
 business of creating and licensing software in the field of
 computational chemistry and represents and warrants to the
 licensee that it is not a competitor of Gaussian, Inc. and that
 it will not use this program in any manner prohibited above.
 ---------------------------------------------------------------
  

 Cite this work as:
 Gaussian 09, Revision A.02,
 M. J. Frisch, G. W. Trucks, H. B. Schlegel, G. E. Scuseria, 
 M. A. Robb, J. R. Cheeseman, G. Scalmani, V. Barone, B. Mennucci, 
 G. A. Petersson, H. Nakatsuji, M. Caricato, X. Li, H. P. Hratchian, 
 A. F. Izmaylov, J. Bloino, G. Zheng, J. L. Sonnenberg, M. Hada, 
 M. Ehara, K. Toyota, R. Fukuda, J. Hasegawa, M. Ishida, T. Nakajima, 
 Y. Honda, O. Kitao, H. Nakai, T. Vreven, J. A. Montgomery, Jr., 
 J. E. Peralta, F. Ogliaro, M. Bearpark, J. J. Heyd, E. Brothers, 
 K. N. Kudin, V. N. Staroverov, R. Kobayashi, J. Normand, 
 K. Raghavachari, A. Rendell, J. C. Burant, S. S. Iyengar, J. Tomasi, 
 M. Cossi, N. Rega, J. M. Millam, M. Klene, J. E. Knox, J. B. Cross, 
 V. Bakken, C. Adamo, J. Jaramillo, R. Gomperts, R. E. Stratmann, 
 O. Yazyev, A. J. Austin, R. Cammi, C. Pomelli, J. W. Ochterski, 
 R. L. Martin, K. Morokuma, V. G. Zakrzewski, G. A. Voth, 
 P. Salvador, J. J. Dannenberg, S. Dapprich, A. D. Daniels, 
 O. Farkas, J. B. Foresman, J. V. Ortiz, J. Cioslowski, 
 and D. J. Fox, Gaussian, Inc., Wallingford CT, 2009.
 
 ******************************************
 Gaussian 09:  EM64L-G09RevA.02 11-Jun-2009
                11-Mar-2020 
 ******************************************
 %RWF=/scratch/bdw2292/Gau-MOLECULE0/,100GB
 %Nosave
 %Chk=MOLECULE0-opt-25-28-29-35-266.chk
 %Mem=20GB
 %Nproc=6
 Will use up to    6 processors via shared memory.
 --------------------------------------------------
 #P opt=(,maxcycle=400) wB97XD/6-31G* MaxDisk=100GB
 --------------------------------------------------
 1/6=400,14=-1,18=20,19=15,26=3,38=1/1,3;
 2/9=110,12=2,17=6,18=5,40=1/2;
 3/5=1,6=6,7=1,11=2,16=1,25=1,30=1,71=1,74=-58/1,2,3;
 4//1;
 5/5=2,38=5/2;
 6/7=2,8=2,9=2,10=2,28=1/1;
 7//1,2,3,16;
 1/6=400,14=-1,18=20,19=15/3(2);
 2/9=110/2;
 99//99;
 2/9=110/2;
 3/5=1,6=6,7=1,11=2,16=1,25=1,30=1,71=1,74=-58/1,2,3;
 4/5=5,16=3/1;
 5/5=2,38=5/2;
 7//1,2,3,16;
 1/6=400,14=-1,18=20,19=15/3(-5);
 2/9=110/2;
 6/7=2,8=2,9=2,10=2,19=2,28=1/1;
 99/9=1/99;
 Leave Link    1 at Wed Mar 11 00:05:06 2020, MaxMem= 2684354560 cpu:       0.3
 (Enter /opt/g09gh/gaussian/g09/l101.exe)
 -----------------------------------------------------------------
 MOLECULE0 Rotatable Bond Optimization on g2-node38.bme.utexas.edu
 -----------------------------------------------------------------
 Symbolic Z-matrix:
 Charge =  0 Multiplicity = 1
 C                    -0.05484   4.56241  -1.35335 
 C                     1.26641   4.44062  -0.90109 
 C                     1.82401   3.16359  -0.69103 
 C                     0.97639   2.06793  -0.9899 
 N                    -0.28523   2.16162  -1.42853 
 C                    -0.78633   3.39452  -1.59778 
 C                     3.23532   2.93703  -0.20513 
 C                     4.19569   3.93648   0.01831 
 C                     5.45555   3.48544   0.42836 
 N                     5.77198   2.2083    0.6239 
 C                     4.78094   1.31741   0.41041 
 N                     3.54862   1.64484   0.01072 
 N                     5.11136  -0.01214   0.63567 
 C                     4.39349  -1.25191   0.46107 
 C                     5.11013  -2.48659   0.43645 
 C                     4.36141  -3.65944   0.23616 
 C                     2.97138  -3.68119   0.06926 
 C                     2.28058  -2.46683   0.12778 
 C                     3.00154  -1.27735   0.31636 
 N                     0.86856  -2.29221  -0.01844 
 C                    -0.12579  -3.16766  -0.38564 
 C                    -1.48382  -2.56853  -0.69871 
 C                    -1.64388  -1.32008  -1.32363 
 C                    -2.9192   -0.7962   -1.54092 
 C                    -4.07738  -1.50226  -1.16408 
 C                    -3.90248  -2.76692  -0.56949 
 C                    -2.63027  -3.30088  -0.35074 
 C                    -5.46867  -0.88902  -1.33739 
 N                    -5.98062   0.03771  -0.30609 
 C                    -5.08653   1.09589   0.22109 
 C                    -4.31637   0.70467   1.50966 
 N                    -5.16571   0.18185   2.60492 
 C                    -5.81829   1.18126   3.45788 
 C                    -6.03324  -0.89019   2.06382 
 C                    -6.8216   -0.5059    0.78543 
 O                     0.04811  -4.37473  -0.44379 
 C                     6.61913  -2.58045   0.58197 
 H                    -0.50611   5.53667  -1.51583 
 H                     1.83074   5.34969  -0.70843 
 H                     1.35043   1.05478  -0.89374 
 H                    -1.81439   3.44506  -1.95329 
 H                     4.01923   4.99394  -0.13597 
 H                     6.2616    4.19669   0.60616 
 H                     6.08454  -0.07999   0.89353 
 H                     4.87674  -4.61837   0.19559 
 H                     2.43172  -4.6066   -0.09174 
 H                     2.4754   -0.33784   0.35926 
 H                     0.55725  -1.33864   0.10314 
 H                    -0.76849  -0.74371  -1.6138 
 H                    -3.00117   0.1898   -1.99788 
 H                    -4.77023  -3.34788  -0.25774 
 H                    -2.50379  -4.27422   0.11681 
 H                    -5.50167  -0.34282  -2.29087 
 H                    -6.18764  -1.71782  -1.41476 
 H                    -4.49216   1.44811  -0.49917 
 H                    -6.02011   2.30845   0.65569 
 H                    -3.60859   1.87315   1.98384 
 H                    -3.3725   -0.28491   1.19945 
 H                    -6.54594   1.77109   2.88902 
 H                    -5.07086   1.85902   3.88584 
 H                    -6.33591   0.68841   4.28869 
 H                    -6.9781   -1.27797   3.07799 
 H                    -5.21357  -1.99182   1.77269 
 H                    -7.80024   0.64478   1.22918 
 H                    -7.42819  -1.29052   0.43502 
 H                     6.94877  -2.23078   1.57056 
 H                     7.13464  -1.97106  -0.17383 
 H                     6.99772  -3.60569   0.46772 
 
 NAtoms=     68 NQM=     68 NQMF=      0 NMic=      0 NMicF=      0 NTot=     68.
                    Isotopes and Nuclear Properties:
 (Nuclear quadrupole moments (NQMom) in fm**2, nuclear magnetic moments (NMagM)
  in nuclear magnetons)

  Atom         1           2           3           4           5           6           7           8           9          10
 IAtWgt=          12          12          12          12          14          12          12          12          12          14
 AtmWgt=  12.0000000  12.0000000  12.0000000  12.0000000  14.0030740  12.0000000  12.0000000  12.0000000  12.0000000  14.0030740
 NucSpn=           0           0           0           0           2           0           0           0           0           2
 AtZEff=   0.0000000   0.0000000   0.0000000   0.0000000   0.0000000   0.0000000   0.0000000   0.0000000   0.0000000   0.0000000
 NQMom=    0.0000000   0.0000000   0.0000000   0.0000000   2.0440000   0.0000000   0.0000000   0.0000000   0.0000000   2.0440000
 NMagM=    0.0000000   0.0000000   0.0000000   0.0000000   0.4037610   0.0000000   0.0000000   0.0000000   0.0000000   0.4037610

  Atom        11          12          13          14          15          16          17          18          19          20
 IAtWgt=          12          14          14          12          12          12          12          12          12          14
 AtmWgt=  12.0000000  14.0030740  14.0030740  12.0000000  12.0000000  12.0000000  12.0000000  12.0000000  12.0000000  14.0030740
 NucSpn=           0           2           2           0           0           0           0           0           0           2
 AtZEff=   0.0000000   0.0000000   0.0000000   0.0000000   0.0000000   0.0000000   0.0000000   0.0000000   0.0000000   0.0000000
 NQMom=    0.0000000   2.0440000   2.0440000   0.0000000   0.0000000   0.0000000   0.0000000   0.0000000   0.0000000   2.0440000
 NMagM=    0.0000000   0.4037610   0.4037610   0.0000000   0.0000000   0.0000000   0.0000000   0.0000000   0.0000000   0.4037610

  Atom        21          22          23          24          25          26          27          28          29          30
 IAtWgt=          12          12          12          12          12          12          12          12          14          12
 AtmWgt=  12.0000000  12.0000000  12.0000000  12.0000000  12.0000000  12.0000000  12.0000000  12.0000000  14.0030740  12.0000000
 NucSpn=           0           0           0           0           0           0           0           0           2           0
 AtZEff=   0.0000000   0.0000000   0.0000000   0.0000000   0.0000000   0.0000000   0.0000000   0.0000000   0.0000000   0.0000000
 NQMom=    0.0000000   0.0000000   0.0000000   0.0000000   0.0000000   0.0000000   0.0000000   0.0000000   2.0440000   0.0000000
 NMagM=    0.0000000   0.0000000   0.0000000   0.0000000   0.0000000   0.0000000   0.0000000   0.0000000   0.4037610   0.0000000

  Atom        31          32          33          34          35          36          37          38          39          40
 IAtWgt=          12          14          12          12          12          16          12           1           1           1
 AtmWgt=  12.0000000  14.0030740  12.0000000  12.0000000  12.0000000  15.9949146  12.0000000   1.0078250   1.0078250   1.0078250
 NucSpn=           0           2           0           0           0           0           0           1           1           1
 AtZEff=   0.0000000   0.0000000   0.0000000   0.0000000   0.0000000   0.0000000   0.0000000   0.0000000   0.0000000   0.0000000
 NQMom=    0.0000000   2.0440000   0.0000000   0.0000000   0.0000000   0.0000000   0.0000000   0.0000000   0.0000000   0.0000000
 NMagM=    0.0000000   0.4037610   0.0000000   0.0000000   0.0000000   0.0000000   0.0000000   2.7928460   2.7928460   2.7928460

  Atom        41          42          43          44          45          46          47          48          49          50
 IAtWgt=           1           1           1           1           1           1           1           1           1           1
 AtmWgt=   1.0078250   1.0078250   1.0078250   1.0078250   1.0078250   1.0078250   1.0078250   1.0078250   1.0078250   1.0078250
 NucSpn=           1           1           1           1           1           1           1           1           1           1
 AtZEff=   0.0000000   0.0000000   0.0000000   0.0000000   0.0000000   0.0000000   0.0000000   0.0000000   0.0000000   0.0000000
 NQMom=    0.0000000   0.0000000   0.0000000   0.0000000   0.0000000   0.0000000   0.0000000   0.0000000   0.0000000   0.0000000
 NMagM=    2.7928460   2.7928460   2.7928460   2.7928460   2.7928460   2.7928460   2.7928460   2.7928460   2.7928460   2.7928460

  Atom        51          52          53          54          55          56          57          58          59          60
 IAtWgt=           1           1           1           1           1           1           1           1           1           1
 AtmWgt=   1.0078250   1.0078250   1.0078250   1.0078250   1.0078250   1.0078250   1.0078250   1.0078250   1.0078250   1.0078250
 NucSpn=           1           1           1           1           1           1           1           1           1           1
 AtZEff=   0.0000000   0.0000000   0.0000000   0.0000000   0.0000000   0.0000000   0.0000000   0.0000000   0.0000000   0.0000000
 NQMom=    0.0000000   0.0000000   0.0000000   0.0000000   0.0000000   0.0000000   0.0000000   0.0000000   0.0000000   0.0000000
 NMagM=    2.7928460   2.7928460   2.7928460   2.7928460   2.7928460   2.7928460   2.7928460   2.7928460   2.7928460   2.7928460

  Atom        61          62          63          64          65          66          67          68
 IAtWgt=           1           1           1           1           1           1           1           1
 AtmWgt=   1.0078250   1.0078250   1.0078250   1.0078250   1.0078250   1.0078250   1.0078250   1.0078250
 NucSpn=           1           1           1           1           1           1           1           1
 AtZEff=   0.0000000   0.0000000   0.0000000   0.0000000   0.0000000   0.0000000   0.0000000   0.0000000
 NQMom=    0.0000000   0.0000000   0.0000000   0.0000000   0.0000000   0.0000000   0.0000000   0.0000000
 NMagM=    2.7928460   2.7928460   2.7928460   2.7928460   2.7928460   2.7928460   2.7928460   2.7928460
 Leave Link  101 at Wed Mar 11 00:05:06 2020, MaxMem= 2684354560 cpu:       0.4
 (Enter /opt/g09gh/gaussian/g09/l103.exe)

 GradGradGradGradGradGradGradGradGradGradGradGradGradGradGradGradGradGrad
 Berny optimization.
 Initialization pass.
                           ----------------------------
                           !    Initial Parameters    !
                           ! (Angstroms and Degrees)  !
 --------------------------                            --------------------------
 ! Name  Definition              Value          Derivative Info.                !
 --------------------------------------------------------------------------------
 ! R1    R(1,2)                  1.4018         estimate D2E/DX2                !
 ! R2    R(1,6)                  1.3996         estimate D2E/DX2                !
 ! R3    R(1,38)                 1.0859         estimate D2E/DX2                !
 ! R4    R(2,3)                  1.4092         estimate D2E/DX2                !
 ! R5    R(2,39)                 1.0872         estimate D2E/DX2                !
 ! R6    R(3,4)                  1.4171         estimate D2E/DX2                !
 ! R7    R(3,7)                  1.5097         estimate D2E/DX2                !
 ! R8    R(4,5)                  1.339          estimate D2E/DX2                !
 ! R9    R(4,40)                 1.0843         estimate D2E/DX2                !
 ! R10   R(5,6)                  1.3416         estimate D2E/DX2                !
 ! R11   R(6,41)                 1.089          estimate D2E/DX2                !
 ! R12   R(7,8)                  1.404          estimate D2E/DX2                !
 ! R13   R(7,12)                 1.347          estimate D2E/DX2                !
 ! R14   R(8,9)                  1.3996         estimate D2E/DX2                !
 ! R15   R(8,42)                 1.0831         estimate D2E/DX2                !
 ! R16   R(9,10)                 1.3302         estimate D2E/DX2                !
 ! R17   R(9,43)                 1.0896         estimate D2E/DX2                !
 ! R18   R(10,11)                1.3496         estimate D2E/DX2                !
 ! R19   R(11,12)                1.3362         estimate D2E/DX2                !
 ! R20   R(11,13)                1.3884         estimate D2E/DX2                !
 ! R21   R(13,14)                1.4432         estimate D2E/DX2                !
 ! R22   R(13,44)                1.009          estimate D2E/DX2                !
 ! R23   R(14,15)                1.4278         estimate D2E/DX2                !
 ! R24   R(14,19)                1.3997         estimate D2E/DX2                !
 ! R25   R(15,16)                1.4058         estimate D2E/DX2                !
 ! R26   R(15,37)                1.5189         estimate D2E/DX2                !
 ! R27   R(16,17)                1.4002         estimate D2E/DX2                !
 ! R28   R(16,45)                1.0894         estimate D2E/DX2                !
 ! R29   R(17,18)                1.3983         estimate D2E/DX2                !
 ! R30   R(17,46)                1.0833         estimate D2E/DX2                !
 ! R31   R(18,19)                1.4036         estimate D2E/DX2                !
 ! R32   R(18,20)                1.4303         estimate D2E/DX2                !
 ! R33   R(19,47)                1.0777         estimate D2E/DX2                !
 ! R34   R(20,21)                1.3748         estimate D2E/DX2                !
 ! R35   R(20,48)                1.0104         estimate D2E/DX2                !
 ! R36   R(21,22)                1.517          estimate D2E/DX2                !
 ! R37   R(21,36)                1.2209         estimate D2E/DX2                !
 ! R38   R(22,23)                1.4053         estimate D2E/DX2                !
 ! R39   R(22,27)                1.4042         estimate D2E/DX2                !
 ! R40   R(23,24)                1.3958         estimate D2E/DX2                !
 ! R41   R(23,49)                1.0875         estimate D2E/DX2                !
 ! R42   R(24,25)                1.4078         estimate D2E/DX2                !
 ! R43   R(24,50)                1.0898         estimate D2E/DX2                !
 ! R44   R(25,26)                1.4084         estimate D2E/DX2                !
 ! R45   R(25,28)                1.5303         estimate D2E/DX2                !
 ! R46   R(26,27)                1.397          estimate D2E/DX2                !
 ! R47   R(26,51)                1.0898         estimate D2E/DX2                !
 ! R48   R(27,52)                1.0872         estimate D2E/DX2                !
 ! R49   R(28,29)                1.478          estimate D2E/DX2                !
 ! R50   R(28,53)                1.0993         estimate D2E/DX2                !
 ! R51   R(28,54)                1.0999         estimate D2E/DX2                !
 ! R52   R(29,30)                1.4822         estimate D2E/DX2                !
 ! R53   R(29,35)                1.4813         estimate D2E/DX2                !
 ! R54   R(30,31)                1.5513         estimate D2E/DX2                !
 ! R55   R(30,55)                0.9981         estimate D2E/DX2                !
 ! R56   R(30,56)                1.5908         estimate D2E/DX2                !
 ! R57   R(31,32)                1.4813         estimate D2E/DX2                !
 ! R58   R(31,57)                1.4461         estimate D2E/DX2                !
 ! R59   R(31,58)                1.4023         estimate D2E/DX2                !
 ! R60   R(32,33)                1.467          estimate D2E/DX2                !
 ! R61   R(32,34)                1.4814         estimate D2E/DX2                !
 ! R62   R(33,59)                1.0959         estimate D2E/DX2                !
 ! R63   R(33,60)                1.096          estimate D2E/DX2                !
 ! R64   R(33,61)                1.0959         estimate D2E/DX2                !
 ! R65   R(34,35)                1.5503         estimate D2E/DX2                !
 ! R66   R(34,62)                1.4393         estimate D2E/DX2                !
 ! R67   R(34,63)                1.4036         estimate D2E/DX2                !
 ! R68   R(35,64)                1.5744         estimate D2E/DX2                !
 ! R69   R(35,65)                1.0518         estimate D2E/DX2                !
 ! R70   R(37,66)                1.0992         estimate D2E/DX2                !
 ! R71   R(37,67)                1.0992         estimate D2E/DX2                !
 ! R72   R(37,68)                1.0989         estimate D2E/DX2                !
 ! A1    A(2,1,6)              118.4542         estimate D2E/DX2                !
 ! A2    A(2,1,38)             121.192          estimate D2E/DX2                !
 ! A3    A(6,1,38)             120.3535         estimate D2E/DX2                !
 ! A4    A(1,2,3)              119.9851         estimate D2E/DX2                !
 ! A5    A(1,2,39)             118.2783         estimate D2E/DX2                !
 ! A6    A(3,2,39)             121.7314         estimate D2E/DX2                !
 ! A7    A(2,3,4)              115.6283         estimate D2E/DX2                !
 ! A8    A(2,3,7)              123.6324         estimate D2E/DX2                !
 ! A9    A(4,3,7)              120.7302         estimate D2E/DX2                !
 ! A10   A(3,4,5)              125.3495         estimate D2E/DX2                !
 ! A11   A(3,4,40)             119.8283         estimate D2E/DX2                !
 ! A12   A(5,4,40)             114.8015         estimate D2E/DX2                !
 ! A13   A(4,5,6)              117.2304         estimate D2E/DX2                !
 ! A14   A(1,6,5)              123.3412         estimate D2E/DX2                !
 ! A15   A(1,6,41)             120.7774         estimate D2E/DX2                !
 ! A16   A(5,6,41)             115.8788         estimate D2E/DX2                !
 ! A17   A(3,7,8)              125.7216         estimate D2E/DX2                !
 ! A18   A(3,7,12)             114.3906         estimate D2E/DX2                !
 ! A19   A(8,7,12)             119.887          estimate D2E/DX2                !
 ! A20   A(7,8,9)              115.6558         estimate D2E/DX2                !
 ! A21   A(7,8,42)             124.1178         estimate D2E/DX2                !
 ! A22   A(9,8,42)             120.1997         estimate D2E/DX2                !
 ! A23   A(8,9,10)             124.5144         estimate D2E/DX2                !
 ! A24   A(8,9,43)             120.2228         estimate D2E/DX2                !
 ! A25   A(10,9,43)            115.2622         estimate D2E/DX2                !
 ! A26   A(9,10,11)            115.8386         estimate D2E/DX2                !
 ! A27   A(10,11,12)           124.2481         estimate D2E/DX2                !
 ! A28   A(10,11,13)           115.576          estimate D2E/DX2                !
 ! A29   A(12,11,13)           120.1759         estimate D2E/DX2                !
 ! A30   A(7,12,11)            119.8335         estimate D2E/DX2                !
 ! A31   A(11,13,14)           133.2062         estimate D2E/DX2                !
 ! A32   A(11,13,44)           109.5958         estimate D2E/DX2                !
 ! A33   A(14,13,44)           116.9289         estimate D2E/DX2                !
 ! A34   A(13,14,15)           119.688          estimate D2E/DX2                !
 ! A35   A(13,14,19)           121.5196         estimate D2E/DX2                !
 ! A36   A(15,14,19)           118.7924         estimate D2E/DX2                !
 ! A37   A(14,15,16)           117.1675         estimate D2E/DX2                !
 ! A38   A(14,15,37)           123.3965         estimate D2E/DX2                !
 ! A39   A(16,15,37)           119.4202         estimate D2E/DX2                !
 ! A40   A(15,16,17)           123.964          estimate D2E/DX2                !
 ! A41   A(15,16,45)           119.1929         estimate D2E/DX2                !
 ! A42   A(17,16,45)           116.8403         estimate D2E/DX2                !
 ! A43   A(16,17,18)           118.1619         estimate D2E/DX2                !
 ! A44   A(16,17,46)           121.7045         estimate D2E/DX2                !
 ! A45   A(18,17,46)           120.131          estimate D2E/DX2                !
 ! A46   A(17,18,19)           119.1969         estimate D2E/DX2                !
 ! A47   A(17,18,20)           126.1197         estimate D2E/DX2                !
 ! A48   A(19,18,20)           114.6674         estimate D2E/DX2                !
 ! A49   A(14,19,18)           122.69           estimate D2E/DX2                !
 ! A50   A(14,19,47)           117.746          estimate D2E/DX2                !
 ! A51   A(18,19,47)           119.563          estimate D2E/DX2                !
 ! A52   A(18,20,21)           131.5762         estimate D2E/DX2                !
 ! A53   A(18,20,48)           114.022          estimate D2E/DX2                !
 ! A54   A(21,20,48)           114.2206         estimate D2E/DX2                !
 ! A55   A(20,21,22)           116.8157         estimate D2E/DX2                !
 ! A56   A(20,21,36)           122.6346         estimate D2E/DX2                !
 ! A57   A(22,21,36)           120.5406         estimate D2E/DX2                !
 ! A58   A(21,22,23)           122.9987         estimate D2E/DX2                !
 ! A59   A(21,22,27)           118.2794         estimate D2E/DX2                !
 ! A60   A(23,22,27)           118.7215         estimate D2E/DX2                !
 ! A61   A(22,23,24)           120.4479         estimate D2E/DX2                !
 ! A62   A(22,23,49)           119.8553         estimate D2E/DX2                !
 ! A63   A(24,23,49)           119.6718         estimate D2E/DX2                !
 ! A64   A(23,24,25)           121.452          estimate D2E/DX2                !
 ! A65   A(23,24,50)           118.2666         estimate D2E/DX2                !
 ! A66   A(25,24,50)           120.2729         estimate D2E/DX2                !
 ! A67   A(24,25,26)           117.4652         estimate D2E/DX2                !
 ! A68   A(24,25,28)           121.1081         estimate D2E/DX2                !
 ! A69   A(26,25,28)           121.3702         estimate D2E/DX2                !
 ! A70   A(25,26,27)           121.4954         estimate D2E/DX2                !
 ! A71   A(25,26,51)           120.0381         estimate D2E/DX2                !
 ! A72   A(27,26,51)           118.4628         estimate D2E/DX2                !
 ! A73   A(22,27,26)           120.3571         estimate D2E/DX2                !
 ! A74   A(22,27,52)           118.5885         estimate D2E/DX2                !
 ! A75   A(26,27,52)           121.0301         estimate D2E/DX2                !
 ! A76   A(25,28,29)           119.154          estimate D2E/DX2                !
 ! A77   A(25,28,53)           108.943          estimate D2E/DX2                !
 ! A78   A(25,28,54)           107.4755         estimate D2E/DX2                !
 ! A79   A(29,28,53)           106.4544         estimate D2E/DX2                !
 ! A80   A(29,28,54)           107.1653         estimate D2E/DX2                !
 ! A81   A(53,28,54)           107.0823         estimate D2E/DX2                !
 ! A82   A(28,29,30)           119.1347         estimate D2E/DX2                !
 ! A83   A(28,29,35)           118.7319         estimate D2E/DX2                !
 ! A84   A(30,29,35)           110.0214         estimate D2E/DX2                !
 ! A85   A(29,30,31)           114.51           estimate D2E/DX2                !
 ! A86   A(29,30,55)           110.7625         estimate D2E/DX2                !
 ! A87   A(29,30,56)           106.6981         estimate D2E/DX2                !
 ! A88   A(31,30,55)           113.127          estimate D2E/DX2                !
 ! A89   A(31,30,56)           104.8712         estimate D2E/DX2                !
 ! A90   A(55,30,56)           106.1194         estimate D2E/DX2                !
 ! A91   A(30,31,32)           114.7399         estimate D2E/DX2                !
 ! A92   A(30,31,57)           108.1548         estimate D2E/DX2                !
 ! A93   A(30,31,58)           109.1702         estimate D2E/DX2                !
 ! A94   A(32,31,57)           108.8671         estimate D2E/DX2                !
 ! A95   A(32,31,58)           107.4835         estimate D2E/DX2                !
 ! A96   A(57,31,58)           108.2592         estimate D2E/DX2                !
 ! A97   A(31,32,33)           116.3913         estimate D2E/DX2                !
 ! A98   A(31,32,34)           108.7297         estimate D2E/DX2                !
 ! A99   A(33,32,34)           116.4138         estimate D2E/DX2                !
 ! A100  A(32,33,59)           111.1133         estimate D2E/DX2                !
 ! A101  A(32,33,60)           110.1789         estimate D2E/DX2                !
 ! A102  A(32,33,61)           110.1515         estimate D2E/DX2                !
 ! A103  A(59,33,60)           108.8245         estimate D2E/DX2                !
 ! A104  A(59,33,61)           108.7804         estimate D2E/DX2                !
 ! A105  A(60,33,61)           107.7093         estimate D2E/DX2                !
 ! A106  A(32,34,35)           114.8096         estimate D2E/DX2                !
 ! A107  A(32,34,62)           108.7852         estimate D2E/DX2                !
 ! A108  A(32,34,63)           107.5619         estimate D2E/DX2                !
 ! A109  A(35,34,62)           108.2998         estimate D2E/DX2                !
 ! A110  A(35,34,63)           108.6912         estimate D2E/DX2                !
 ! A111  A(62,34,63)           108.544          estimate D2E/DX2                !
 ! A112  A(29,35,34)           114.1978         estimate D2E/DX2                !
 ! A113  A(29,35,64)           107.0003         estimate D2E/DX2                !
 ! A114  A(29,35,65)           110.8354         estimate D2E/DX2                !
 ! A115  A(34,35,64)           105.3576         estimate D2E/DX2                !
 ! A116  A(34,35,65)           112.5236         estimate D2E/DX2                !
 ! A117  A(64,35,65)           106.2974         estimate D2E/DX2                !
 ! A118  A(15,37,66)           111.3729         estimate D2E/DX2                !
 ! A119  A(15,37,67)           111.4554         estimate D2E/DX2                !
 ! A120  A(15,37,68)           112.9531         estimate D2E/DX2                !
 ! A121  A(66,37,67)           107.5403         estimate D2E/DX2                !
 ! A122  A(66,37,68)           106.6781         estimate D2E/DX2                !
 ! A123  A(67,37,68)           106.5097         estimate D2E/DX2                !
 ! D1    D(6,1,2,3)             -0.5896         estimate D2E/DX2                !
 ! D2    D(6,1,2,39)          -179.7664         estimate D2E/DX2                !
 ! D3    D(38,1,2,3)           179.6153         estimate D2E/DX2                !
 ! D4    D(38,1,2,39)            0.4385         estimate D2E/DX2                !
 ! D5    D(2,1,6,5)             -0.387          estimate D2E/DX2                !
 ! D6    D(2,1,6,41)          -179.7792         estimate D2E/DX2                !
 ! D7    D(38,1,6,5)           179.4099         estimate D2E/DX2                !
 ! D8    D(38,1,6,41)            0.0177         estimate D2E/DX2                !
 ! D9    D(1,2,3,4)              1.1502         estimate D2E/DX2                !
 ! D10   D(1,2,3,7)           -179.9438         estimate D2E/DX2                !
 ! D11   D(39,2,3,4)          -179.7022         estimate D2E/DX2                !
 ! D12   D(39,2,3,7)            -0.7962         estimate D2E/DX2                !
 ! D13   D(2,3,4,5)             -0.8791         estimate D2E/DX2                !
 ! D14   D(2,3,4,40)           177.3751         estimate D2E/DX2                !
 ! D15   D(7,3,4,5)           -179.8194         estimate D2E/DX2                !
 ! D16   D(7,3,4,40)            -1.5651         estimate D2E/DX2                !
 ! D17   D(2,3,7,8)             -4.2675         estimate D2E/DX2                !
 ! D18   D(2,3,7,12)           176.0611         estimate D2E/DX2                !
 ! D19   D(4,3,7,8)            174.585          estimate D2E/DX2                !
 ! D20   D(4,3,7,12)            -5.0865         estimate D2E/DX2                !
 ! D21   D(3,4,5,6)             -0.03           estimate D2E/DX2                !
 ! D22   D(40,4,5,6)          -178.3617         estimate D2E/DX2                !
 ! D23   D(4,5,6,1)              0.6927         estimate D2E/DX2                !
 ! D24   D(4,5,6,41)          -179.8877         estimate D2E/DX2                !
 ! D25   D(3,7,8,9)           -177.9872         estimate D2E/DX2                !
 ! D26   D(3,7,8,42)             0.1273         estimate D2E/DX2                !
 ! D27   D(12,7,8,9)             1.6677         estimate D2E/DX2                !
 ! D28   D(12,7,8,42)          179.7822         estimate D2E/DX2                !
 ! D29   D(3,7,12,11)          178.3226         estimate D2E/DX2                !
 ! D30   D(8,7,12,11)           -1.3698         estimate D2E/DX2                !
 ! D31   D(7,8,9,10)            -0.7654         estimate D2E/DX2                !
 ! D32   D(7,8,9,43)           178.9414         estimate D2E/DX2                !
 ! D33   D(42,8,9,10)         -178.9593         estimate D2E/DX2                !
 ! D34   D(42,8,9,43)            0.7475         estimate D2E/DX2                !
 ! D35   D(8,9,10,11)           -0.451          estimate D2E/DX2                !
 ! D36   D(43,9,10,11)         179.8292         estimate D2E/DX2                !
 ! D37   D(9,10,11,12)           0.8524         estimate D2E/DX2                !
 ! D38   D(9,10,11,13)        -179.0618         estimate D2E/DX2                !
 ! D39   D(10,11,12,7)           0.0546         estimate D2E/DX2                !
 ! D40   D(13,11,12,7)         179.9651         estimate D2E/DX2                !
 ! D41   D(10,11,13,14)       -176.0352         estimate D2E/DX2                !
 ! D42   D(10,11,13,44)         -2.3626         estimate D2E/DX2                !
 ! D43   D(12,11,13,14)          4.0468         estimate D2E/DX2                !
 ! D44   D(12,11,13,44)        177.7194         estimate D2E/DX2                !
 ! D45   D(11,13,14,15)        163.038          estimate D2E/DX2                !
 ! D46   D(11,13,14,19)        -17.0791         estimate D2E/DX2                !
 ! D47   D(44,13,14,15)        -10.2746         estimate D2E/DX2                !
 ! D48   D(44,13,14,19)        169.6083         estimate D2E/DX2                !
 ! D49   D(13,14,15,16)       -178.7345         estimate D2E/DX2                !
 ! D50   D(13,14,15,37)         -0.1908         estimate D2E/DX2                !
 ! D51   D(19,14,15,16)          1.3794         estimate D2E/DX2                !
 ! D52   D(19,14,15,37)        179.9231         estimate D2E/DX2                !
 ! D53   D(13,14,19,18)        179.146          estimate D2E/DX2                !
 ! D54   D(13,14,19,47)         -1.2068         estimate D2E/DX2                !
 ! D55   D(15,14,19,18)         -0.9701         estimate D2E/DX2                !
 ! D56   D(15,14,19,47)        178.6771         estimate D2E/DX2                !
 ! D57   D(14,15,16,17)         -0.3469         estimate D2E/DX2                !
 ! D58   D(14,15,16,45)        179.0268         estimate D2E/DX2                !
 ! D59   D(37,15,16,17)       -178.9511         estimate D2E/DX2                !
 ! D60   D(37,15,16,45)          0.4227         estimate D2E/DX2                !
 ! D61   D(14,15,37,66)         64.0112         estimate D2E/DX2                !
 ! D62   D(14,15,37,67)        -56.0904         estimate D2E/DX2                !
 ! D63   D(14,15,37,68)       -175.9604         estimate D2E/DX2                !
 ! D64   D(16,15,37,66)       -117.4762         estimate D2E/DX2                !
 ! D65   D(16,15,37,67)        122.4222         estimate D2E/DX2                !
 ! D66   D(16,15,37,68)          2.5521         estimate D2E/DX2                !
 ! D67   D(15,16,17,18)         -1.1483         estimate D2E/DX2                !
 ! D68   D(15,16,17,46)        179.4453         estimate D2E/DX2                !
 ! D69   D(45,16,17,18)        179.4644         estimate D2E/DX2                !
 ! D70   D(45,16,17,46)          0.058          estimate D2E/DX2                !
 ! D71   D(16,17,18,19)          1.5705         estimate D2E/DX2                !
 ! D72   D(16,17,18,20)       -179.9705         estimate D2E/DX2                !
 ! D73   D(46,17,18,19)       -179.0134         estimate D2E/DX2                !
 ! D74   D(46,17,18,20)         -0.5544         estimate D2E/DX2                !
 ! D75   D(17,18,19,14)         -0.5499         estimate D2E/DX2                !
 ! D76   D(17,18,19,47)        179.8091         estimate D2E/DX2                !
 ! D77   D(20,18,19,14)       -179.1802         estimate D2E/DX2                !
 ! D78   D(20,18,19,47)          1.1788         estimate D2E/DX2                !
 ! D79   D(17,18,20,21)         -8.2299         estimate D2E/DX2                !
 ! D80   D(17,18,20,48)        177.0339         estimate D2E/DX2                !
 ! D81   D(19,18,20,21)        170.2899         estimate D2E/DX2                !
 ! D82   D(19,18,20,48)         -4.4463         estimate D2E/DX2                !
 ! D83   D(18,20,21,22)       -168.2957         estimate D2E/DX2                !
 ! D84   D(18,20,21,36)         12.7959         estimate D2E/DX2                !
 ! D85   D(48,20,21,22)          6.4323         estimate D2E/DX2                !
 ! D86   D(48,20,21,36)       -172.476          estimate D2E/DX2                !
 ! D87   D(20,21,22,23)         35.3801         estimate D2E/DX2                !
 ! D88   D(20,21,22,27)       -144.863          estimate D2E/DX2                !
 ! D89   D(36,21,22,23)       -145.6873         estimate D2E/DX2                !
 ! D90   D(36,21,22,27)         34.0696         estimate D2E/DX2                !
 ! D91   D(21,22,23,24)       -177.5554         estimate D2E/DX2                !
 ! D92   D(21,22,23,49)          0.6209         estimate D2E/DX2                !
 ! D93   D(27,22,23,24)          2.6887         estimate D2E/DX2                !
 ! D94   D(27,22,23,49)       -179.135          estimate D2E/DX2                !
 ! D95   D(21,22,27,26)        177.3987         estimate D2E/DX2                !
 ! D96   D(21,22,27,52)         -0.8248         estimate D2E/DX2                !
 ! D97   D(23,22,27,26)         -2.8338         estimate D2E/DX2                !
 ! D98   D(23,22,27,52)        178.9427         estimate D2E/DX2                !
 ! D99   D(22,23,24,25)         -0.9803         estimate D2E/DX2                !
 ! D100  D(22,23,24,50)        177.9632         estimate D2E/DX2                !
 ! D101  D(49,23,24,25)       -179.1599         estimate D2E/DX2                !
 ! D102  D(49,23,24,50)         -0.2164         estimate D2E/DX2                !
 ! D103  D(23,24,25,26)         -0.6071         estimate D2E/DX2                !
 ! D104  D(23,24,25,28)        176.6951         estimate D2E/DX2                !
 ! D105  D(50,24,25,26)       -179.5297         estimate D2E/DX2                !
 ! D106  D(50,24,25,28)         -2.2275         estimate D2E/DX2                !
 ! D107  D(24,25,26,27)          0.4575         estimate D2E/DX2                !
 ! D108  D(24,25,26,51)        179.7408         estimate D2E/DX2                !
 ! D109  D(28,25,26,27)       -176.8373         estimate D2E/DX2                !
 ! D110  D(28,25,26,51)          2.4461         estimate D2E/DX2                !
 ! D111  D(24,25,28,29)        -82.7451         estimate D2E/DX2                !
 ! D112  D(24,25,28,53)         39.5561         estimate D2E/DX2                !
 ! D113  D(24,25,28,54)        155.2552         estimate D2E/DX2                !
 ! D114  D(26,25,28,29)         94.4513         estimate D2E/DX2                !
 ! D115  D(26,25,28,53)       -143.2476         estimate D2E/DX2                !
 ! D116  D(26,25,28,54)        -27.5484         estimate D2E/DX2                !
 ! D117  D(25,26,27,22)          1.2807         estimate D2E/DX2                !
 ! D118  D(25,26,27,52)        179.4604         estimate D2E/DX2                !
 ! D119  D(51,26,27,22)       -178.0136         estimate D2E/DX2                !
 ! D120  D(51,26,27,52)          0.166          estimate D2E/DX2                !
 ! D121  D(25,28,29,30)         44.959          estimate D2E/DX2                !
 ! D122  D(25,28,29,35)        -93.8538         estimate D2E/DX2                !
 ! D123  D(53,28,29,30)        -78.5691         estimate D2E/DX2                !
 ! D124  D(53,28,29,35)        142.6181         estimate D2E/DX2                !
 ! D125  D(54,28,29,30)        167.113          estimate D2E/DX2                !
 ! D126  D(54,28,29,35)         28.3003         estimate D2E/DX2                !
 ! D127  D(28,29,30,31)        -93.4275         estimate D2E/DX2                !
 ! D128  D(28,29,30,55)         35.9556         estimate D2E/DX2                !
 ! D129  D(28,29,30,56)        151.0253         estimate D2E/DX2                !
 ! D130  D(35,29,30,31)         48.6506         estimate D2E/DX2                !
 ! D131  D(35,29,30,55)        178.0337         estimate D2E/DX2                !
 ! D132  D(35,29,30,56)        -66.8965         estimate D2E/DX2                !
 ! D133  D(28,29,35,34)         93.3526         estimate D2E/DX2                !
 ! D134  D(28,29,35,64)       -150.479          estimate D2E/DX2                !
 ! D135  D(28,29,35,65)        -34.9903         estimate D2E/DX2                !
 ! D136  D(30,29,35,34)        -48.8985         estimate D2E/DX2                !
 ! D137  D(30,29,35,64)         67.27           estimate D2E/DX2                !
 ! D138  D(30,29,35,65)       -177.2413         estimate D2E/DX2                !
 ! D139  D(29,30,31,32)        -52.0271         estimate D2E/DX2                !
 ! D140  D(29,30,31,57)       -173.7496         estimate D2E/DX2                !
 ! D141  D(29,30,31,58)         68.6638         estimate D2E/DX2                !
 ! D142  D(55,30,31,32)        179.7752         estimate D2E/DX2                !
 ! D143  D(55,30,31,57)         58.0527         estimate D2E/DX2                !
 ! D144  D(55,30,31,58)        -59.5338         estimate D2E/DX2                !
 ! D145  D(56,30,31,32)         64.5754         estimate D2E/DX2                !
 ! D146  D(56,30,31,57)        -57.1471         estimate D2E/DX2                !
 ! D147  D(56,30,31,58)       -174.7336         estimate D2E/DX2                !
 ! D148  D(30,31,32,33)        -83.2431         estimate D2E/DX2                !
 ! D149  D(30,31,32,34)         50.5949         estimate D2E/DX2                !
 ! D150  D(57,31,32,33)         38.0906         estimate D2E/DX2                !
 ! D151  D(57,31,32,34)        171.9287         estimate D2E/DX2                !
 ! D152  D(58,31,32,33)        155.1416         estimate D2E/DX2                !
 ! D153  D(58,31,32,34)        -71.0204         estimate D2E/DX2                !
 ! D154  D(31,32,33,59)         64.9995         estimate D2E/DX2                !
 ! D155  D(31,32,33,60)        -55.6922         estimate D2E/DX2                !
 ! D156  D(31,32,33,61)       -174.3826         estimate D2E/DX2                !
 ! D157  D(34,32,33,59)        -65.2952         estimate D2E/DX2                !
 ! D158  D(34,32,33,60)        174.0131         estimate D2E/DX2                !
 ! D159  D(34,32,33,61)         55.3227         estimate D2E/DX2                !
 ! D160  D(31,32,34,35)        -51.0551         estimate D2E/DX2                !
 ! D161  D(31,32,34,62)       -172.5627         estimate D2E/DX2                !
 ! D162  D(31,32,34,63)         70.0503         estimate D2E/DX2                !
 ! D163  D(33,32,34,35)         82.7714         estimate D2E/DX2                !
 ! D164  D(33,32,34,62)        -38.7363         estimate D2E/DX2                !
 ! D165  D(33,32,34,63)       -156.1232         estimate D2E/DX2                !
 ! D166  D(32,34,35,29)         52.7738         estimate D2E/DX2                !
 ! D167  D(32,34,35,64)        -64.3446         estimate D2E/DX2                !
 ! D168  D(32,34,35,65)       -179.7451         estimate D2E/DX2                !
 ! D169  D(62,34,35,29)        174.5456         estimate D2E/DX2                !
 ! D170  D(62,34,35,64)         57.4272         estimate D2E/DX2                !
 ! D171  D(62,34,35,65)        -57.9733         estimate D2E/DX2                !
 ! D172  D(63,34,35,29)        -67.7113         estimate D2E/DX2                !
 ! D173  D(63,34,35,64)        175.1703         estimate D2E/DX2                !
 ! D174  D(63,34,35,65)         59.7698         estimate D2E/DX2                !
 --------------------------------------------------------------------------------
 Trust Radius=3.00D-01 FncErr=1.00D-07 GrdErr=1.00D-06
 Number of steps in this run= 400 maximum allowed number of steps= 408.
 GradGradGradGradGradGradGradGradGradGradGradGradGradGradGradGradGradGrad

 Leave Link  103 at Wed Mar 11 00:05:06 2020, MaxMem= 2684354560 cpu:       0.1
 (Enter /opt/g09gh/gaussian/g09/l202.exe)
 Stoichiometry    C29H31N7O
 Framework group  C1[X(C29H31N7O)]
 Deg. of freedom   198
 Full point group                 C1      NOp   1
 Largest Abelian subgroup         C1      NOp   1
 Largest concise Abelian subgroup C1      NOp   1
                         Standard orientation:                         
 ---------------------------------------------------------------------
 Center     Atomic      Atomic             Coordinates (Angstroms)
 Number     Number       Type             X           Y           Z
 ---------------------------------------------------------------------
      1          6           0        0.394890    4.676018   -1.249466
      2          6           0        1.684786    4.442775   -0.752635
      3          6           0        2.138095    3.122105   -0.562407
      4          6           0        1.224439    2.101968   -0.926836
      5          7           0       -0.008638    2.302337   -1.408726
      6          6           0       -0.410496    3.573623   -1.557496
      7          6           0        3.508698    2.776736   -0.031939
      8          6           0        4.530576    3.694699    0.258299
      9          6           0        5.736698    3.139076    0.700319
     10          7           0        5.950244    1.836757    0.867111
     11          6           0        4.905404    1.029019    0.589091
     12          7           0        3.717216    1.459066    0.154543
     13          7           0        5.127859   -0.327442    0.784436
     14          6           0        4.328008   -1.504496    0.544396
     15          6           0        4.952131   -2.788126    0.507447
     16          6           0        4.127480   -3.895433    0.242710
     17          6           0        2.747259   -3.808309    0.023833
     18          6           0        2.146045   -2.547845    0.094958
     19          6           0        2.944720   -1.421549    0.347489
     20          7           0        0.757571   -2.263923   -0.097891
     21          6           0       -0.283390   -3.051623   -0.529066
     22          6           0       -1.580234   -2.343820   -0.873196
     23          6           0       -1.623199   -1.069493   -1.463974
     24          6           0       -2.846937   -0.445635   -1.711740
     25          6           0       -4.067896   -1.073565   -1.400487
     26          6           0       -4.010148   -2.364290   -0.839969
     27          6           0       -2.790310   -2.998002   -0.591180
     28          6           0       -5.402332   -0.353213   -1.605811
     29          7           0       -5.884720    0.579288   -0.565498
     30          6           0       -4.936498    1.552041    0.027519
     31          6           0       -4.248462    1.067509    1.330763
     32          7           0       -5.176385    0.578532    2.376799
     33          6           0       -5.786550    1.599105    3.236062
     34          6           0       -6.098619   -0.409625    1.770426
     35          6           0       -6.805700    0.069066    0.476456
     36          8           0       -0.196756   -4.266163   -0.618736
     37          6           0        6.443238   -2.998784    0.705733
     38          1           0        0.023363    5.685568   -1.397776
     39          1           0        2.306555    5.301170   -0.510662
     40          1           0        1.518749    1.061325   -0.848857
     41          1           0       -1.417285    3.711128   -1.949068
     42          1           0        4.438712    4.766383    0.130977
     43          1           0        6.585357    3.782625    0.930173
     44          1           0        6.082513   -0.475291    1.075898
     45          1           0        4.571951   -4.888681    0.191063
     46          1           0        2.147614   -4.685748   -0.186123
     47          1           0        2.487965   -0.446910    0.400457
     48          1           0        0.512828   -1.293616    0.042060
     49          1           0       -0.697003   -0.552170   -1.703214
     50          1           0       -2.838017    0.556427   -2.140130
     51          1           0       -4.929920   -2.887379   -0.579033
     52          1           0       -2.754354   -3.991085   -0.150159
     53          1           0       -5.357522    0.221038   -2.542176
     54          1           0       -6.176823   -1.123322   -1.735835
     55          1           0       -4.289959    1.879299   -0.658771
     56          1           0       -5.794542    2.818110    0.465223
     57          1           0       -3.475680    2.165669    1.867411
     58          1           0       -3.368623    0.019376    1.024702
     59          1           0       -6.445856    2.257798    2.659510
     60          1           0       -5.008597    2.206489    3.712552
     61          1           0       -6.371311    1.122765    4.031192
     62          1           0       -7.108582   -0.754534    2.736181
     63          1           0       -5.351548   -1.560706    1.475296
     64          1           0       -7.713561    1.276553    0.919680
     65          1           0       -7.454217   -0.657593    0.079271
     66          1           0        6.758654   -2.703239    1.716377
     67          1           0        7.031535   -2.408257   -0.010874
     68          1           0        6.749447   -4.045775    0.573342
 ---------------------------------------------------------------------
 Rotational constants (GHZ):      0.1339749      0.0567357      0.0443482
 Leave Link  202 at Wed Mar 11 00:05:06 2020, MaxMem= 2684354560 cpu:       0.0
 (Enter /opt/g09gh/gaussian/g09/l301.exe)
 Standard basis: 6-31G(d) (6D, 7F)
 Ernie: Thresh=  0.10000D-02 Tol=  0.10000D-05 Strict=F.
 There are   617 symmetry adapted basis functions of A   symmetry.
 Integral buffers will be    131072 words long.
 Raffenetti 2 integral format.
 Two-electron integral symmetry is turned on.
   617 basis functions,  1160 primitive gaussians,   617 cartesian basis functions
   131 alpha electrons      131 beta electrons
       nuclear repulsion energy      3755.7249018417 Hartrees.
 IExCor= 4639 DFT=T Ex+Corr=wB97XD ExCW=0 ScaHFX=  1.000000
 ScaDFX=  1.000000  1.000000  1.000000  1.000000 ScalE2=  1.000000  1.000000
 IRadAn=      0 IRanWt=     -1 IRanGd=            0 ICorTp=0
  HFx wShort=  0.000000 wLong=  0.200000 cFull=  0.222036 cShort=  0.000000 cLong=  0.777964
  DFx wShort=  0.000000 wLong=  0.200000 cFull=  0.000000 cShort=  0.000000 cLong=  1.000000
 NAtoms=   68 NActive=   68 NUniq=   68 SFac= 7.50D-01 NAtFMM=   80 NAOKFM=F Big=T
 R6Disp: Dispersion energy =        -0.0579631867 Hartrees.
 Nuclear repulsion after empirical dispersion term =     3755.6669386551 Hartrees.
 Leave Link  301 at Wed Mar 11 00:05:06 2020, MaxMem= 2684354560 cpu:       0.3
 (Enter /opt/g09gh/gaussian/g09/l302.exe)
 NPDir=0 NMtPBC=     1 NCelOv=     1 NCel=       1 NClECP=     1 NCelD=      1
         NCelK=      1 NCelE2=     1 NClLst=     1 CellRange=     0.0.
 One-electron integrals computed using PRISM.
 NBasis=   617 RedAO= T  NBF=   617
 NBsUse=   617 1.00D-06 NBFU=   617
 Precomputing XC quadrature grid using
 IXCGrd= 2 IRadAn=           0 IRanWt=          -1 IRanGd=           0 AccXCQ= 1.00D-10.
 NRdTot=    4377 NPtTot=      559232 NUsed=      590768 NTot=      590800
 NSgBfM=   600   600   600   600   600 NAtAll=    68    68.
 Leave Link  302 at Wed Mar 11 00:05:08 2020, MaxMem= 2684354560 cpu:       7.9
 (Enter /opt/g09gh/gaussian/g09/l303.exe)
 DipDrv:  MaxL=1.
 Leave Link  303 at Wed Mar 11 00:05:08 2020, MaxMem= 2684354560 cpu:       0.5
 (Enter /opt/g09gh/gaussian/g09/l401.exe)
 Harris functional with IExCor= 4639 diagonalized for initial guess.
 ExpMin= 1.61D-01 ExpMax= 5.48D+03 ExpMxC= 8.25D+02 IAcc=1 IRadAn=         1 AccDes= 0.00D+00
 HarFok:  IExCor= 4639 AccDes= 0.00D+00 IRadAn=         1 IDoV= 1
 ScaDFX=  1.000000  1.000000  1.000000  1.000000
 FoFCou: FMM=F IPFlag=           0 FMFlag=      100000 FMFlg1=           1
         NFxFlg=           0 DoJE=T BraDBF=F KetDBF=T FulRan=T
         Omega=  0.000000  0.000000  1.000000  0.000000  0.000000 ICntrl=     500 IOpCl=  0
         NMat0=    1 NMatS0=    1 NMatT0=    0 NMatD0=    1 NMtDS0=    0 NMtDT0=    0
         I1Cent=           4 NGrid=           0.
 Petite list used in FoFCou.
 Harris En= -1512.36325287617    
 Initial guess orbital symmetries:
       Occupied  (A) (A) (A) (A) (A) (A) (A) (A) (A) (A) (A) (A)
                 (A) (A) (A) (A) (A) (A) (A) (A) (A) (A) (A) (A)
                 (A) (A) (A) (A) (A) (A) (A) (A) (A) (A) (A) (A)
                 (A) (A) (A) (A) (A) (A) (A) (A) (A) (A) (A) (A)
                 (A) (A) (A) (A) (A) (A) (A) (A) (A) (A) (A) (A)
                 (A) (A) (A) (A) (A) (A) (A) (A) (A) (A) (A) (A)
                 (A) (A) (A) (A) (A) (A) (A) (A) (A) (A) (A) (A)
                 (A) (A) (A) (A) (A) (A) (A) (A) (A) (A) (A) (A)
                 (A) (A) (A) (A) (A) (A) (A) (A) (A) (A) (A) (A)
                 (A) (A) (A) (A) (A) (A) (A) (A) (A) (A) (A) (A)
                 (A) (A) (A) (A) (A) (A) (A) (A) (A) (A) (A)
       Virtual   (A) (A) (A) (A) (A) (A) (A) (A) (A) (A) (A) (A)
                 (A) (A) (A) (A) (A) (A) (A) (A) (A) (A) (A) (A)
                 (A) (A) (A) (A) (A) (A) (A) (A) (A) (A) (A) (A)
                 (A) (A) (A) (A) (A) (A) (A) (A) (A) (A) (A) (A)
                 (A) (A) (A) (A) (A) (A) (A) (A) (A) (A) (A) (A)
                 (A) (A) (A) (A) (A) (A) (A) (A) (A) (A) (A) (A)
                 (A) (A) (A) (A) (A) (A) (A) (A) (A) (A) (A) (A)
                 (A) (A) (A) (A) (A) (A) (A) (A) (A) (A) (A) (A)
                 (A) (A) (A) (A) (A) (A) (A) (A) (A) (A) (A) (A)
                 (A) (A) (A) (A) (A) (A) (A) (A) (A) (A) (A) (A)
                 (A) (A) (A) (A) (A) (A) (A) (A) (A) (A) (A) (A)
                 (A) (A) (A) (A) (A) (A) (A) (A) (A) (A) (A) (A)
                 (A) (A) (A) (A) (A) (A) (A) (A) (A) (A) (A) (A)
                 (A) (A) (A) (A) (A) (A) (A) (A) (A) (A) (A) (A)
                 (A) (A) (A) (A) (A) (A) (A) (A) (A) (A) (A) (A)
                 (A) (A) (A) (A) (A) (A) (A) (A) (A) (A) (A) (A)
                 (A) (A) (A) (A) (A) (A) (A) (A) (A) (A) (A) (A)
                 (A) (A) (A) (A) (A) (A) (A) (A) (A) (A) (A) (A)
                 (A) (A) (A) (A) (A) (A) (A) (A) (A) (A) (A) (A)
                 (A) (A) (A) (A) (A) (A) (A) (A) (A) (A) (A) (A)
                 (A) (A) (A) (A) (A) (A) (A) (A) (A) (A) (A) (A)
                 (A) (A) (A) (A) (A) (A) (A) (A) (A) (A) (A) (A)
                 (A) (A) (A) (A) (A) (A) (A) (A) (A) (A) (A) (A)
                 (A) (A) (A) (A) (A) (A) (A) (A) (A) (A) (A) (A)
                 (A) (A) (A) (A) (A) (A) (A) (A) (A) (A) (A) (A)
                 (A) (A) (A) (A) (A) (A) (A) (A) (A) (A) (A) (A)
                 (A) (A) (A) (A) (A) (A) (A) (A) (A) (A) (A) (A)
                 (A) (A) (A) (A) (A) (A) (A) (A) (A) (A) (A) (A)
                 (A) (A) (A) (A) (A) (A) (A) (A) (A) (A) (A) (A)
                 (A) (A) (A) (A) (A) (A) (A) (A) (A) (A) (A) (A)
                 (A) (A) (A) (A) (A) (A) (A) (A) (A) (A) (A) (A)
                 (A) (A) (A) (A) (A) (A) (A) (A) (A) (A) (A) (A)
                 (A) (A) (A) (A) (A) (A) (A) (A) (A) (A) (A) (A)
                 (A) (A) (A) (A) (A) (A) (A) (A) (A) (A) (A) (A)
                 (A) (A) (A) (A) (A) (A) (A) (A) (A) (A) (A) (A)
                 (A) (A) (A) (A) (A) (A) (A) (A) (A) (A) (A) (A)
                 (A) (A) (A) (A) (A) (A) (A) (A) (A) (A) (A) (A)
                 (A) (A) (A) (A) (A) (A) (A) (A) (A) (A) (A) (A)
                 (A) (A) (A) (A) (A) (A) (A) (A) (A) (A) (A) (A)
                 (A) (A) (A) (A) (A) (A) (A) (A) (A) (A) (A) (A)
                 (A) (A) (A) (A) (A) (A)
 The electronic state of the initial guess is 1-A.
 Leave Link  401 at Wed Mar 11 00:05:10 2020, MaxMem= 2684354560 cpu:      14.7
 (Enter /opt/g09gh/gaussian/g09/l502.exe)
 Closed shell SCF:
 Requested convergence on RMS density matrix=1.00D-08 within 128 cycles.
 Requested convergence on MAX density matrix=1.00D-06.
 Requested convergence on             energy=1.00D-06.
 No special actions if energy rises.
 Using DIIS extrapolation, IDIIS=  1040.
 Integral symmetry usage will be decided dynamically.
       590143 words used for storage of precomputed grid.
 IEnd=     1758723 IEndB=     1758723 NGot=  2684354560 MDV=  2682993784
 LenX=  2682993784 LenY=  2682612478
 Fock matrices will be formed incrementally for  20 cycles.
 Integral accuracy reduced to 1.0D-05 until final iterations.

 Cycle   1  Pass 0  IDiag  1:
 FoFJK:  IHMeth= 1 ICntrl=     0 DoSepK=T KAlg= 1 I1Cent= 0 FoldK=F
 FoFCou: FMM=T IPFlag=           0 FMFlag=      100000 FMFlg1=           1
         NFxFlg=           0 DoJE=T BraDBF=F KetDBF=F FulRan=T
         Omega=  0.000000  0.000000  1.000000  0.000000  0.000000 ICntrl=     500 IOpCl=  0
         NMat0=    1 NMatS0=    1 NMatT0=    0 NMatD0=    1 NMtDS0=    0 NMtDT0=    0
         I1Cent=           0 NGrid=           0.
 Symmetry not used in FoFCou.
 FMM levels:  10  Number of levels for PrismC:   9
 E= -1581.09924398729    
 DIIS: error= 5.41D-02 at cycle   1 NSaved=   1.
 NSaved= 1 IEnMin= 1 EnMin= -1581.09924398729     IErMin= 1 ErrMin= 5.41D-02
 ErrMax= 5.41D-02 EMaxC= 1.00D-01 BMatC= 1.47D+00 BMatP= 1.47D+00
 IDIUse=3 WtCom= 4.59D-01 WtEn= 5.41D-01
 Coeff-Com:  0.100D+01
 Coeff-En:   0.100D+01
 Coeff:      0.100D+01
 Gap=     0.275 Goal=   None    Shift=    0.000
 GapD=    0.275 DampG=1.000 DampE=0.500 DampFc=0.5000 IDamp=-1.
 Damping current iteration by 5.00D-01
 RMSDP=1.90D-03 MaxDP=8.88D-02              OVMax= 1.71D-01

 Cycle   2  Pass 0  IDiag  1:
 RMSU=  6.71D-04    CP:  1.00D+00
 FoFJK:  IHMeth= 1 ICntrl=     0 DoSepK=T KAlg= 1 I1Cent= 0 FoldK=F
 E= -1581.27786682646     Delta-E=       -0.178622839177 Rises=F Damp=T
 DIIS: error= 2.78D-02 at cycle   2 NSaved=   2.
 NSaved= 2 IEnMin= 2 EnMin= -1581.27786682646     IErMin= 2 ErrMin= 2.78D-02
 ErrMax= 2.78D-02 EMaxC= 1.00D-01 BMatC= 3.23D-01 BMatP= 1.47D+00
 IDIUse=3 WtCom= 7.22D-01 WtEn= 2.78D-01
 Coeff-Com: -0.643D+00 0.164D+01
 Coeff-En:   0.000D+00 0.100D+01
 Coeff:     -0.464D+00 0.146D+01
 Gap=     0.279 Goal=   None    Shift=    0.000
 RMSDP=8.81D-04 MaxDP=3.84D-02 DE=-1.79D-01 OVMax= 1.21D-01

 Cycle   3  Pass 0  IDiag  1:
 RMSU=  5.72D-04    CP:  1.00D+00  1.37D+00
 FoFJK:  IHMeth= 1 ICntrl=     0 DoSepK=T KAlg= 1 I1Cent= 0 FoldK=F
 E= -1581.40776661871     Delta-E=       -0.129899792245 Rises=F Damp=F
 DIIS: error= 7.82D-03 at cycle   3 NSaved=   3.
 NSaved= 3 IEnMin= 3 EnMin= -1581.40776661871     IErMin= 3 ErrMin= 7.82D-03
 ErrMax= 7.82D-03 EMaxC= 1.00D-01 BMatC= 6.56D-02 BMatP= 3.23D-01
 IDIUse=3 WtCom= 9.22D-01 WtEn= 7.82D-02
 Coeff-Com: -0.364D+00 0.753D+00 0.611D+00
 Coeff-En:   0.000D+00 0.000D+00 0.100D+01
 Coeff:     -0.336D+00 0.694D+00 0.642D+00
 Gap=     0.262 Goal=   None    Shift=    0.000
 RMSDP=4.81D-04 MaxDP=3.12D-02 DE=-1.30D-01 OVMax= 6.20D-02

 Cycle   4  Pass 0  IDiag  1:
 RMSU=  1.44D-04    CP:  1.00D+00  1.66D+00  5.91D-01
 FoFJK:  IHMeth= 1 ICntrl=     0 DoSepK=T KAlg= 1 I1Cent= 0 FoldK=F
 E= -1581.46598434209     Delta-E=       -0.058217723387 Rises=F Damp=F
 DIIS: error= 2.28D-03 at cycle   4 NSaved=   4.
 NSaved= 4 IEnMin= 4 EnMin= -1581.46598434209     IErMin= 4 ErrMin= 2.28D-03
 ErrMax= 2.28D-03 EMaxC= 1.00D-01 BMatC= 3.81D-03 BMatP= 6.56D-02
 IDIUse=3 WtCom= 9.77D-01 WtEn= 2.28D-02
 Coeff-Com: -0.163D+00 0.333D+00 0.345D+00 0.485D+00
 Coeff-En:   0.000D+00 0.000D+00 0.000D+00 0.100D+01
 Coeff:     -0.160D+00 0.325D+00 0.337D+00 0.497D+00
 Gap=     0.255 Goal=   None    Shift=    0.000
 RMSDP=1.05D-04 MaxDP=8.97D-03 DE=-5.82D-02 OVMax= 1.03D-02

 Cycle   5  Pass 0  IDiag  1:
 RMSU=  4.64D-05    CP:  1.00D+00  1.65D+00  6.59D-01  7.18D-01
 FoFJK:  IHMeth= 1 ICntrl=     0 DoSepK=T KAlg= 1 I1Cent= 0 FoldK=F
 E= -1581.46932549904     Delta-E=       -0.003341156943 Rises=F Damp=F
 DIIS: error= 4.32D-04 at cycle   5 NSaved=   5.
 NSaved= 5 IEnMin= 5 EnMin= -1581.46932549904     IErMin= 5 ErrMin= 4.32D-04
 ErrMax= 4.32D-04 EMaxC= 1.00D-01 BMatC= 8.94D-05 BMatP= 3.81D-03
 IDIUse=3 WtCom= 9.96D-01 WtEn= 4.32D-03
 Coeff-Com: -0.141D-01 0.277D-01 0.504D-01 0.155D+00 0.781D+00
 Coeff-En:   0.000D+00 0.000D+00 0.000D+00 0.000D+00 0.100D+01
 Coeff:     -0.140D-01 0.276D-01 0.502D-01 0.154D+00 0.782D+00
 Gap=     0.254 Goal=   None    Shift=    0.000
 RMSDP=2.48D-05 MaxDP=2.52D-03 DE=-3.34D-03 OVMax= 2.97D-03

 Cycle   6  Pass 0  IDiag  1:
 RMSU=  1.34D-05    CP:  1.00D+00  1.65D+00  6.66D-01  7.87D-01  9.96D-01
 FoFJK:  IHMeth= 1 ICntrl=     0 DoSepK=T KAlg= 1 I1Cent= 0 FoldK=F
 E= -1581.46941556223     Delta-E=       -0.000090063189 Rises=F Damp=F
 DIIS: error= 3.07D-04 at cycle   6 NSaved=   6.
 NSaved= 6 IEnMin= 6 EnMin= -1581.46941556223     IErMin= 6 ErrMin= 3.07D-04
 ErrMax= 3.07D-04 EMaxC= 1.00D-01 BMatC= 2.73D-05 BMatP= 8.94D-05
 IDIUse=3 WtCom= 9.97D-01 WtEn= 3.07D-03
 Coeff-Com:  0.235D-01-0.487D-01-0.372D-01-0.158D-01 0.398D+00 0.680D+00
 Coeff-En:   0.000D+00 0.000D+00 0.000D+00 0.000D+00 0.000D+00 0.100D+01
 Coeff:      0.235D-01-0.485D-01-0.371D-01-0.157D-01 0.397D+00 0.681D+00
 Gap=     0.255 Goal=   None    Shift=    0.000
 RMSDP=1.33D-05 MaxDP=8.18D-04 DE=-9.01D-05 OVMax= 1.75D-03

 Cycle   7  Pass 0  IDiag  1:
 RMSU=  5.83D-06    CP:  1.00D+00  1.65D+00  6.70D-01  8.14D-01  1.11D+00
                    CP:  8.94D-01
 FoFJK:  IHMeth= 1 ICntrl=     0 DoSepK=T KAlg= 1 I1Cent= 0 FoldK=F
 E= -1581.46944659896     Delta-E=       -0.000031036737 Rises=F Damp=F
 DIIS: error= 5.91D-05 at cycle   7 NSaved=   7.
 NSaved= 7 IEnMin= 7 EnMin= -1581.46944659896     IErMin= 7 ErrMin= 5.91D-05
 ErrMax= 5.91D-05 EMaxC= 1.00D-01 BMatC= 1.77D-06 BMatP= 2.73D-05
 IDIUse=1 WtCom= 1.00D+00 WtEn= 0.00D+00
 Coeff-Com:  0.968D-02-0.198D-01-0.172D-01-0.205D-01 0.647D-01 0.237D+00
 Coeff-Com:  0.746D+00
 Coeff:      0.968D-02-0.198D-01-0.172D-01-0.205D-01 0.647D-01 0.237D+00
 Coeff:      0.746D+00
 Gap=     0.255 Goal=   None    Shift=    0.000
 RMSDP=4.18D-06 MaxDP=2.64D-04 DE=-3.10D-05 OVMax= 6.38D-04

 Initial convergence to 1.0D-05 achieved.  Increase integral accuracy.
 Cycle   8  Pass 1  IDiag  1:
 FoFJK:  IHMeth= 1 ICntrl=     0 DoSepK=T KAlg= 1 I1Cent= 0 FoldK=F
 E= -1581.46775988878     Delta-E=        0.001686710181 Rises=F Damp=F
 DIIS: error= 1.11D-04 at cycle   1 NSaved=   1.
 NSaved= 1 IEnMin= 1 EnMin= -1581.46775988878     IErMin= 1 ErrMin= 1.11D-04
 ErrMax= 1.11D-04 EMaxC= 1.00D-01 BMatC= 1.29D-05 BMatP= 1.29D-05
 IDIUse=3 WtCom= 9.99D-01 WtEn= 1.11D-03
 Coeff-Com:  0.100D+01
 Coeff-En:   0.100D+01
 Coeff:      0.100D+01
 Gap=     0.255 Goal=   None    Shift=    0.000
 RMSDP=4.18D-06 MaxDP=2.64D-04 DE= 1.69D-03 OVMax= 3.96D-04

 Cycle   9  Pass 1  IDiag  1:
 RMSU=  1.84D-05    CP:  1.00D+00
 FoFJK:  IHMeth= 1 ICntrl=     0 DoSepK=T KAlg= 1 I1Cent= 0 FoldK=F
 E= -1581.46776975296     Delta-E=       -0.000009864178 Rises=F Damp=F
 DIIS: error= 3.84D-05 at cycle   2 NSaved=   2.
 NSaved= 2 IEnMin= 2 EnMin= -1581.46776975296     IErMin= 2 ErrMin= 3.84D-05
 ErrMax= 3.84D-05 EMaxC= 1.00D-01 BMatC= 8.87D-07 BMatP= 1.29D-05
 IDIUse=1 WtCom= 1.00D+00 WtEn= 0.00D+00
 Coeff-Com:  0.549D-01 0.945D+00
 Coeff:      0.549D-01 0.945D+00
 Gap=     0.255 Goal=   None    Shift=    0.000
 RMSDP=3.28D-06 MaxDP=2.75D-04 DE=-9.86D-06 OVMax= 3.49D-04

 Cycle  10  Pass 1  IDiag  1:
 RMSU=  2.17D-06    CP:  1.00D+00  1.04D+00
 FoFJK:  IHMeth= 1 ICntrl=     0 DoSepK=T KAlg= 1 I1Cent= 0 FoldK=F
 E= -1581.46776983713     Delta-E=       -0.000000084171 Rises=F Damp=F
 DIIS: error= 4.70D-05 at cycle   3 NSaved=   3.
 NSaved= 3 IEnMin= 3 EnMin= -1581.46776983713     IErMin= 2 ErrMin= 3.84D-05
 ErrMax= 4.70D-05 EMaxC= 1.00D-01 BMatC= 1.05D-06 BMatP= 8.87D-07
 IDIUse=1 WtCom= 1.00D+00 WtEn= 0.00D+00
 Coeff-Com: -0.374D-01 0.534D+00 0.504D+00
 Coeff:     -0.374D-01 0.534D+00 0.504D+00
 Gap=     0.255 Goal=   None    Shift=    0.000
 RMSDP=1.63D-06 MaxDP=1.60D-04 DE=-8.42D-08 OVMax= 1.43D-04

 Cycle  11  Pass 1  IDiag  1:
 RMSU=  6.38D-07    CP:  1.00D+00  1.06D+00  5.72D-01
 FoFJK:  IHMeth= 1 ICntrl=     0 DoSepK=T KAlg= 1 I1Cent= 0 FoldK=F
 E= -1581.46777072555     Delta-E=       -0.000000888421 Rises=F Damp=F
 DIIS: error= 7.69D-06 at cycle   4 NSaved=   4.
 NSaved= 4 IEnMin= 4 EnMin= -1581.46777072555     IErMin= 4 ErrMin= 7.69D-06
 ErrMax= 7.69D-06 EMaxC= 1.00D-01 BMatC= 2.60D-08 BMatP= 8.87D-07
 IDIUse=1 WtCom= 1.00D+00 WtEn= 0.00D+00
 Coeff-Com: -0.186D-01 0.149D+00 0.188D+00 0.682D+00
 Coeff:     -0.186D-01 0.149D+00 0.188D+00 0.682D+00
 Gap=     0.255 Goal=   None    Shift=    0.000
 RMSDP=3.41D-07 MaxDP=3.75D-05 DE=-8.88D-07 OVMax= 3.95D-05

 Cycle  12  Pass 1  IDiag  1:
 RMSU=  2.21D-07    CP:  1.00D+00  1.06D+00  6.15D-01  1.01D+00
 FoFJK:  IHMeth= 1 ICntrl=     0 DoSepK=T KAlg= 1 I1Cent= 0 FoldK=F
 E= -1581.46777075134     Delta-E=       -0.000000025792 Rises=F Damp=F
 DIIS: error= 3.35D-06 at cycle   5 NSaved=   5.
 NSaved= 5 IEnMin= 5 EnMin= -1581.46777075134     IErMin= 5 ErrMin= 3.35D-06
 ErrMax= 3.35D-06 EMaxC= 1.00D-01 BMatC= 5.02D-09 BMatP= 2.60D-08
 IDIUse=1 WtCom= 1.00D+00 WtEn= 0.00D+00
 Coeff-Com: -0.662D-04-0.409D-01-0.220D-01 0.281D+00 0.782D+00
 Coeff:     -0.662D-04-0.409D-01-0.220D-01 0.281D+00 0.782D+00
 Gap=     0.255 Goal=   None    Shift=    0.000
 RMSDP=2.08D-07 MaxDP=1.16D-05 DE=-2.58D-08 OVMax= 3.06D-05

 Cycle  13  Pass 1  IDiag  1:
 RMSU=  9.46D-08    CP:  1.00D+00  1.06D+00  6.32D-01  1.18D+00  9.76D-01
 FoFJK:  IHMeth= 1 ICntrl=     0 DoSepK=T KAlg= 1 I1Cent= 0 FoldK=F
 E= -1581.46777075907     Delta-E=       -0.000000007730 Rises=F Damp=F
 DIIS: error= 7.66D-07 at cycle   6 NSaved=   6.
 NSaved= 6 IEnMin= 6 EnMin= -1581.46777075907     IErMin= 6 ErrMin= 7.66D-07
 ErrMax= 7.66D-07 EMaxC= 1.00D-01 BMatC= 5.91D-10 BMatP= 5.02D-09
 IDIUse=1 WtCom= 1.00D+00 WtEn= 0.00D+00
 Coeff-Com:  0.216D-02-0.307D-01-0.300D-01 0.183D-01 0.278D+00 0.762D+00
 Coeff:      0.216D-02-0.307D-01-0.300D-01 0.183D-01 0.278D+00 0.762D+00
 Gap=     0.255 Goal=   None    Shift=    0.000
 RMSDP=8.39D-08 MaxDP=3.57D-06 DE=-7.73D-09 OVMax= 1.74D-05

 Cycle  14  Pass 1  IDiag  1:
 RMSU=  3.70D-08    CP:  1.00D+00  1.06D+00  6.35D-01  1.23D+00  1.12D+00
                    CP:  1.06D+00
 FoFJK:  IHMeth= 1 ICntrl=     0 DoSepK=T KAlg= 1 I1Cent= 0 FoldK=F
 E= -1581.46777076039     Delta-E=       -0.000000001315 Rises=F Damp=F
 DIIS: error= 3.55D-07 at cycle   7 NSaved=   7.
 NSaved= 7 IEnMin= 7 EnMin= -1581.46777076039     IErMin= 7 ErrMin= 3.55D-07
 ErrMax= 3.55D-07 EMaxC= 1.00D-01 BMatC= 1.34D-10 BMatP= 5.91D-10
 IDIUse=1 WtCom= 1.00D+00 WtEn= 0.00D+00
 Coeff-Com:  0.810D-03-0.355D-02-0.809D-02-0.570D-01-0.591D-01 0.300D+00
 Coeff-Com:  0.827D+00
 Coeff:      0.810D-03-0.355D-02-0.809D-02-0.570D-01-0.591D-01 0.300D+00
 Coeff:      0.827D+00
 Gap=     0.255 Goal=   None    Shift=    0.000
 RMSDP=4.99D-08 MaxDP=2.24D-06 DE=-1.32D-09 OVMax= 9.62D-06

 Cycle  15  Pass 1  IDiag  1:
 RMSU=  1.61D-08    CP:  1.00D+00  1.06D+00  6.39D-01  1.26D+00  1.18D+00
                    CP:  1.28D+00  1.07D+00
 FoFJK:  IHMeth= 1 ICntrl=     0 DoSepK=T KAlg= 1 I1Cent= 0 FoldK=F
 E= -1581.46777076074     Delta-E=       -0.000000000347 Rises=F Damp=F
 DIIS: error= 1.55D-07 at cycle   8 NSaved=   8.
 NSaved= 8 IEnMin= 8 EnMin= -1581.46777076074     IErMin= 8 ErrMin= 1.55D-07
 ErrMax= 1.55D-07 EMaxC= 1.00D-01 BMatC= 1.98D-11 BMatP= 1.34D-10
 IDIUse=1 WtCom= 1.00D+00 WtEn= 0.00D+00
 Coeff-Com: -0.664D-04 0.396D-02 0.210D-02-0.235D-01-0.641D-01-0.908D-02
 Coeff-Com:  0.310D+00 0.781D+00
 Coeff:     -0.664D-04 0.396D-02 0.210D-02-0.235D-01-0.641D-01-0.908D-02
 Coeff:      0.310D+00 0.781D+00
 Gap=     0.255 Goal=   None    Shift=    0.000
 RMSDP=1.80D-08 MaxDP=9.22D-07 DE=-3.47D-10 OVMax= 4.57D-06

 Cycle  16  Pass 1  IDiag  1:
 RMSU=  6.41D-09    CP:  1.00D+00  1.06D+00  6.39D-01  1.26D+00  1.20D+00
                    CP:  1.34D+00  1.26D+00  1.05D+00
 FoFJK:  IHMeth= 1 ICntrl=     0 DoSepK=T KAlg= 1 I1Cent= 0 FoldK=F
 E= -1581.46777076080     Delta-E=       -0.000000000061 Rises=F Damp=F
 DIIS: error= 5.55D-08 at cycle   9 NSaved=   9.
 NSaved= 9 IEnMin= 9 EnMin= -1581.46777076080     IErMin= 9 ErrMin= 5.55D-08
 ErrMax= 5.55D-08 EMaxC= 1.00D-01 BMatC= 3.46D-12 BMatP= 1.98D-11
 IDIUse=1 WtCom= 1.00D+00 WtEn= 0.00D+00
 Coeff-Com: -0.183D-03 0.229D-02 0.246D-02 0.118D-02-0.150D-01-0.657D-01
 Coeff-Com: -0.383D-01 0.285D+00 0.829D+00
 Coeff:     -0.183D-03 0.229D-02 0.246D-02 0.118D-02-0.150D-01-0.657D-01
 Coeff:     -0.383D-01 0.285D+00 0.829D+00
 Gap=     0.255 Goal=   None    Shift=    0.000
 RMSDP=8.45D-09 MaxDP=4.77D-07 DE=-6.09D-11 OVMax= 2.10D-06

 SCF Done:  E(RwB97XD) =  -1581.46777076     A.U. after   16 cycles
             Convg  =    0.8445D-08             -V/T =  2.0111
 KE= 1.564178928258D+03 PE=-1.117935141261D+04 EE= 4.278037774938D+03
 Leave Link  502 at Wed Mar 11 00:07:50 2020, MaxMem= 2684354560 cpu:     954.2
 (Enter /opt/g09gh/gaussian/g09/l601.exe)
 Copying SCF densities to generalized density rwf, IOpCl= 0 IROHF=0.

 **********************************************************************

            Population analysis using the SCF density.

 **********************************************************************

 Orbital symmetries:
       Occupied  (A) (A) (A) (A) (A) (A) (A) (A) (A) (A) (A) (A)
                 (A) (A) (A) (A) (A) (A) (A) (A) (A) (A) (A) (A)
                 (A) (A) (A) (A) (A) (A) (A) (A) (A) (A) (A) (A)
                 (A) (A) (A) (A) (A) (A) (A) (A) (A) (A) (A) (A)
                 (A) (A) (A) (A) (A) (A) (A) (A) (A) (A) (A) (A)
                 (A) (A) (A) (A) (A) (A) (A) (A) (A) (A) (A) (A)
                 (A) (A) (A) (A) (A) (A) (A) (A) (A) (A) (A) (A)
                 (A) (A) (A) (A) (A) (A) (A) (A) (A) (A) (A) (A)
                 (A) (A) (A) (A) (A) (A) (A) (A) (A) (A) (A) (A)
                 (A) (A) (A) (A) (A) (A) (A) (A) (A) (A) (A) (A)
                 (A) (A) (A) (A) (A) (A) (A) (A) (A) (A) (A)
       Virtual   (A) (A) (A) (A) (A) (A) (A) (A) (A) (A) (A) (A)
                 (A) (A) (A) (A) (A) (A) (A) (A) (A) (A) (A) (A)
                 (A) (A) (A) (A) (A) (A) (A) (A) (A) (A) (A) (A)
                 (A) (A) (A) (A) (A) (A) (A) (A) (A) (A) (A) (A)
                 (A) (A) (A) (A) (A) (A) (A) (A) (A) (A) (A) (A)
                 (A) (A) (A) (A) (A) (A) (A) (A) (A) (A) (A) (A)
                 (A) (A) (A) (A) (A) (A) (A) (A) (A) (A) (A) (A)
                 (A) (A) (A) (A) (A) (A) (A) (A) (A) (A) (A) (A)
                 (A) (A) (A) (A) (A) (A) (A) (A) (A) (A) (A) (A)
                 (A) (A) (A) (A) (A) (A) (A) (A) (A) (A) (A) (A)
                 (A) (A) (A) (A) (A) (A) (A) (A) (A) (A) (A) (A)
                 (A) (A) (A) (A) (A) (A) (A) (A) (A) (A) (A) (A)
                 (A) (A) (A) (A) (A) (A) (A) (A) (A) (A) (A) (A)
                 (A) (A) (A) (A) (A) (A) (A) (A) (A) (A) (A) (A)
                 (A) (A) (A) (A) (A) (A) (A) (A) (A) (A) (A) (A)
                 (A) (A) (A) (A) (A) (A) (A) (A) (A) (A) (A) (A)
                 (A) (A) (A) (A) (A) (A) (A) (A) (A) (A) (A) (A)
                 (A) (A) (A) (A) (A) (A) (A) (A) (A) (A) (A) (A)
                 (A) (A) (A) (A) (A) (A) (A) (A) (A) (A) (A) (A)
                 (A) (A) (A) (A) (A) (A) (A) (A) (A) (A) (A) (A)
                 (A) (A) (A) (A) (A) (A) (A) (A) (A) (A) (A) (A)
                 (A) (A) (A) (A) (A) (A) (A) (A) (A) (A) (A) (A)
                 (A) (A) (A) (A) (A) (A) (A) (A) (A) (A) (A) (A)
                 (A) (A) (A) (A) (A) (A) (A) (A) (A) (A) (A) (A)
                 (A) (A) (A) (A) (A) (A) (A) (A) (A) (A) (A) (A)
                 (A) (A) (A) (A) (A) (A) (A) (A) (A) (A) (A) (A)
                 (A) (A) (A) (A) (A) (A) (A) (A) (A) (A) (A) (A)
                 (A) (A) (A) (A) (A) (A) (A) (A) (A) (A) (A) (A)
                 (A) (A) (A) (A) (A) (A) (A) (A) (A) (A) (A) (A)
                 (A) (A) (A) (A) (A) (A) (A) (A) (A) (A) (A) (A)
                 (A) (A) (A) (A) (A) (A) (A) (A) (A) (A) (A) (A)
                 (A) (A) (A) (A) (A) (A) (A) (A) (A) (A) (A) (A)
                 (A) (A) (A) (A) (A) (A) (A) (A) (A) (A) (A) (A)
                 (A) (A) (A) (A) (A) (A) (A) (A) (A) (A) (A) (A)
                 (A) (A) (A) (A) (A) (A) (A) (A) (A) (A) (A) (A)
                 (A) (A) (A) (A) (A) (A) (A) (A) (A) (A) (A) (A)
                 (A) (A) (A) (A) (A) (A) (A) (A) (A) (A) (A) (A)
                 (A) (A) (A) (A) (A) (A) (A) (A) (A) (A) (A) (A)
                 (A) (A) (A) (A) (A) (A) (A) (A) (A) (A) (A) (A)
                 (A) (A) (A) (A) (A) (A) (A) (A) (A) (A) (A) (A)
                 (A) (A) (A) (A) (A) (A)
 The electronic state is 1-A.
 Alpha  occ. eigenvalues --  -19.23583 -14.49590 -14.49010 -14.46808 -14.46580
 Alpha  occ. eigenvalues --  -14.46263 -14.45912 -14.45099 -10.42206 -10.40679
 Alpha  occ. eigenvalues --  -10.38366 -10.37767 -10.37582 -10.36542 -10.35967
 Alpha  occ. eigenvalues --  -10.35861 -10.35554 -10.35465 -10.35299 -10.35066
 Alpha  occ. eigenvalues --  -10.34479 -10.34345 -10.34279 -10.33065 -10.32352
 Alpha  occ. eigenvalues --  -10.32031 -10.31905 -10.31475 -10.31366 -10.31096
 Alpha  occ. eigenvalues --  -10.31026 -10.31011 -10.31009 -10.30399 -10.30264
 Alpha  occ. eigenvalues --  -10.29741 -10.29234  -1.13651  -1.11656  -1.05790
 Alpha  occ. eigenvalues --   -1.03819  -1.03556  -1.03159  -1.00227  -0.99636
 Alpha  occ. eigenvalues --   -0.96150  -0.94618  -0.92618  -0.89515  -0.88148
 Alpha  occ. eigenvalues --   -0.87276  -0.86487  -0.84949  -0.83931  -0.83705
 Alpha  occ. eigenvalues --   -0.81907  -0.79527  -0.78054  -0.77873  -0.76096
 Alpha  occ. eigenvalues --   -0.73563  -0.72971  -0.72549  -0.71330  -0.70788
 Alpha  occ. eigenvalues --   -0.70305  -0.69735  -0.68183  -0.66405  -0.64810
 Alpha  occ. eigenvalues --   -0.63395  -0.62420  -0.61736  -0.60625  -0.60236
 Alpha  occ. eigenvalues --   -0.58701  -0.58521  -0.57153  -0.56766  -0.56254
 Alpha  occ. eigenvalues --   -0.55974  -0.55529  -0.54822  -0.54484  -0.53826
 Alpha  occ. eigenvalues --   -0.53503  -0.52474  -0.52320  -0.51924  -0.51551
 Alpha  occ. eigenvalues --   -0.51435  -0.51032  -0.51004  -0.50858  -0.50442
 Alpha  occ. eigenvalues --   -0.50303  -0.49942  -0.49889  -0.49383  -0.47887
 Alpha  occ. eigenvalues --   -0.47439  -0.47044  -0.46579  -0.46255  -0.46202
 Alpha  occ. eigenvalues --   -0.45405  -0.44533  -0.44345  -0.43960  -0.43779
 Alpha  occ. eigenvalues --   -0.43519  -0.43134  -0.42219  -0.41586  -0.40197
 Alpha  occ. eigenvalues --   -0.39292  -0.38258  -0.37925  -0.37432  -0.35851
 Alpha  occ. eigenvalues --   -0.35302  -0.35255  -0.33939  -0.33745  -0.33433
 Alpha  occ. eigenvalues --   -0.33136  -0.32085  -0.31394  -0.29511  -0.27559
 Alpha  occ. eigenvalues --   -0.26295
 Alpha virt. eigenvalues --   -0.00780   0.02603   0.02998   0.04429   0.05537
 Alpha virt. eigenvalues --    0.07175   0.07411   0.07833   0.09829   0.10643
 Alpha virt. eigenvalues --    0.11065   0.13598   0.13853   0.14191   0.15209
 Alpha virt. eigenvalues --    0.15768   0.16433   0.17052   0.17177   0.18560
 Alpha virt. eigenvalues --    0.19111   0.19575   0.19826   0.20550   0.21473
 Alpha virt. eigenvalues --    0.21695   0.22456   0.22861   0.23073   0.24103
 Alpha virt. eigenvalues --    0.24162   0.24509   0.24796   0.25068   0.25259
 Alpha virt. eigenvalues --    0.25702   0.25955   0.26264   0.26452   0.27056
 Alpha virt. eigenvalues --    0.27576   0.27776   0.28069   0.28301   0.28650
 Alpha virt. eigenvalues --    0.29170   0.29498   0.29802   0.30369   0.31010
 Alpha virt. eigenvalues --    0.31569   0.31827   0.32773   0.33077   0.33566
 Alpha virt. eigenvalues --    0.33973   0.34716   0.36034   0.36183   0.37494
 Alpha virt. eigenvalues --    0.37916   0.38244   0.38891   0.39128   0.39584
 Alpha virt. eigenvalues --    0.39934   0.40769   0.41133   0.41299   0.41913
 Alpha virt. eigenvalues --    0.43349   0.44738   0.45233   0.46160   0.46926
 Alpha virt. eigenvalues --    0.47814   0.49399   0.51574   0.52505   0.53268
 Alpha virt. eigenvalues --    0.55227   0.55928   0.57031   0.57224   0.58055
 Alpha virt. eigenvalues --    0.58410   0.58680   0.59406   0.59679   0.59881
 Alpha virt. eigenvalues --    0.60477   0.60978   0.61620   0.61934   0.62013
 Alpha virt. eigenvalues --    0.62324   0.62942   0.63056   0.63657   0.64176
 Alpha virt. eigenvalues --    0.64307   0.64622   0.64782   0.64863   0.65191
 Alpha virt. eigenvalues --    0.65500   0.65749   0.66121   0.66278   0.66506
 Alpha virt. eigenvalues --    0.66622   0.67148   0.67376   0.67748   0.68248
 Alpha virt. eigenvalues --    0.68771   0.69384   0.69563   0.70163   0.70471
 Alpha virt. eigenvalues --    0.70567   0.70623   0.70787   0.70987   0.71024
 Alpha virt. eigenvalues --    0.72142   0.72197   0.72674   0.72888   0.73824
 Alpha virt. eigenvalues --    0.74270   0.74809   0.75216   0.75714   0.76036
 Alpha virt. eigenvalues --    0.77008   0.77220   0.77689   0.78910   0.79866
 Alpha virt. eigenvalues --    0.80498   0.80641   0.81434   0.81952   0.82698
 Alpha virt. eigenvalues --    0.83154   0.83534   0.83594   0.84570   0.84837
 Alpha virt. eigenvalues --    0.86137   0.86372   0.86812   0.87644   0.87994
 Alpha virt. eigenvalues --    0.88630   0.88820   0.89264   0.89357   0.90481
 Alpha virt. eigenvalues --    0.91118   0.91372   0.91741   0.92032   0.92194
 Alpha virt. eigenvalues --    0.92913   0.92952   0.93372   0.93726   0.93976
 Alpha virt. eigenvalues --    0.94277   0.94627   0.95309   0.95477   0.95964
 Alpha virt. eigenvalues --    0.96640   0.96723   0.97075   0.98048   0.98113
 Alpha virt. eigenvalues --    0.98425   0.98958   0.99213   0.99591   1.00040
 Alpha virt. eigenvalues --    1.00819   1.01700   1.01992   1.02549   1.02714
 Alpha virt. eigenvalues --    1.03352   1.04550   1.05525   1.05854   1.06360
[...]
                 (A) (A) (A) (A) (A) (A) (A) (A) (A) (A) (A) (A)
                 (A) (A) (A) (A) (A) (A) (A) (A) (A) (A) (A) (A)
                 (A) (A) (A) (A) (A) (A) (A) (A) (A) (A) (A) (A)
                 (A) (A) (A) (A) (A) (A) (A) (A) (A) (A) (A) (A)
                 (A) (A) (A) (A) (A) (A) (A) (A) (A) (A) (A) (A)
                 (A) (A) (A) (A) (A) (A) (A) (A) (A) (A) (A) (A)
                 (A) (A) (A) (A) (A) (A) (A) (A) (A) (A) (A) (A)
                 (A) (A) (A) (A) (A) (A) (A) (A) (A) (A) (A) (A)
                 (A) (A) (A) (A) (A) (A) (A) (A) (A) (A) (A) (A)
                 (A) (A) (A) (A) (A) (A) (A) (A) (A) (A) (A) (A)
                 (A) (A) (A) (A) (A) (A) (A) (A) (A) (A) (A) (A)
                 (A) (A) (A) (A) (A) (A) (A) (A) (A) (A) (A) (A)
                 (A) (A) (A) (A) (A) (A) (A) (A) (A) (A) (A) (A)
                 (A) (A) (A) (A) (A) (A) (A) (A) (A) (A) (A) (A)
                 (A) (A) (A) (A) (A) (A) (A) (A) (A) (A) (A) (A)
                 (A) (A) (A) (A) (A) (A) (A) (A) (A) (A) (A) (A)
                 (A) (A) (A) (A) (A) (A) (A) (A) (A) (A) (A) (A)
                 (A) (A) (A) (A) (A) (A) (A) (A) (A) (A) (A) (A)
                 (A) (A) (A) (A) (A) (A) (A) (A) (A) (A) (A) (A)
                 (A) (A) (A) (A) (A) (A) (A) (A) (A) (A) (A) (A)
                 (A) (A) (A) (A) (A) (A) (A) (A) (A) (A) (A) (A)
                 (A) (A) (A) (A) (A) (A) (A) (A) (A) (A) (A) (A)
                 (A) (A) (A) (A) (A) (A) (A) (A) (A) (A) (A) (A)
                 (A) (A) (A) (A) (A) (A)
 The electronic state is 1-A.
 Alpha  occ. eigenvalues --  -19.23411 -14.49283 -14.48320 -14.46751 -14.46096
 Alpha  occ. eigenvalues --  -14.45764 -14.43616 -14.43135 -10.41778 -10.40081
 Alpha  occ. eigenvalues --  -10.37615 -10.36338 -10.35325 -10.35085 -10.34624
 Alpha  occ. eigenvalues --  -10.34135 -10.34015 -10.33623 -10.32863 -10.32367
 Alpha  occ. eigenvalues --  -10.31861 -10.31492 -10.31179 -10.30935 -10.30708
 Alpha  occ. eigenvalues --  -10.30688 -10.30677 -10.30586 -10.30534 -10.30402
 Alpha  occ. eigenvalues --  -10.30377 -10.30220 -10.30020 -10.29974 -10.29575
 Alpha  occ. eigenvalues --  -10.28739 -10.28404  -1.13443  -1.12296  -1.06322
 Alpha  occ. eigenvalues --   -1.04565  -1.03828  -1.03633  -1.00716  -0.99557
 Alpha  occ. eigenvalues --   -0.96085  -0.94671  -0.93098  -0.89778  -0.88124
 Alpha  occ. eigenvalues --   -0.87389  -0.86227  -0.85399  -0.84541  -0.83783
 Alpha  occ. eigenvalues --   -0.81888  -0.79581  -0.78270  -0.77798  -0.76320
 Alpha  occ. eigenvalues --   -0.73882  -0.73300  -0.73025  -0.72621  -0.70870
 Alpha  occ. eigenvalues --   -0.70314  -0.69614  -0.68039  -0.66413  -0.65150
 Alpha  occ. eigenvalues --   -0.63656  -0.63409  -0.62229  -0.61762  -0.60211
 Alpha  occ. eigenvalues --   -0.58848  -0.58045  -0.57570  -0.56611  -0.56101
 Alpha  occ. eigenvalues --   -0.55817  -0.55236  -0.55134  -0.54964  -0.54255
 Alpha  occ. eigenvalues --   -0.53867  -0.53239  -0.53154  -0.52612  -0.52174
 Alpha  occ. eigenvalues --   -0.51912  -0.51509  -0.51371  -0.50999  -0.50575
 Alpha  occ. eigenvalues --   -0.50365  -0.50117  -0.49974  -0.49497  -0.48335
 Alpha  occ. eigenvalues --   -0.47216  -0.46906  -0.46619  -0.46320  -0.46211
 Alpha  occ. eigenvalues --   -0.45762  -0.45236  -0.44797  -0.44044  -0.43931
 Alpha  occ. eigenvalues --   -0.43328  -0.43016  -0.42141  -0.41766  -0.41439
 Alpha  occ. eigenvalues --   -0.40964  -0.40776  -0.39911  -0.38187  -0.37592
 Alpha  occ. eigenvalues --   -0.35821  -0.35293  -0.34002  -0.33446  -0.33374
 Alpha  occ. eigenvalues --   -0.32818  -0.31904  -0.30772  -0.29115  -0.27079
 Alpha  occ. eigenvalues --   -0.24996
 Alpha virt. eigenvalues --   -0.00292   0.02872   0.03585   0.04480   0.06434
 Alpha virt. eigenvalues --    0.07258   0.08204   0.10373   0.13887   0.14815
 Alpha virt. eigenvalues --    0.15728   0.16386   0.17252   0.17441   0.18251
 Alpha virt. eigenvalues --    0.19198   0.19760   0.20074   0.20198   0.20628
 Alpha virt. eigenvalues --    0.21234   0.21900   0.22614   0.22767   0.23136
 Alpha virt. eigenvalues --    0.23343   0.23537   0.24192   0.24362   0.24839
 Alpha virt. eigenvalues --    0.25118   0.25125   0.26082   0.26488   0.26552
 Alpha virt. eigenvalues --    0.27066   0.27431   0.27680   0.27997   0.28430
 Alpha virt. eigenvalues --    0.28564   0.28863   0.29436   0.29708   0.30283
 Alpha virt. eigenvalues --    0.31015   0.31165   0.31764   0.32125   0.32246
 Alpha virt. eigenvalues --    0.32892   0.33215   0.33675   0.33954   0.34428
 Alpha virt. eigenvalues --    0.35001   0.36038   0.36538   0.37755   0.38123
 Alpha virt. eigenvalues --    0.38652   0.38809   0.39300   0.40137   0.40740
 Alpha virt. eigenvalues --    0.41234   0.41464   0.42064   0.42207   0.42714
 Alpha virt. eigenvalues --    0.43815   0.45043   0.46208   0.47059   0.47330
 Alpha virt. eigenvalues --    0.48355   0.49429   0.51937   0.53015   0.54230
 Alpha virt. eigenvalues --    0.55738   0.56536   0.57257   0.57911   0.58308
 Alpha virt. eigenvalues --    0.59048   0.59370   0.59612   0.60510   0.60897
 Alpha virt. eigenvalues --    0.61370   0.61486   0.61680   0.62222   0.62698
 Alpha virt. eigenvalues --    0.63200   0.63356   0.63864   0.64090   0.64888
 Alpha virt. eigenvalues --    0.64930   0.65336   0.65507   0.65529   0.65822
 Alpha virt. eigenvalues --    0.66021   0.66272   0.66897   0.66982   0.67472
 Alpha virt. eigenvalues --    0.67615   0.67785   0.68308   0.68614   0.69046
 Alpha virt. eigenvalues --    0.69766   0.70019   0.70549   0.71042   0.71241
 Alpha virt. eigenvalues --    0.71763   0.72091   0.72268   0.72584   0.73056
 Alpha virt. eigenvalues --    0.73334   0.73461   0.74254   0.75225   0.75349
 Alpha virt. eigenvalues --    0.75594   0.75946   0.76256   0.76931   0.77676
 Alpha virt. eigenvalues --    0.77802   0.79111   0.80382   0.80454   0.81763
 Alpha virt. eigenvalues --    0.81970   0.82305   0.83131   0.83263   0.84196
 Alpha virt. eigenvalues --    0.84656   0.85716   0.86630   0.86888   0.87421
 Alpha virt. eigenvalues --    0.88279   0.89047   0.89674   0.90201   0.90738
 Alpha virt. eigenvalues --    0.90923   0.91156   0.91470   0.92209   0.92296
 Alpha virt. eigenvalues --    0.92392   0.92542   0.93563   0.93885   0.94046
 Alpha virt. eigenvalues --    0.94341   0.94529   0.94676   0.95250   0.95607
 Alpha virt. eigenvalues --    0.95950   0.96540   0.97598   0.98198   0.98359
 Alpha virt. eigenvalues --    0.98517   0.99007   0.99057   0.99701   0.99825
 Alpha virt. eigenvalues --    1.00450   1.00622   1.01372   1.01928   1.02024
 Alpha virt. eigenvalues --    1.02503   1.02650   1.03215   1.03675   1.04408
 Alpha virt. eigenvalues --    1.05623   1.05883   1.06646   1.06769   1.07380
 Alpha virt. eigenvalues --    1.07618   1.08220   1.08750   1.08901   1.09056
 Alpha virt. eigenvalues --    1.10205   1.10702   1.11028   1.11716   1.12088
 Alpha virt. eigenvalues --    1.12634   1.13095   1.13793   1.14267   1.15631
 Alpha virt. eigenvalues --    1.16459   1.16986   1.17691   1.18302   1.19270
 Alpha virt. eigenvalues --    1.20082   1.21181   1.21734   1.23135   1.23421
 Alpha virt. eigenvalues --    1.24745   1.25516   1.26102   1.26965   1.27427
 Alpha virt. eigenvalues --    1.29022   1.29351   1.29709   1.30410   1.30879
 Alpha virt. eigenvalues --    1.31932   1.33071   1.33764   1.33902   1.34767
 Alpha virt. eigenvalues --    1.35497   1.36942   1.37300   1.37886   1.38643
 Alpha virt. eigenvalues --    1.39295   1.42345   1.43372   1.43714   1.44587
 Alpha virt. eigenvalues --    1.46489   1.47297   1.47750   1.48443   1.48544
 Alpha virt. eigenvalues --    1.48649   1.49180   1.49470   1.50259   1.51639
 Alpha virt. eigenvalues --    1.51972   1.52735   1.53658   1.54082   1.54530
 Alpha virt. eigenvalues --    1.55182   1.55560   1.56281   1.56871   1.56982
 Alpha virt. eigenvalues --    1.57525   1.57805   1.58455   1.59180   1.59303
 Alpha virt. eigenvalues --    1.59661   1.60105   1.60820   1.61987   1.62520
 Alpha virt. eigenvalues --    1.63912   1.64942   1.65121   1.65690   1.67670
 Alpha virt. eigenvalues --    1.68411   1.69749   1.72015   1.75167   1.76230
 Alpha virt. eigenvalues --    1.78749   1.80598   1.81508   1.82526   1.84281
 Alpha virt. eigenvalues --    1.84719   1.85643   1.86428   1.86958   1.87886
 Alpha virt. eigenvalues --    1.87956   1.88948   1.89941   1.90639   1.90825
 Alpha virt. eigenvalues --    1.91213   1.92461   1.92803   1.93436   1.94264
 Alpha virt. eigenvalues --    1.94426   1.94937   1.95570   1.96613   1.97941
 Alpha virt. eigenvalues --    1.98719   1.99605   2.00120   2.00239   2.01198
 Alpha virt. eigenvalues --    2.01309   2.01498   2.01782   2.02574   2.03680
 Alpha virt. eigenvalues --    2.05535   2.06502   2.06637   2.07326   2.08210
 Alpha virt. eigenvalues --    2.08612   2.08850   2.09734   2.10834   2.11395
 Alpha virt. eigenvalues --    2.12240   2.12580   2.13555   2.14167   2.14817
 Alpha virt. eigenvalues --    2.15878   2.16187   2.17687   2.19547   2.20431
 Alpha virt. eigenvalues --    2.21104   2.21286   2.21688   2.22410   2.22784
 Alpha virt. eigenvalues --    2.22977   2.23634   2.23942   2.24603   2.25134
 Alpha virt. eigenvalues --    2.25945   2.26147   2.26367   2.26885   2.28051
 Alpha virt. eigenvalues --    2.28544   2.29389   2.29952   2.31585   2.32592
 Alpha virt. eigenvalues --    2.34095   2.34927   2.36375   2.37135   2.37171
 Alpha virt. eigenvalues --    2.37913   2.38059   2.38212   2.39475   2.39889
 Alpha virt. eigenvalues --    2.40252   2.40812   2.42122   2.42799   2.43233
 Alpha virt. eigenvalues --    2.43390   2.44333   2.44772   2.44887   2.46221
 Alpha virt. eigenvalues --    2.46452   2.47886   2.48104   2.49418   2.49810
 Alpha virt. eigenvalues --    2.50302   2.50932   2.52053   2.53877   2.56003
 Alpha virt. eigenvalues --    2.58454   2.59876   2.60854   2.62127   2.63400
 Alpha virt. eigenvalues --    2.64708   2.65083   2.65953   2.66089   2.67624
 Alpha virt. eigenvalues --    2.68705   2.70009   2.71800   2.72056   2.72665
 Alpha virt. eigenvalues --    2.74012   2.74385   2.75464   2.76174   2.76863
 Alpha virt. eigenvalues --    2.77166   2.78478   2.78950   2.80941   2.81725
 Alpha virt. eigenvalues --    2.82744   2.83154   2.83724   2.84481   2.85525
 Alpha virt. eigenvalues --    2.86028   2.86479   2.87314   2.88411   2.89258
 Alpha virt. eigenvalues --    2.89963   2.91946   2.92700   2.93388   2.94569
 Alpha virt. eigenvalues --    2.94834   2.96132   2.97875   3.01370   3.02996
 Alpha virt. eigenvalues --    3.04142   3.06694   3.09291   3.10087   3.12017
 Alpha virt. eigenvalues --    3.18950   3.26899   3.29154   3.39171   3.41513
 Alpha virt. eigenvalues --    3.45042   3.53455   3.56408   3.57589   4.12657
 Alpha virt. eigenvalues --    4.13542   4.15200   4.16850   4.18259   4.19130
 Alpha virt. eigenvalues --    4.19562   4.20445   4.21989   4.23543   4.25286
 Alpha virt. eigenvalues --    4.26037   4.27473   4.28696   4.30766   4.31721
 Alpha virt. eigenvalues --    4.33379   4.34586   4.36933   4.40132   4.40369
 Alpha virt. eigenvalues --    4.41611   4.44511   4.46130   4.49147   4.49444
 Alpha virt. eigenvalues --    4.49748   4.52847   4.57342   4.60739   4.61925
 Alpha virt. eigenvalues --    4.64160   4.67475   4.69409   4.79024   4.85076
 Alpha virt. eigenvalues --    4.89518
          Condensed to atoms (all electrons):
 Mulliken atomic charges:
              1
     1  C   -0.197841
     2  C   -0.154398
     3  C    0.035519
     4  C    0.009573
     5  N   -0.437525
     6  C    0.035736
     7  C    0.295162
     8  C   -0.254779
     9  C    0.049023
    10  N   -0.493051
    11  C    0.714435
    12  N   -0.568421
    13  N   -0.802140
    14  C    0.291509
    15  C    0.119854
    16  C   -0.240384
    17  C   -0.191293
    18  C    0.358111
    19  C   -0.269702
    20  N   -0.757936
    21  C    0.585743
    22  C    0.015207
    23  C   -0.205356
    24  C   -0.217912
    25  C    0.155972
    26  C   -0.223075
    27  C   -0.178381
    28  C   -0.263562
    29  N   -0.382230
    30  C   -0.183897
    31  C   -0.181778
    32  N   -0.385724
    33  C   -0.349276
    34  C   -0.182627
    35  C   -0.186511
    36  O   -0.513295
    37  C   -0.607369
    38  H    0.186141
    39  H    0.186728
    40  H    0.198124
    41  H    0.179049
    42  H    0.180746
    43  H    0.189494
    44  H    0.369214
    45  H    0.160818
    46  H    0.213083
    47  H    0.199389
    48  H    0.361552
    49  H    0.185434
    50  H    0.172071
    51  H    0.163616
    52  H    0.195618
    53  H    0.170282
    54  H    0.168922
    55  H    0.148159
    56  H    0.158359
    57  H    0.141656
    58  H    0.174893
    59  H    0.135271
    60  H    0.164121
    61  H    0.167873
    62  H    0.153487
    63  H    0.172922
    64  H    0.159399
    65  H    0.154995
    66  H    0.178036
    67  H    0.182744
    68  H    0.190421
 Sum of Mulliken atomic charges =   0.00000
 Mulliken charges with hydrogens summed into heavy atoms:
              1
     1  C   -0.011700
     2  C    0.032330
     3  C    0.035519
     4  C    0.207697
     5  N   -0.437525
     6  C    0.214786
     7  C    0.295162
     8  C   -0.074033
     9  C    0.238516
    10  N   -0.493051
    11  C    0.714435
    12  N   -0.568421
    13  N   -0.432925
    14  C    0.291509
    15  C    0.119854
    16  C   -0.079566
    17  C    0.021790
    18  C    0.358111
    19  C   -0.070313
    20  N   -0.396385
    21  C    0.585743
    22  C    0.015207
    23  C   -0.019922
    24  C   -0.045840
    25  C    0.155972
    26  C   -0.059458
    27  C    0.017236
    28  C    0.075642
    29  N   -0.382230
    30  C    0.122621
    31  C    0.134771
    32  N   -0.385724
    33  C    0.117990
    34  C    0.143783
    35  C    0.127883
    36  O   -0.513295
    37  C   -0.056168
 Sum of Mulliken charges with hydrogens summed into heavy atoms =   0.00000
 Electronic spatial extent (au):  <R**2>=          21213.4875
 Charge=              0.0000 electrons
 Dipole moment (field-independent basis, Debye):
    X=              0.5808    Y=              6.5723    Z=              0.4346  Tot=              6.6122
 Quadrupole moment (field-independent basis, Debye-Ang):
   XX=           -193.2944   YY=           -202.4977   ZZ=           -220.4881
   XY=              3.1108   XZ=             -1.2758   YZ=             -5.2123
 Traceless Quadrupole moment (field-independent basis, Debye-Ang):
   XX=             12.1323   YY=              2.9290   ZZ=            -15.0614
   XY=              3.1108   XZ=             -1.2758   YZ=             -5.2123
 Octapole moment (field-independent basis, Debye-Ang**2):
  XXX=             80.0006  YYY=            204.3718  ZZZ=             11.3389  XYY=             33.4438
  XXY=            -43.1139  XXZ=             31.6592  XZZ=            -22.7044  YZZ=              1.3382
  YYZ=             17.7833  XYZ=              2.2552
 Hexadecapole moment (field-independent basis, Debye-Ang**3):
 XXXX=         -18572.1523 YYYY=          -7865.3699 ZZZZ=          -1607.0767 XXXY=            -50.7799
 XXXZ=           -102.8468 YYYX=            149.1625 YYYZ=            -76.1317 ZZZX=            -50.0434
 ZZZY=             15.0163 XXYY=          -4005.6702 XXZZ=          -3409.4987 YYZZ=          -1721.5174
 XXYZ=            -52.6968 YYXZ=            -15.7773 ZZXY=            -24.5661
 N-N= 3.895025908876D+03 E-N=-1.146164733097D+04  KE= 1.567155556753D+03
 No NMR shielding tensors so no spin-rotation constants.
 Leave Link  601 at Wed Mar 11 01:58:34 2020, MaxMem= 2684354560 cpu:       2.6
 (Enter /opt/g09gh/gaussian/g09/l9999.exe)
 1\1\GINC-NODE42\FOpt\RwB97XD\6-31G(d)\C29H31N7O1\BDW2292\11-Mar-2020\0
 \\#P opt=(,maxcycle=400) wB97XD/6-31G* MaxDisk=100GB\\MOLECULE0 Rotata
 ble Bond Optimization on g2-node38.bme.utexas.edu\\0,1\C,-0.6608792769
 ,4.1779841465,-0.5333951835\C,0.6855836514,4.1068439346,-0.1971831165\
 C,1.3837451887,2.9264864496,-0.4464881859\C,0.6760608745,1.8717389144,
 -1.0382928591\N,-0.6144905787,1.924509711,-1.3631221639\C,-1.264331044
 3,3.0634501412,-1.1057062632\C,2.8097901543,2.7369507478,-0.0786997919
 \C,3.7217427601,3.7792978235,0.0604100086\C,5.0149852613,3.4155541559,
 0.4340902132\N,5.3978052201,2.1637536804,0.645484785\C,4.4414259034,1.
 2297578987,0.4677303295\N,3.1763834102,1.4689069742,0.1225010154\N,4.8
 543962649,-0.0580271183,0.6746357361\C,4.1607584652,-1.2715968297,0.51
 0107144\C,4.9066103269,-2.4662760129,0.4477799846\C,4.2076415502,-3.65
 58476449,0.261462279\C,2.8226469668,-3.7170951465,0.118335247\C,2.1093
 551761,-2.5242173319,0.1872513486\C,2.7757787223,-1.3194822808,0.40934
 80628\N,0.7202031454,-2.405075087,0.0163148685\C,-0.2030144946,-3.3341
 836357,-0.3897749542\C,-1.5343563427,-2.7142485516,-0.7082675186\C,-1.
 6333601958,-1.4486698909,-1.2939443871\C,-2.8765769568,-0.8824902713,-
 1.5340661716\C,-4.047553354,-1.5503944639,-1.1759580646\C,-3.941589546
 6,-2.8382808877,-0.6432889378\C,-2.7002875324,-3.4215755218,-0.4173863
 28\C,-5.3976736442,-0.8640377971,-1.3042811569\N,-5.8035713012,0.01665
 52244,-0.2194156605\C,-5.1607517788,1.3224535629,-0.1164743344\C,-3.95
 08645138,1.3624415538,0.8348302544\N,-4.2370477172,0.7957796732,2.1499
 081751\C,-5.0416298586,1.6572872572,2.9978959495\C,-4.7782589562,-0.55
 29808773,1.998254748\C,-6.0130608709,-0.6055118697,1.0832526663\O,0.01
 11202135,-4.5320346906,-0.4708167953\C,6.409609098,-2.4589959748,0.565
 5268896\H,-1.2368721086,5.0773453527,-0.3438385463\H,1.1755923317,4.95
 09546572,0.279514238\H,1.1972102044,0.9439046349,-1.260062097\H,-2.320
 1094415,3.0811421776,-1.3675464006\H,3.4633382853,4.8146103769,-0.1242
 34692\H,5.7826545056,4.1754442573,0.5659883476\H,5.8369607708,-0.11472
 71273,0.8972651194\H,4.7730014923,-4.583066352,0.211565274\H,2.3107539
 218,-4.6550059663,-0.0479553078\H,2.2137641774,-0.3999692096,0.4711320
 351\H,0.3643898673,-1.4693770086,0.1449851098\H,-0.7472407143,-0.89476
 40471,-1.5899986904\H,-2.9230471121,0.1049269662,-1.9862311006\H,-4.84
 61528133,-3.385727225,-0.3875416938\H,-2.6177451176,-4.4201413564,0.00
 01164585\H,-5.4149687033,-0.2720691297,-2.2273803516\H,-6.1759403504,-
 1.6309490513,-1.4080354303\H,-4.8656285803,1.64932901,-1.1207729645\H,
 -5.9153968115,2.0401953035,0.239097383\H,-3.6128707639,2.398485016,0.9
 649610056\H,-3.1154896881,0.7993224479,0.4040637116\H,-6.0561856157,1.
 8810934247,2.6235948518\H,-4.5214760454,2.6117703693,3.1352911743\H,-5
 .148250533,1.1890223251,3.9824882939\H,-5.0290357104,-0.9457689419,2.9
 911393322\H,-3.984668775,-1.1860017703,1.5844956262\H,-6.8512378521,-0
 .0915966578,1.5770302003\H,-6.3276321648,-1.6441550872,0.9316215432\H,
 6.7489252963,-2.0786816657,1.5387773553\H,6.8779804995,-1.8430988194,-
 0.2132028154\H,6.8085321592,-3.4711788688,0.4617161989\\Version=EM64L-
 G09RevA.02\State=1-A\HF=-1581.7632163\RMSD=7.544e-09\RMSF=8.297e-06\Di
 pole=0.1806949,2.5808112,0.2723546\Quadrupole=8.9292019,2.5511274,-11.
 4803292,2.4662317,-0.8099095,-3.3550834\PG=C01 [X(C29H31N7O1)]\\@


 I MET A TRAVELLER FROM AN ANTIQUE LAND
 WHO SAID... TWO VAST AND TRUNKLESS LEGS OF STONE
 STAND IN THE DESERT..... NEAR THEM,  ON THE SAND,
 HALF SUNK,  A SHATTERED VISAGE LIES,  WHOSE FROWN,
 AND WRINKLED LIP,  AND SNEER OF COLD COMMAND
 TELL THAT ITS SCULPTOR WELL THOSE PASSIONS READ
 WHICH YET SURVIVE,  STAMPED ON THESE LIFELESS THINGS
 THE HAND THAT MOCKED THEM,  AND THE HEART THAT FED-
 AND ON THE PEDESTAL THESE WORDS APPEAR 
 MY NAME IS OZYMANDIAS, KING OF KINGS--   
 LOOK ON MY WORKS YE MIGHTY AND DESPAIR. 
 NOTHING BESIDE REMAINS,  ROUND THE DECAY 
 OF THAT COLOSSAL WRECK,  BOUNDLESS AND BARE
 THE LONE AND LEVEL SANDS STRETCH FAR AWAY.
                                    SHELLEY
 Job cpu time:  0 days 11 hours 16 minutes 59.9 seconds.
 File lengths (MBytes):  RWF=    244 Int=      0 D2E=      0 Chk=     25 Scr=      1
 Normal termination of Gaussian 09 at Wed Mar 11 01:58:34 2020.
