68
MOLECULE0-opt-22-21-20-18-028.log	Energy: -992569.9519131
C          7.44709        1.88281        0.72315
C          6.88644        0.63207        0.94288
C          5.74847        0.26436        0.22493
C          5.23089        1.19227       -0.68659
N          5.75973        2.39358       -0.90960
C          6.84812        2.72373       -0.20975
C          5.08869       -1.05064        0.40239
C          5.77602       -2.18241        0.83556
C          5.02742       -3.34917        0.95904
N          3.73402       -3.42066        0.67891
C          3.16956       -2.27280        0.25096
N          3.78395       -1.09822        0.10864
N          1.84058       -2.39347       -0.04980
C          0.90800       -1.46694       -0.54220
C         -0.31723       -1.97919       -1.01652
C         -1.25605       -1.08504       -1.52141
C         -1.02254        0.28269       -1.55380
C          0.15913        0.78239       -1.01478
C          1.12807       -0.08700       -0.52001
N          0.39104        2.18090       -0.93087
C         -0.51515        3.15770       -0.58321
C         -1.74490        2.69801        0.14378
C         -1.68328        1.77668        1.19105
C         -2.85090        1.32102        1.78443
C         -4.10122        1.74261        1.32560
C         -4.14878        2.71553        0.32619
C         -2.98124        3.20179       -0.25305
C         -5.37553        1.10525        1.85489
N         -5.80466       -0.13983        1.23572
C         -5.07986       -1.36091        1.56666
C         -3.97267       -1.73043        0.56370
N         -4.43755       -1.74325       -0.82295
C         -5.26032       -2.89297       -1.15908
C         -5.05915       -0.45732       -1.13842
C         -6.19248       -0.08453       -0.16786
O         -0.31416        4.33156       -0.84309
C         -0.62554       -3.45492       -0.98247
H          8.32652        2.20668        1.26947
H          7.31491       -0.03852        1.68230
H          4.34763        0.93300       -1.26467
H          7.25892        3.71203       -0.40342
H          6.83879       -2.17412        1.04244
H          5.49393       -4.27286        1.29564
H          1.51970       -3.34367        0.06080
H         -2.21330       -1.46808       -1.86699
H         -1.76779        0.95636       -1.96135
H          2.04265        0.30679       -0.09969
H          1.25195        2.54653       -1.31735
H         -0.72191        1.39883        1.52532
H         -2.79400        0.59783        2.59482
H         -5.11265        3.08670       -0.01514
H         -3.01867        3.95438       -1.03454
H         -5.26419        0.91094        2.92846
H         -6.19968        1.82239        1.74949
H         -4.65689       -1.26080        2.57247
H         -5.80905       -2.18405        1.61199
H         -3.55956       -2.71755        0.80580
H         -3.15234       -1.00673        0.62459
H         -6.21524       -2.96837       -0.61167
H         -4.69221       -3.80871       -0.96128
H         -5.49171       -2.86509       -2.22942
H         -5.43997       -0.49191       -2.16637
H         -4.27393        0.30718       -1.09774
H         -7.03517       -0.77612       -0.31789
H         -6.56679        0.91995       -0.39377
H         -0.61869       -3.85560        0.04064
H          0.08842       -4.04219       -1.57429
H         -1.62258       -3.63878       -1.39082
