 Entering Gaussian System, Link 0=g09
 Input=MOLECULE0-opt-2-3-7-8-255.com
 Output=MOLECULE0-opt-2-3-7-8-255.log
 Initial command:
 /opt/g09gh/gaussian/g09/l1.exe /scratch/bdw2292/Gau-MOLECULE0/Gau-32079.inp -scrdir=/scratch/bdw2292/Gau-MOLECULE0/
 Entering Link 1 = /opt/g09gh/gaussian/g09/l1.exe PID=     32080.
  
 Copyright (c) 1988,1990,1992,1993,1995,1998,2003,2009, Gaussian, Inc.
                  All Rights Reserved.
  
 This is part of the Gaussian(R) 09 program.  It is based on
 the Gaussian(R) 03 system (copyright 2003, Gaussian, Inc.),
 the Gaussian(R) 98 system (copyright 1998, Gaussian, Inc.),
 the Gaussian(R) 94 system (copyright 1995, Gaussian, Inc.),
 the Gaussian 92(TM) system (copyright 1992, Gaussian, Inc.),
 the Gaussian 90(TM) system (copyright 1990, Gaussian, Inc.),
 the Gaussian 88(TM) system (copyright 1988, Gaussian, Inc.),
 the Gaussian 86(TM) system (copyright 1986, Carnegie Mellon
 University), and the Gaussian 82(TM) system (copyright 1983,
 Carnegie Mellon University). Gaussian is a federally registered
 trademark of Gaussian, Inc.
  
 This software contains proprietary and confidential information,
 including trade secrets, belonging to Gaussian, Inc.
  
 This software is provided under written license and may be
 used, copied, transmitted, or stored only in accord with that
 written license.
  
 The following legend is applicable only to US Government
 contracts under FAR:
  
                    RESTRICTED RIGHTS LEGEND
  
 Use, reproduction and disclosure by the US Government is
 subject to restrictions as set forth in subparagraphs (a)
 and (c) of the Commercial Computer Software - Restricted
 Rights clause in FAR 52.227-19.
  
 Gaussian, Inc.
 340 Quinnipiac St., Bldg. 40, Wallingford CT 06492
  
  
 ---------------------------------------------------------------
 Warning -- This program may not be used in any manner that
 competes with the business of Gaussian, Inc. or will provide
 assistance to any competitor of Gaussian, Inc.  The licensee
 of this program is prohibited from giving any competitor of
 Gaussian, Inc. access to this program.  By using this program,
 the user acknowledges that Gaussian, Inc. is engaged in the
 business of creating and licensing software in the field of
 computational chemistry and represents and warrants to the
 licensee that it is not a competitor of Gaussian, Inc. and that
 it will not use this program in any manner prohibited above.
 ---------------------------------------------------------------
  

 Cite this work as:
 Gaussian 09, Revision A.02,
 M. J. Frisch, G. W. Trucks, H. B. Schlegel, G. E. Scuseria, 
 M. A. Robb, J. R. Cheeseman, G. Scalmani, V. Barone, B. Mennucci, 
 G. A. Petersson, H. Nakatsuji, M. Caricato, X. Li, H. P. Hratchian, 
 A. F. Izmaylov, J. Bloino, G. Zheng, J. L. Sonnenberg, M. Hada, 
 M. Ehara, K. Toyota, R. Fukuda, J. Hasegawa, M. Ishida, T. Nakajima, 
 Y. Honda, O. Kitao, H. Nakai, T. Vreven, J. A. Montgomery, Jr., 
 J. E. Peralta, F. Ogliaro, M. Bearpark, J. J. Heyd, E. Brothers, 
 K. N. Kudin, V. N. Staroverov, R. Kobayashi, J. Normand, 
 K. Raghavachari, A. Rendell, J. C. Burant, S. S. Iyengar, J. Tomasi, 
 M. Cossi, N. Rega, J. M. Millam, M. Klene, J. E. Knox, J. B. Cross, 
 V. Bakken, C. Adamo, J. Jaramillo, R. Gomperts, R. E. Stratmann, 
 O. Yazyev, A. J. Austin, R. Cammi, C. Pomelli, J. W. Ochterski, 
 R. L. Martin, K. Morokuma, V. G. Zakrzewski, G. A. Voth, 
 P. Salvador, J. J. Dannenberg, S. Dapprich, A. D. Daniels, 
 O. Farkas, J. B. Foresman, J. V. Ortiz, J. Cioslowski, 
 and D. J. Fox, Gaussian, Inc., Wallingford CT, 2009.
 
 ******************************************
 Gaussian 09:  EM64L-G09RevA.02 11-Jun-2009
                25-Mar-2020 
 ******************************************
 %RWF=/scratch/bdw2292/Gau-MOLECULE0/,100GB
 %Nosave
 %Chk=MOLECULE0-opt-2-3-7-8-255.chk
 %Mem=20GB
 %Nproc=6
 Will use up to    6 processors via shared memory.
 --------------------------------------------------
 #P opt=(,maxcycle=400) wB97XD/6-31G* MaxDisk=100GB
 --------------------------------------------------
 1/6=400,14=-1,18=20,19=15,26=3,38=1/1,3;
 2/9=110,12=2,17=6,18=5,40=1/2;
 3/5=1,6=6,7=1,11=2,16=1,25=1,30=1,71=1,74=-58/1,2,3;
 4//1;
 5/5=2,38=5/2;
 6/7=2,8=2,9=2,10=2,28=1/1;
 7//1,2,3,16;
 1/6=400,14=-1,18=20,19=15/3(2);
 2/9=110/2;
 99//99;
 2/9=110/2;
 3/5=1,6=6,7=1,11=2,16=1,25=1,30=1,71=1,74=-58/1,2,3;
 4/5=5,16=3/1;
 5/5=2,38=5/2;
 7//1,2,3,16;
 1/6=400,14=-1,18=20,19=15/3(-5);
 2/9=110/2;
 6/7=2,8=2,9=2,10=2,19=2,28=1/1;
 99/9=1/99;
 Leave Link    1 at Wed Mar 25 12:57:43 2020, MaxMem= 2684354560 cpu:       0.2
 (Enter /opt/g09gh/gaussian/g09/l101.exe)
 --------------------------------------------------------------
 MOLECULE0 Rotatable Bond Optimization on node37.bme.utexas.edu
 --------------------------------------------------------------
 Symbolic Z-matrix:
 Charge =  0 Multiplicity = 1
 C                    -0.26977   4.31279  -0.73351 
 C                     1.08604   4.22865  -0.39443 
 C                     1.7921    3.04235  -0.6581 
 C                     1.08114   1.99438  -1.28121 
 N                    -0.2128    2.06495  -1.62108 
 C                    -0.86815   3.2054   -1.348 
 C                     3.22379   2.85468  -0.2775 
 C                     4.31663   2.87708  -1.14983 
 C                     5.5644    2.70517  -0.53802 
 N                     5.7451    2.52976   0.77017 
 C                     4.62482   2.51521   1.52443 
 N                     3.39078   2.66463   1.04028 
 N                     4.80486   2.33793   2.88639 
 C                     3.88013   2.19023   3.98679 
 C                     4.34728   1.66782   5.23083 
 C                     3.40982   1.55686   6.27235 
 C                     2.05852   1.9025    6.14944 
 C                     1.61359   2.39861   4.92 
 C                     2.53024   2.54395   3.86695 
 N                     0.26918   2.7632    4.59421 
 C                    -0.91019   2.60205   5.28041 
 C                    -2.19231   2.85807   4.51214 
 C                    -2.34645   2.52566   3.15548 
 C                    -3.53803   2.81468   2.48714 
 C                    -4.60665   3.45615   3.14045 
 C                    -4.44451   3.76601   4.505 
 C                    -3.27148   3.44469   5.19174 
 C                    -5.87534   3.85928   2.38736 
 N                    -5.88391   5.12605   1.63339 
 C                    -5.15733   5.20136   0.34665 
 C                    -3.71192   5.74869   0.45205 
 N                    -3.60354   7.05267   1.14399 
 C                    -3.8831    8.25172   0.34565 
 C                    -4.29861   6.96006   2.45196 
 C                    -5.74417   6.39815   2.38016 
 O                    -0.95272   2.28803   6.45897 
 C                     5.78538   1.24116   5.47057 
 H                    -0.84518   5.20944  -0.52321 
 H                     1.57492   5.07195   0.08839 
 H                     1.58446   1.05568  -1.50462 
 H                    -1.91842   3.22992  -1.63439 
 H                     4.22351   3.02625  -2.21921 
 H                     6.47422   2.71385  -1.13769 
 H                     5.78536   2.21111   3.08853 
 H                     3.73294   1.16917   7.2378 
 H                     1.36301   1.77678   6.97043 
 H                     2.18443   2.918     2.91461 
 H                     0.16576   3.14536   3.66452 
 H                    -1.53366   2.03003   2.62959 
 H                    -3.62499   2.54905   1.43351 
 H                    -5.24464   4.26759   5.04894 
 H                    -3.16019   3.67039   6.24924 
 H                    -6.13103   3.05943   1.67713 
 H                    -6.70455   3.91251   3.10786 
 H                    -5.21176   4.28553  -0.16988 
 H                    -5.93415   6.26038  -0.54551 
 H                    -3.21085   5.91901  -0.97735 
 H                    -3.01114   4.98921   0.9998 
 H                    -4.93339   8.28156   0.03467 
 H                    -3.24849   8.2679   -0.54776 
 H                    -3.66304   9.15316   0.92897 
 H                    -4.28238   8.01571   2.98121 
 H                    -3.49792   6.01889   3.29923 
 H                    -6.57403   7.48196   1.59843 
 H                    -6.20043   6.31106   3.38216 
 H                     6.47459   2.09413   5.39377 
 H                     6.10854   0.48808   4.73811 
 H                     5.94157   0.79818   6.46388 
 
 NAtoms=     68 NQM=     68 NQMF=      0 NMic=      0 NMicF=      0 NTot=     68.
                    Isotopes and Nuclear Properties:
 (Nuclear quadrupole moments (NQMom) in fm**2, nuclear magnetic moments (NMagM)
  in nuclear magnetons)

  Atom         1           2           3           4           5           6           7           8           9          10
 IAtWgt=          12          12          12          12          14          12          12          12          12          14
 AtmWgt=  12.0000000  12.0000000  12.0000000  12.0000000  14.0030740  12.0000000  12.0000000  12.0000000  12.0000000  14.0030740
 NucSpn=           0           0           0           0           2           0           0           0           0           2
 AtZEff=   0.0000000   0.0000000   0.0000000   0.0000000   0.0000000   0.0000000   0.0000000   0.0000000   0.0000000   0.0000000
 NQMom=    0.0000000   0.0000000   0.0000000   0.0000000   2.0440000   0.0000000   0.0000000   0.0000000   0.0000000   2.0440000
 NMagM=    0.0000000   0.0000000   0.0000000   0.0000000   0.4037610   0.0000000   0.0000000   0.0000000   0.0000000   0.4037610

  Atom        11          12          13          14          15          16          17          18          19          20
 IAtWgt=          12          14          14          12          12          12          12          12          12          14
 AtmWgt=  12.0000000  14.0030740  14.0030740  12.0000000  12.0000000  12.0000000  12.0000000  12.0000000  12.0000000  14.0030740
 NucSpn=           0           2           2           0           0           0           0           0           0           2
 AtZEff=   0.0000000   0.0000000   0.0000000   0.0000000   0.0000000   0.0000000   0.0000000   0.0000000   0.0000000   0.0000000
 NQMom=    0.0000000   2.0440000   2.0440000   0.0000000   0.0000000   0.0000000   0.0000000   0.0000000   0.0000000   2.0440000
 NMagM=    0.0000000   0.4037610   0.4037610   0.0000000   0.0000000   0.0000000   0.0000000   0.0000000   0.0000000   0.4037610

  Atom        21          22          23          24          25          26          27          28          29          30
 IAtWgt=          12          12          12          12          12          12          12          12          14          12
 AtmWgt=  12.0000000  12.0000000  12.0000000  12.0000000  12.0000000  12.0000000  12.0000000  12.0000000  14.0030740  12.0000000
 NucSpn=           0           0           0           0           0           0           0           0           2           0
 AtZEff=   0.0000000   0.0000000   0.0000000   0.0000000   0.0000000   0.0000000   0.0000000   0.0000000   0.0000000   0.0000000
 NQMom=    0.0000000   0.0000000   0.0000000   0.0000000   0.0000000   0.0000000   0.0000000   0.0000000   2.0440000   0.0000000
 NMagM=    0.0000000   0.0000000   0.0000000   0.0000000   0.0000000   0.0000000   0.0000000   0.0000000   0.4037610   0.0000000

  Atom        31          32          33          34          35          36          37          38          39          40
 IAtWgt=          12          14          12          12          12          16          12           1           1           1
 AtmWgt=  12.0000000  14.0030740  12.0000000  12.0000000  12.0000000  15.9949146  12.0000000   1.0078250   1.0078250   1.0078250
 NucSpn=           0           2           0           0           0           0           0           1           1           1
 AtZEff=   0.0000000   0.0000000   0.0000000   0.0000000   0.0000000   0.0000000   0.0000000   0.0000000   0.0000000   0.0000000
 NQMom=    0.0000000   2.0440000   0.0000000   0.0000000   0.0000000   0.0000000   0.0000000   0.0000000   0.0000000   0.0000000
 NMagM=    0.0000000   0.4037610   0.0000000   0.0000000   0.0000000   0.0000000   0.0000000   2.7928460   2.7928460   2.7928460

  Atom        41          42          43          44          45          46          47          48          49          50
 IAtWgt=           1           1           1           1           1           1           1           1           1           1
 AtmWgt=   1.0078250   1.0078250   1.0078250   1.0078250   1.0078250   1.0078250   1.0078250   1.0078250   1.0078250   1.0078250
 NucSpn=           1           1           1           1           1           1           1           1           1           1
 AtZEff=   0.0000000   0.0000000   0.0000000   0.0000000   0.0000000   0.0000000   0.0000000   0.0000000   0.0000000   0.0000000
 NQMom=    0.0000000   0.0000000   0.0000000   0.0000000   0.0000000   0.0000000   0.0000000   0.0000000   0.0000000   0.0000000
 NMagM=    2.7928460   2.7928460   2.7928460   2.7928460   2.7928460   2.7928460   2.7928460   2.7928460   2.7928460   2.7928460

  Atom        51          52          53          54          55          56          57          58          59          60
 IAtWgt=           1           1           1           1           1           1           1           1           1           1
 AtmWgt=   1.0078250   1.0078250   1.0078250   1.0078250   1.0078250   1.0078250   1.0078250   1.0078250   1.0078250   1.0078250
 NucSpn=           1           1           1           1           1           1           1           1           1           1
 AtZEff=   0.0000000   0.0000000   0.0000000   0.0000000   0.0000000   0.0000000   0.0000000   0.0000000   0.0000000   0.0000000
 NQMom=    0.0000000   0.0000000   0.0000000   0.0000000   0.0000000   0.0000000   0.0000000   0.0000000   0.0000000   0.0000000
 NMagM=    2.7928460   2.7928460   2.7928460   2.7928460   2.7928460   2.7928460   2.7928460   2.7928460   2.7928460   2.7928460

  Atom        61          62          63          64          65          66          67          68
 IAtWgt=           1           1           1           1           1           1           1           1
 AtmWgt=   1.0078250   1.0078250   1.0078250   1.0078250   1.0078250   1.0078250   1.0078250   1.0078250
 NucSpn=           1           1           1           1           1           1           1           1
 AtZEff=   0.0000000   0.0000000   0.0000000   0.0000000   0.0000000   0.0000000   0.0000000   0.0000000
 NQMom=    0.0000000   0.0000000   0.0000000   0.0000000   0.0000000   0.0000000   0.0000000   0.0000000
 NMagM=    2.7928460   2.7928460   2.7928460   2.7928460   2.7928460   2.7928460   2.7928460   2.7928460
 Leave Link  101 at Wed Mar 25 12:57:43 2020, MaxMem= 2684354560 cpu:       0.5
 (Enter /opt/g09gh/gaussian/g09/l103.exe)

 GradGradGradGradGradGradGradGradGradGradGradGradGradGradGradGradGradGrad
 Berny optimization.
 Initialization pass.
                           ----------------------------
                           !    Initial Parameters    !
                           ! (Angstroms and Degrees)  !
 --------------------------                            --------------------------
 ! Name  Definition              Value          Derivative Info.                !
 --------------------------------------------------------------------------------
 ! R1    R(1,2)                  1.4001         estimate D2E/DX2                !
 ! R2    R(1,6)                  1.4007         estimate D2E/DX2                !
 ! R3    R(1,38)                 1.086          estimate D2E/DX2                !
 ! R4    R(2,3)                  1.4055         estimate D2E/DX2                !
 ! R5    R(2,39)                 1.0878         estimate D2E/DX2                !
 ! R6    R(3,4)                  1.4114         estimate D2E/DX2                !
 ! R7    R(3,7)                  1.4933         estimate D2E/DX2                !
 ! R8    R(4,5)                  1.3397         estimate D2E/DX2                !
 ! R9    R(4,40)                 1.0883         estimate D2E/DX2                !
 ! R10   R(5,6)                  1.3434         estimate D2E/DX2                !
 ! R11   R(6,41)                 1.0889         estimate D2E/DX2                !
 ! R12   R(7,8)                  1.3985         estimate D2E/DX2                !
 ! R13   R(7,12)                 1.3418         estimate D2E/DX2                !
 ! R14   R(8,9)                  1.4003         estimate D2E/DX2                !
 ! R15   R(8,42)                 1.0837         estimate D2E/DX2                !
 ! R16   R(9,10)                 1.3322         estimate D2E/DX2                !
 ! R17   R(9,43)                 1.0897         estimate D2E/DX2                !
 ! R18   R(10,11)                1.3506         estimate D2E/DX2                !
 ! R19   R(11,12)                1.334          estimate D2E/DX2                !
 ! R20   R(11,13)                1.3852         estimate D2E/DX2                !
 ! R21   R(13,14)                1.4449         estimate D2E/DX2                !
 ! R22   R(13,44)                1.0091         estimate D2E/DX2                !
 ! R23   R(14,15)                1.4279         estimate D2E/DX2                !
 ! R24   R(14,19)                1.4006         estimate D2E/DX2                !
 ! R25   R(15,16)                1.4057         estimate D2E/DX2                !
 ! R26   R(15,37)                1.5191         estimate D2E/DX2                !
 ! R27   R(16,17)                1.4002         estimate D2E/DX2                !
 ! R28   R(16,45)                1.0894         estimate D2E/DX2                !
 ! R29   R(17,18)                1.3984         estimate D2E/DX2                !
 ! R30   R(17,46)                1.0833         estimate D2E/DX2                !
 ! R31   R(18,19)                1.4037         estimate D2E/DX2                !
 ! R32   R(18,20)                1.4306         estimate D2E/DX2                !
 ! R33   R(19,47)                1.08           estimate D2E/DX2                !
 ! R34   R(20,21)                1.374          estimate D2E/DX2                !
 ! R35   R(20,48)                1.0105         estimate D2E/DX2                !
 ! R36   R(21,22)                1.5165         estimate D2E/DX2                !
 ! R37   R(21,36)                1.2204         estimate D2E/DX2                !
 ! R38   R(22,23)                1.4053         estimate D2E/DX2                !
 ! R39   R(22,27)                1.4038         estimate D2E/DX2                !
 ! R40   R(23,24)                1.3965         estimate D2E/DX2                !
 ! R41   R(23,49)                1.0876         estimate D2E/DX2                !
 ! R42   R(24,25)                1.4072         estimate D2E/DX2                !
 ! R43   R(24,50)                1.0901         estimate D2E/DX2                !
 ! R44   R(25,26)                1.4087         estimate D2E/DX2                !
 ! R45   R(25,28)                1.5295         estimate D2E/DX2                !
 ! R46   R(26,27)                1.3967         estimate D2E/DX2                !
 ! R47   R(26,51)                1.0898         estimate D2E/DX2                !
 ! R48   R(27,52)                1.087          estimate D2E/DX2                !
 ! R49   R(28,29)                1.4742         estimate D2E/DX2                !
 ! R50   R(28,53)                1.0998         estimate D2E/DX2                !
 ! R51   R(28,54)                1.0998         estimate D2E/DX2                !
 ! R52   R(29,30)                1.4796         estimate D2E/DX2                !
 ! R53   R(29,35)                1.4817         estimate D2E/DX2                !
 ! R54   R(30,31)                1.5492         estimate D2E/DX2                !
 ! R55   R(30,55)                1.0529         estimate D2E/DX2                !
 ! R56   R(30,56)                1.5877         estimate D2E/DX2                !
 ! R57   R(31,32)                1.4802         estimate D2E/DX2                !
 ! R58   R(31,57)                1.5242         estimate D2E/DX2                !
 ! R59   R(31,58)                1.1696         estimate D2E/DX2                !
 ! R60   R(32,33)                1.4674         estimate D2E/DX2                !
 ! R61   R(32,34)                1.4841         estimate D2E/DX2                !
 ! R62   R(33,59)                1.0958         estimate D2E/DX2                !
 ! R63   R(33,60)                1.096          estimate D2E/DX2                !
 ! R64   R(33,61)                1.096          estimate D2E/DX2                !
 ! R65   R(34,35)                1.5526         estimate D2E/DX2                !
 ! R66   R(34,62)                1.181          estimate D2E/DX2                !
 ! R67   R(34,63)                1.4983         estimate D2E/DX2                !
 ! R68   R(35,64)                1.573          estimate D2E/DX2                !
 ! R69   R(35,65)                1.1044         estimate D2E/DX2                !
 ! R70   R(37,66)                1.0993         estimate D2E/DX2                !
 ! R71   R(37,67)                1.0991         estimate D2E/DX2                !
 ! R72   R(37,68)                1.0988         estimate D2E/DX2                !
 ! A1    A(2,1,6)              118.1915         estimate D2E/DX2                !
 ! A2    A(2,1,38)             121.0531         estimate D2E/DX2                !
 ! A3    A(6,1,38)             120.7549         estimate D2E/DX2                !
 ! A4    A(1,2,3)              119.4567         estimate D2E/DX2                !
 ! A5    A(1,2,39)             119.7431         estimate D2E/DX2                !
 ! A6    A(3,2,39)             120.787          estimate D2E/DX2                !
 ! A7    A(2,3,4)              117.1613         estimate D2E/DX2                !
 ! A8    A(2,3,7)              122.6779         estimate D2E/DX2                !
 ! A9    A(4,3,7)              120.144          estimate D2E/DX2                !
 ! A10   A(3,4,5)              124.0157         estimate D2E/DX2                !
 ! A11   A(3,4,40)             119.8753         estimate D2E/DX2                !
 ! A12   A(5,4,40)             116.1068         estimate D2E/DX2                !
 ! A13   A(4,5,6)              117.6668         estimate D2E/DX2                !
 ! A14   A(1,6,5)              123.5001         estimate D2E/DX2                !
 ! A15   A(1,6,41)             120.6393         estimate D2E/DX2                !
 ! A16   A(5,6,41)             115.8606         estimate D2E/DX2                !
 ! A17   A(3,7,8)              126.031          estimate D2E/DX2                !
 ! A18   A(3,7,12)             112.7943         estimate D2E/DX2                !
 ! A19   A(8,7,12)             121.1719         estimate D2E/DX2                !
 ! A20   A(7,8,9)              114.9496         estimate D2E/DX2                !
 ! A21   A(7,8,42)             123.4062         estimate D2E/DX2                !
 ! A22   A(9,8,42)             121.6407         estimate D2E/DX2                !
 ! A23   A(8,9,10)             124.4773         estimate D2E/DX2                !
 ! A24   A(8,9,43)             120.1696         estimate D2E/DX2                !
 ! A25   A(10,9,43)            115.3525         estimate D2E/DX2                !
 ! A26   A(9,10,11)            115.9316         estimate D2E/DX2                !
 ! A27   A(10,11,12)           124.2926         estimate D2E/DX2                !
 ! A28   A(10,11,13)           116.2739         estimate D2E/DX2                !
 ! A29   A(12,11,13)           119.4328         estimate D2E/DX2                !
 ! A30   A(7,12,11)            119.1698         estimate D2E/DX2                !
 ! A31   A(11,13,14)           132.7409         estimate D2E/DX2                !
 ! A32   A(11,13,44)           109.8352         estimate D2E/DX2                !
 ! A33   A(14,13,44)           117.1578         estimate D2E/DX2                !
 ! A34   A(13,14,15)           119.4417         estimate D2E/DX2                !
 ! A35   A(13,14,19)           121.7247         estimate D2E/DX2                !
 ! A36   A(15,14,19)           118.8335         estimate D2E/DX2                !
 ! A37   A(14,15,16)           117.1451         estimate D2E/DX2                !
 ! A38   A(14,15,37)           123.3658         estimate D2E/DX2                !
 ! A39   A(16,15,37)           119.4887         estimate D2E/DX2                !
 ! A40   A(15,16,17)           123.9932         estimate D2E/DX2                !
 ! A41   A(15,16,45)           119.1384         estimate D2E/DX2                !
 ! A42   A(17,16,45)           116.8642         estimate D2E/DX2                !
 ! A43   A(16,17,18)           118.1509         estimate D2E/DX2                !
 ! A44   A(16,17,46)           121.6299         estimate D2E/DX2                !
 ! A45   A(18,17,46)           120.2098         estimate D2E/DX2                !
 ! A46   A(17,18,19)           119.243          estimate D2E/DX2                !
 ! A47   A(17,18,20)           126.1309         estimate D2E/DX2                !
 ! A48   A(19,18,20)           114.6122         estimate D2E/DX2                !
 ! A49   A(14,19,18)           122.6194         estimate D2E/DX2                !
 ! A50   A(14,19,47)           118.1322         estimate D2E/DX2                !
 ! A51   A(18,19,47)           119.228          estimate D2E/DX2                !
 ! A52   A(18,20,21)           131.5331         estimate D2E/DX2                !
 ! A53   A(18,20,48)           113.7095         estimate D2E/DX2                !
 ! A54   A(21,20,48)           114.5828         estimate D2E/DX2                !
 ! A55   A(20,21,22)           116.9306         estimate D2E/DX2                !
 ! A56   A(20,21,36)           122.8473         estimate D2E/DX2                !
 ! A57   A(22,21,36)           120.213          estimate D2E/DX2                !
 ! A58   A(21,22,23)           122.813          estimate D2E/DX2                !
 ! A59   A(21,22,27)           118.3759         estimate D2E/DX2                !
 ! A60   A(23,22,27)           118.8098         estimate D2E/DX2                !
 ! A61   A(22,23,24)           120.443          estimate D2E/DX2                !
 ! A62   A(22,23,49)           119.5139         estimate D2E/DX2                !
 ! A63   A(24,23,49)           120.0396         estimate D2E/DX2                !
 ! A64   A(23,24,25)           121.3412         estimate D2E/DX2                !
 ! A65   A(23,24,50)           118.7007         estimate D2E/DX2                !
 ! A66   A(25,24,50)           119.9496         estimate D2E/DX2                !
 ! A67   A(24,25,26)           117.5539         estimate D2E/DX2                !
 ! A68   A(24,25,28)           121.4309         estimate D2E/DX2                !
 ! A69   A(26,25,28)           120.9626         estimate D2E/DX2                !
 ! A70   A(25,26,27)           121.4903         estimate D2E/DX2                !
 ! A71   A(25,26,51)           120.0149         estimate D2E/DX2                !
 ! A72   A(27,26,51)           118.4948         estimate D2E/DX2                !
 ! A73   A(22,27,26)           120.2475         estimate D2E/DX2                !
 ! A74   A(22,27,52)           118.6223         estimate D2E/DX2                !
 ! A75   A(26,27,52)           121.1005         estimate D2E/DX2                !
 ! A76   A(25,28,29)           118.8907         estimate D2E/DX2                !
 ! A77   A(25,28,53)           108.6105         estimate D2E/DX2                !
 ! A78   A(25,28,54)           108.3971         estimate D2E/DX2                !
 ! A79   A(29,28,53)           107.0563         estimate D2E/DX2                !
 ! A80   A(29,28,54)           106.8033         estimate D2E/DX2                !
 ! A81   A(53,28,54)           106.4381         estimate D2E/DX2                !
 ! A82   A(28,29,30)           119.0553         estimate D2E/DX2                !
 ! A83   A(28,29,35)           118.6482         estimate D2E/DX2                !
 ! A84   A(30,29,35)           110.3824         estimate D2E/DX2                !
 ! A85   A(29,30,31)           114.6442         estimate D2E/DX2                !
 ! A86   A(29,30,55)           110.9148         estimate D2E/DX2                !
 ! A87   A(29,30,56)           106.4005         estimate D2E/DX2                !
 ! A88   A(31,30,55)           112.8887         estimate D2E/DX2                !
 ! A89   A(31,30,56)           105.0148         estimate D2E/DX2                !
 ! A90   A(55,30,56)           106.2143         estimate D2E/DX2                !
 ! A91   A(30,31,32)           114.2912         estimate D2E/DX2                !
 ! A92   A(30,31,57)           106.4034         estimate D2E/DX2                !
 ! A93   A(30,31,58)           111.1911         estimate D2E/DX2                !
 ! A94   A(32,31,57)           108.414          estimate D2E/DX2                !
 ! A95   A(32,31,58)           108.0146         estimate D2E/DX2                !
 ! A96   A(57,31,58)           108.348          estimate D2E/DX2                !
 ! A97   A(31,32,33)           116.8454         estimate D2E/DX2                !
 ! A98   A(31,32,34)           108.8287         estimate D2E/DX2                !
 ! A99   A(33,32,34)           116.1843         estimate D2E/DX2                !
 ! A100  A(32,33,59)           111.0549         estimate D2E/DX2                !
 ! A101  A(32,33,60)           110.1974         estimate D2E/DX2                !
 ! A102  A(32,33,61)           110.136          estimate D2E/DX2                !
 ! A103  A(59,33,60)           108.8599         estimate D2E/DX2                !
 ! A104  A(59,33,61)           108.7288         estimate D2E/DX2                !
 ! A105  A(60,33,61)           107.7847         estimate D2E/DX2                !
 ! A106  A(32,34,35)           114.7013         estimate D2E/DX2                !
 ! A107  A(32,34,62)           109.4355         estimate D2E/DX2                !
 ! A108  A(32,34,63)           106.6965         estimate D2E/DX2                !
 ! A109  A(35,34,62)           110.9178         estimate D2E/DX2                !
 ! A110  A(35,34,63)           107.2401         estimate D2E/DX2                !
 ! A111  A(62,34,63)           107.5016         estimate D2E/DX2                !
 ! A112  A(29,35,34)           114.9509         estimate D2E/DX2                !
 ! A113  A(29,35,64)           106.9369         estimate D2E/DX2                !
 ! A114  A(29,35,65)           110.5236         estimate D2E/DX2                !
 ! A115  A(34,35,64)           105.3555         estimate D2E/DX2                !
 ! A116  A(34,35,65)           111.7907         estimate D2E/DX2                !
 ! A117  A(64,35,65)           106.6936         estimate D2E/DX2                !
 ! A118  A(15,37,66)           111.3811         estimate D2E/DX2                !
 ! A119  A(15,37,67)           111.4454         estimate D2E/DX2                !
 ! A120  A(15,37,68)           112.9841         estimate D2E/DX2                !
 ! A121  A(66,37,67)           107.5021         estimate D2E/DX2                !
 ! A122  A(66,37,68)           106.6699         estimate D2E/DX2                !
 ! A123  A(67,37,68)           106.5241         estimate D2E/DX2                !
 ! D1    D(6,1,2,3)             -0.9984         estimate D2E/DX2                !
 ! D2    D(6,1,2,39)          -179.6881         estimate D2E/DX2                !
 ! D3    D(38,1,2,3)           178.7505         estimate D2E/DX2                !
 ! D4    D(38,1,2,39)            0.0609         estimate D2E/DX2                !
 ! D5    D(2,1,6,5)              0.4447         estimate D2E/DX2                !
 ! D6    D(2,1,6,41)          -179.6042         estimate D2E/DX2                !
 ! D7    D(38,1,6,5)          -179.305          estimate D2E/DX2                !
 ! D8    D(38,1,6,41)            0.6461         estimate D2E/DX2                !
 ! D9    D(1,2,3,4)              1.0093         estimate D2E/DX2                !
 ! D10   D(1,2,3,7)           -177.5009         estimate D2E/DX2                !
 ! D11   D(39,2,3,4)           179.685          estimate D2E/DX2                !
 ! D12   D(39,2,3,7)             1.1748         estimate D2E/DX2                !
 ! D13   D(2,3,4,5)             -0.4834         estimate D2E/DX2                !
 ! D14   D(2,3,4,40)          -179.9225         estimate D2E/DX2                !
 ! D15   D(7,3,4,5)            178.0664         estimate D2E/DX2                !
 ! D16   D(7,3,4,40)            -1.3726         estimate D2E/DX2                !
 ! D17   D(2,3,7,8)           -105.2009         estimate D2E/DX2                !
 ! D18   D(2,3,7,12)            74.1947         estimate D2E/DX2                !
 ! D19   D(4,3,7,8)             76.3319         estimate D2E/DX2                !
 ! D20   D(4,3,7,12)          -104.2725         estimate D2E/DX2                !
 ! D21   D(3,4,5,6)             -0.0703         estimate D2E/DX2                !
 ! D22   D(40,4,5,6)           179.388          estimate D2E/DX2                !
 ! D23   D(4,5,6,1)              0.0935         estimate D2E/DX2                !
 ! D24   D(4,5,6,41)          -179.8597         estimate D2E/DX2                !
 ! D25   D(3,7,8,9)            178.596          estimate D2E/DX2                !
 ! D26   D(3,7,8,42)            -0.7397         estimate D2E/DX2                !
 ! D27   D(12,7,8,9)            -0.7528         estimate D2E/DX2                !
 ! D28   D(12,7,8,42)          179.9115         estimate D2E/DX2                !
 ! D29   D(3,7,12,11)         -178.3998         estimate D2E/DX2                !
 ! D30   D(8,7,12,11)            1.0289         estimate D2E/DX2                !
 ! D31   D(7,8,9,10)             0.0369         estimate D2E/DX2                !
 ! D32   D(7,8,9,43)          -179.6641         estimate D2E/DX2                !
 ! D33   D(42,8,9,10)          179.3855         estimate D2E/DX2                !
 ! D34   D(42,8,9,43)           -0.3154         estimate D2E/DX2                !
 ! D35   D(8,9,10,11)            0.3743         estimate D2E/DX2                !
 ! D36   D(43,9,10,11)        -179.9118         estimate D2E/DX2                !
 ! D37   D(9,10,11,12)          -0.1013         estimate D2E/DX2                !
 ! D38   D(9,10,11,13)        -179.7823         estimate D2E/DX2                !
 ! D39   D(10,11,12,7)          -0.5942         estimate D2E/DX2                !
 ! D40   D(13,11,12,7)         179.0773         estimate D2E/DX2                !
 ! D41   D(10,11,13,14)       -175.8344         estimate D2E/DX2                !
 ! D42   D(10,11,13,44)         -2.1006         estimate D2E/DX2                !
 ! D43   D(12,11,13,14)          4.4683         estimate D2E/DX2                !
 ! D44   D(12,11,13,44)        178.202          estimate D2E/DX2                !
 ! D45   D(11,13,14,15)        163.2339         estimate D2E/DX2                !
 ! D46   D(11,13,14,19)        -16.6217         estimate D2E/DX2                !
 ! D47   D(44,13,14,15)        -10.1397         estimate D2E/DX2                !
 ! D48   D(44,13,14,19)        170.0047         estimate D2E/DX2                !
 ! D49   D(13,14,15,16)        179.3966         estimate D2E/DX2                !
 ! D50   D(13,14,15,37)         -0.3853         estimate D2E/DX2                !
 ! D51   D(19,14,15,16)         -0.7436         estimate D2E/DX2                !
 ! D52   D(19,14,15,37)        179.4745         estimate D2E/DX2                !
 ! D53   D(13,14,19,18)        179.4892         estimate D2E/DX2                !
 ! D54   D(13,14,19,47)          1.1453         estimate D2E/DX2                !
 ! D55   D(15,14,19,18)         -0.3673         estimate D2E/DX2                !
 ! D56   D(15,14,19,47)       -178.7112         estimate D2E/DX2                !
 ! D57   D(14,15,16,17)          1.2164         estimate D2E/DX2                !
 ! D58   D(14,15,16,45)       -179.5515         estimate D2E/DX2                !
 ! D59   D(37,15,16,17)       -178.9928         estimate D2E/DX2                !
 ! D60   D(37,15,16,45)          0.2393         estimate D2E/DX2                !
 ! D61   D(14,15,37,66)         64.0631         estimate D2E/DX2                !
 ! D62   D(14,15,37,67)        -55.9887         estimate D2E/DX2                !
 ! D63   D(14,15,37,68)       -175.8917         estimate D2E/DX2                !
 ! D64   D(16,15,37,66)       -115.714          estimate D2E/DX2                !
 ! D65   D(16,15,37,67)        124.2343         estimate D2E/DX2                !
 ! D66   D(16,15,37,68)          4.3312         estimate D2E/DX2                !
 ! D67   D(15,16,17,18)         -0.5293         estimate D2E/DX2                !
 ! D68   D(15,16,17,46)        178.3559         estimate D2E/DX2                !
 ! D69   D(45,16,17,18)       -179.7774         estimate D2E/DX2                !
 ! D70   D(45,16,17,46)         -0.8923         estimate D2E/DX2                !
 ! D71   D(16,17,18,19)         -0.6261         estimate D2E/DX2                !
 ! D72   D(16,17,18,20)        177.9357         estimate D2E/DX2                !
 ! D73   D(46,17,18,19)       -179.5277         estimate D2E/DX2                !
 ! D74   D(46,17,18,20)         -0.9659         estimate D2E/DX2                !
 ! D75   D(17,18,19,14)          1.0795         estimate D2E/DX2                !
 ! D76   D(17,18,19,47)        179.406          estimate D2E/DX2                !
 ! D77   D(20,18,19,14)       -177.6428         estimate D2E/DX2                !
 ! D78   D(20,18,19,47)          0.6836         estimate D2E/DX2                !
 ! D79   D(17,18,20,21)         -8.1174         estimate D2E/DX2                !
 ! D80   D(17,18,20,48)        177.034          estimate D2E/DX2                !
 ! D81   D(19,18,20,21)        170.5023         estimate D2E/DX2                !
 ! D82   D(19,18,20,48)         -4.3463         estimate D2E/DX2                !
 ! D83   D(18,20,21,22)       -167.9382         estimate D2E/DX2                !
 ! D84   D(18,20,21,36)         13.156          estimate D2E/DX2                !
 ! D85   D(48,20,21,22)          6.8749         estimate D2E/DX2                !
 ! D86   D(48,20,21,36)       -172.0309         estimate D2E/DX2                !
 ! D87   D(20,21,22,23)         36.0652         estimate D2E/DX2                !
 ! D88   D(20,21,22,27)       -144.348          estimate D2E/DX2                !
 ! D89   D(36,21,22,23)       -144.9986         estimate D2E/DX2                !
 ! D90   D(36,21,22,27)         34.5882         estimate D2E/DX2                !
 ! D91   D(21,22,23,24)       -178.3649         estimate D2E/DX2                !
 ! D92   D(21,22,23,49)          2.3214         estimate D2E/DX2                !
 ! D93   D(27,22,23,24)          2.0499         estimate D2E/DX2                !
 ! D94   D(27,22,23,49)       -177.2637         estimate D2E/DX2                !
 ! D95   D(21,22,27,26)        176.4385         estimate D2E/DX2                !
 ! D96   D(21,22,27,52)         -1.6            estimate D2E/DX2                !
 ! D97   D(23,22,27,26)         -3.9578         estimate D2E/DX2                !
 ! D98   D(23,22,27,52)        178.0037         estimate D2E/DX2                !
 ! D99   D(22,23,24,25)          0.7509         estimate D2E/DX2                !
 ! D100  D(22,23,24,50)        179.6878         estimate D2E/DX2                !
 ! D101  D(49,23,24,25)       -179.9391         estimate D2E/DX2                !
 ! D102  D(49,23,24,50)         -1.0021         estimate D2E/DX2                !
 ! D103  D(23,24,25,26)         -1.6119         estimate D2E/DX2                !
 ! D104  D(23,24,25,28)        175.7763         estimate D2E/DX2                !
 ! D105  D(50,24,25,26)        179.4642         estimate D2E/DX2                !
 ! D106  D(50,24,25,28)         -3.1476         estimate D2E/DX2                !
 ! D107  D(24,25,26,27)         -0.3298         estimate D2E/DX2                !
 ! D108  D(24,25,26,51)        179.6738         estimate D2E/DX2                !
 ! D109  D(28,25,26,27)       -177.731          estimate D2E/DX2                !
 ! D110  D(28,25,26,51)          2.2727         estimate D2E/DX2                !
 ! D111  D(24,25,28,29)        -82.8289         estimate D2E/DX2                !
 ! D112  D(24,25,28,53)         39.8077         estimate D2E/DX2                !
 ! D113  D(24,25,28,54)        155.0644         estimate D2E/DX2                !
 ! D114  D(26,25,28,29)         94.4707         estimate D2E/DX2                !
 ! D115  D(26,25,28,53)       -142.8927         estimate D2E/DX2                !
 ! D116  D(26,25,28,54)        -27.6359         estimate D2E/DX2                !
 ! D117  D(25,26,27,22)          3.1426         estimate D2E/DX2                !
 ! D118  D(25,26,27,52)       -178.8682         estimate D2E/DX2                !
 ! D119  D(51,26,27,22)       -176.861          estimate D2E/DX2                !
 ! D120  D(51,26,27,52)          1.1282         estimate D2E/DX2                !
 ! D121  D(25,28,29,30)         74.8244         estimate D2E/DX2                !
 ! D122  D(25,28,29,35)        -64.4216         estimate D2E/DX2                !
 ! D123  D(53,28,29,30)        -48.5815         estimate D2E/DX2                !
 ! D124  D(53,28,29,35)        172.1725         estimate D2E/DX2                !
 ! D125  D(54,28,29,30)       -162.2754         estimate D2E/DX2                !
 ! D126  D(54,28,29,35)         58.4786         estimate D2E/DX2                !
 ! D127  D(28,29,30,31)        -94.3936         estimate D2E/DX2                !
 ! D128  D(28,29,30,55)         34.9097         estimate D2E/DX2                !
 ! D129  D(28,29,30,56)        150.0024         estimate D2E/DX2                !
 ! D130  D(35,29,30,31)         47.9329         estimate D2E/DX2                !
 ! D131  D(35,29,30,55)        177.2362         estimate D2E/DX2                !
 ! D132  D(35,29,30,56)        -67.671          estimate D2E/DX2                !
 ! D133  D(28,29,35,34)         95.7479         estimate D2E/DX2                !
 ! D134  D(28,29,35,64)       -147.7011         estimate D2E/DX2                !
 ! D135  D(28,29,35,65)        -31.9394         estimate D2E/DX2                !
 ! D136  D(30,29,35,34)        -46.7513         estimate D2E/DX2                !
 ! D137  D(30,29,35,64)         69.7996         estimate D2E/DX2                !
 ! D138  D(30,29,35,65)       -174.4386         estimate D2E/DX2                !
 ! D139  D(29,30,31,32)        -53.1117         estimate D2E/DX2                !
 ! D140  D(29,30,31,57)       -172.7242         estimate D2E/DX2                !
 ! D141  D(29,30,31,58)         69.4961         estimate D2E/DX2                !
 ! D142  D(55,30,31,32)        178.5717         estimate D2E/DX2                !
 ! D143  D(55,30,31,57)         58.9592         estimate D2E/DX2                !
 ! D144  D(55,30,31,58)        -58.8205         estimate D2E/DX2                !
 ! D145  D(56,30,31,32)         63.2912         estimate D2E/DX2                !
 ! D146  D(56,30,31,57)        -56.3214         estimate D2E/DX2                !
 ! D147  D(56,30,31,58)       -174.101          estimate D2E/DX2                !
 ! D148  D(30,31,32,33)        -82.0953         estimate D2E/DX2                !
 ! D149  D(30,31,32,34)         51.9402         estimate D2E/DX2                !
 ! D150  D(57,31,32,33)         36.3819         estimate D2E/DX2                !
 ! D151  D(57,31,32,34)        170.4174         estimate D2E/DX2                !
 ! D152  D(58,31,32,33)        153.585          estimate D2E/DX2                !
 ! D153  D(58,31,32,34)        -72.3795         estimate D2E/DX2                !
 ! D154  D(31,32,33,59)         65.8176         estimate D2E/DX2                !
 ! D155  D(31,32,33,60)        -54.8925         estimate D2E/DX2                !
 ! D156  D(31,32,33,61)       -173.6777         estimate D2E/DX2                !
 ! D157  D(34,32,33,59)        -64.8722         estimate D2E/DX2                !
 ! D158  D(34,32,33,60)        174.4177         estimate D2E/DX2                !
 ! D159  D(34,32,33,61)         55.6325         estimate D2E/DX2                !
 ! D160  D(31,32,34,35)        -50.7975         estimate D2E/DX2                !
 ! D161  D(31,32,34,62)       -176.1804         estimate D2E/DX2                !
 ! D162  D(31,32,34,63)         67.7935         estimate D2E/DX2                !
 ! D163  D(33,32,34,35)         83.5771         estimate D2E/DX2                !
 ! D164  D(33,32,34,62)        -41.8058         estimate D2E/DX2                !
 ! D165  D(33,32,34,63)       -157.8319         estimate D2E/DX2                !
 ! D166  D(32,34,35,29)         50.6095         estimate D2E/DX2                !
 ! D167  D(32,34,35,64)        -66.84           estimate D2E/DX2                !
 ! D168  D(32,34,35,65)        177.6547         estimate D2E/DX2                !
 ! D169  D(62,34,35,29)        175.2143         estimate D2E/DX2                !
 ! D170  D(62,34,35,64)         57.7648         estimate D2E/DX2                !
 ! D171  D(62,34,35,65)        -57.7405         estimate D2E/DX2                !
 ! D172  D(63,34,35,29)        -67.6753         estimate D2E/DX2                !
 ! D173  D(63,34,35,64)        174.8753         estimate D2E/DX2                !
 ! D174  D(63,34,35,65)         59.3699         estimate D2E/DX2                !
 --------------------------------------------------------------------------------
 Trust Radius=3.00D-01 FncErr=1.00D-07 GrdErr=1.00D-06
 Number of steps in this run= 400 maximum allowed number of steps= 408.
 GradGradGradGradGradGradGradGradGradGradGradGradGradGradGradGradGradGrad

 Leave Link  103 at Wed Mar 25 12:57:43 2020, MaxMem= 2684354560 cpu:       0.1
 (Enter /opt/g09gh/gaussian/g09/l202.exe)
 Stoichiometry    C29H31N7O
 Framework group  C1[X(C29H31N7O)]
 Deg. of freedom   198
 Full point group                 C1      NOp   1
 Largest Abelian subgroup         C1      NOp   1
 Largest concise Abelian subgroup C1      NOp   1
                         Standard orientation:                         
 ---------------------------------------------------------------------
 Center     Atomic      Atomic             Coordinates (Angstroms)
 Number     Number       Type             X           Y           Z
 ---------------------------------------------------------------------
      1          6           0        0.608174   -3.059034   -0.008211
      2          6           0       -0.719257   -2.923370    0.415809
      3          6           0       -1.759886   -3.044219   -0.521115
      4          6           0       -1.395828   -3.322059   -1.856118
      5          7           0       -0.130961   -3.465252   -2.273707
      6          6           0        0.845928   -3.333750   -1.360980
      7          6           0       -3.196599   -2.858929   -0.158698
      8          6           0       -4.146102   -3.875378   -0.013677
      9          6           0       -5.423093   -3.441442    0.362894
     10          7           0       -5.754564   -2.168994    0.576813
     11          6           0       -4.767375   -1.264042    0.401707
     12          7           0       -3.520873   -1.572087    0.039868
     13          7           0       -5.103081    0.060878    0.626832
     14          6           0       -4.371404    1.297471    0.474202
     15          6           0       -5.083294    2.534791    0.441901
     16          6           0       -4.322691    3.708912    0.304742
     17          6           0       -2.928612    3.727925    0.175274
     18          6           0       -2.247560    2.506680    0.193822
     19          6           0       -2.976170    1.317580    0.353340
     20          7           0       -0.837617    2.324656    0.034372
     21          6           0        0.161112    3.202977   -0.310362
     22          6           0        1.510921    2.605903   -0.658415
     23          6           0        1.650597    1.386510   -1.342791
     24          6           0        2.918658    0.865285   -1.608161
     25          6           0        4.085797    1.530305   -1.188890
     26          6           0        3.930408    2.760705   -0.520851
     27          6           0        2.667458    3.309201   -0.286405
     28          6           0        5.471245    0.915693   -1.393859
     29          7           0        5.964365   -0.071215   -0.416058
     30          6           0        5.408991   -1.442503   -0.436648
     31          6           0        4.228088   -1.675885    0.538490
     32          7           0        4.510202   -1.290933    1.939600
     33          6           0        5.238384   -2.265027    2.760648
     34          6           0        5.028520    0.099550    1.959199
     35          6           0        6.202015    0.368414    0.978814
     36          8           0        0.002773    4.412994   -0.324431
     37          6           0       -6.595261    2.631898    0.552208
     38          1           0        1.433038   -2.950616    0.689746
     39          1           0       -0.932639   -2.704924    1.459852
     40          1           0       -2.166130   -3.423408   -2.618197
     41          1           0        1.862411   -3.453442   -1.732620
     42          1           0       -3.924445   -4.925161   -0.166374
     43          1           0       -6.226891   -4.163289    0.505369
     44          1           0       -6.081836    0.130859    0.862315
     45          1           0       -4.832208    4.671602    0.283806
     46          1           0       -2.382692    4.654570    0.045411
     47          1           0       -2.450971    0.373867    0.357935
     48          1           0       -0.538963    1.363749    0.126782
     49          1           0        0.762557    0.854267   -1.675859
     50          1           0        2.993887   -0.085256   -2.136421
     51          1           0        4.807144    3.307226   -0.173991
     52          1           0        2.555670    4.267906    0.213610
     53          1           0        5.498262    0.432546   -2.381479
     54          1           0        6.210691    1.729198   -1.425031
     55          1           0        5.192903   -1.745741   -1.421459
     56          1           0        6.564188   -2.401822    0.079245
     57          1           0        3.927517   -3.169701    0.500795
     58          1           0        3.272026   -1.099066    0.190398
     59          1           0        6.258611   -2.409570    2.387896
     60          1           0        4.718513   -3.229830    2.753341
     61          1           0        5.288931   -1.919842    3.799682
     62          1           0        5.326449    0.392346    3.063856
     63          1           0        3.894054    0.987658    1.548053
     64          1           0        7.406633   -0.481056    1.528082
     65          1           0        6.522132    1.425175    1.002520
     66          1           0       -6.949382    2.276540    1.530361
     67          1           0       -7.094047    2.028318   -0.219135
     68          1           0       -6.968881    3.658597    0.435716
 ---------------------------------------------------------------------
 Rotational constants (GHZ):      0.1356852      0.0607352      0.0462510
 Leave Link  202 at Wed Mar 25 12:57:43 2020, MaxMem= 2684354560 cpu:       0.1
 (Enter /opt/g09gh/gaussian/g09/l301.exe)
 Standard basis: 6-31G(d) (6D, 7F)
 Ernie: Thresh=  0.10000D-02 Tol=  0.10000D-05 Strict=F.
 There are   617 symmetry adapted basis functions of A   symmetry.
 Integral buffers will be    131072 words long.
 Raffenetti 2 integral format.
 Two-electron integral symmetry is turned on.
   617 basis functions,  1160 primitive gaussians,   617 cartesian basis functions
   131 alpha electrons      131 beta electrons
       nuclear repulsion energy      3788.9434479474 Hartrees.
 IExCor= 4639 DFT=T Ex+Corr=wB97XD ExCW=0 ScaHFX=  1.000000
 ScaDFX=  1.000000  1.000000  1.000000  1.000000 ScalE2=  1.000000  1.000000
 IRadAn=      0 IRanWt=     -1 IRanGd=            0 ICorTp=0
  HFx wShort=  0.000000 wLong=  0.200000 cFull=  0.222036 cShort=  0.000000 cLong=  0.777964
  DFx wShort=  0.000000 wLong=  0.200000 cFull=  0.000000 cShort=  0.000000 cLong=  1.000000
 NAtoms=   68 NActive=   68 NUniq=   68 SFac= 7.50D-01 NAtFMM=   80 NAOKFM=F Big=T
 R6Disp: Dispersion energy =        -0.0582716538 Hartrees.
 Nuclear repulsion after empirical dispersion term =     3788.8851762936 Hartrees.
 Leave Link  301 at Wed Mar 25 12:57:43 2020, MaxMem= 2684354560 cpu:       0.4
 (Enter /opt/g09gh/gaussian/g09/l302.exe)
 NPDir=0 NMtPBC=     1 NCelOv=     1 NCel=       1 NClECP=     1 NCelD=      1
         NCelK=      1 NCelE2=     1 NClLst=     1 CellRange=     0.0.
 One-electron integrals computed using PRISM.
 NBasis=   617 RedAO= T  NBF=   617
 NBsUse=   617 1.00D-06 NBFU=   617
 Precomputing XC quadrature grid using
 IXCGrd= 2 IRadAn=           0 IRanWt=          -1 IRanGd=           0 AccXCQ= 1.00D-10.
 NRdTot=    4372 NPtTot=      558794 NUsed=      590295 NTot=      590327
 NSgBfM=   602   602   602   602   602 NAtAll=    68    68.
 Leave Link  302 at Wed Mar 25 12:57:45 2020, MaxMem= 2684354560 cpu:       8.0
 (Enter /opt/g09gh/gaussian/g09/l303.exe)
 DipDrv:  MaxL=1.
 Leave Link  303 at Wed Mar 25 12:57:45 2020, MaxMem= 2684354560 cpu:       0.8
 (Enter /opt/g09gh/gaussian/g09/l401.exe)
 Harris functional with IExCor= 4639 diagonalized for initial guess.
 ExpMin= 1.61D-01 ExpMax= 5.48D+03 ExpMxC= 8.25D+02 IAcc=1 IRadAn=         1 AccDes= 0.00D+00
 HarFok:  IExCor= 4639 AccDes= 0.00D+00 IRadAn=         1 IDoV= 1
 ScaDFX=  1.000000  1.000000  1.000000  1.000000
 FoFCou: FMM=F IPFlag=           0 FMFlag=      100000 FMFlg1=           1
         NFxFlg=           0 DoJE=T BraDBF=F KetDBF=T FulRan=T
         Omega=  0.000000  0.000000  1.000000  0.000000  0.000000 ICntrl=     500 IOpCl=  0
         NMat0=    1 NMatS0=    1 NMatT0=    0 NMatD0=    1 NMtDS0=    0 NMtDT0=    0
         I1Cent=           4 NGrid=           0.
 Petite list used in FoFCou.
 Harris En= -1512.38963103239    
 Initial guess orbital symmetries:
       Occupied  (A) (A) (A) (A) (A) (A) (A) (A) (A) (A) (A) (A)
                 (A) (A) (A) (A) (A) (A) (A) (A) (A) (A) (A) (A)
                 (A) (A) (A) (A) (A) (A) (A) (A) (A) (A) (A) (A)
                 (A) (A) (A) (A) (A) (A) (A) (A) (A) (A) (A) (A)
                 (A) (A) (A) (A) (A) (A) (A) (A) (A) (A) (A) (A)
                 (A) (A) (A) (A) (A) (A) (A) (A) (A) (A) (A) (A)
                 (A) (A) (A) (A) (A) (A) (A) (A) (A) (A) (A) (A)
                 (A) (A) (A) (A) (A) (A) (A) (A) (A) (A) (A) (A)
                 (A) (A) (A) (A) (A) (A) (A) (A) (A) (A) (A) (A)
                 (A) (A) (A) (A) (A) (A) (A) (A) (A) (A) (A) (A)
                 (A) (A) (A) (A) (A) (A) (A) (A) (A) (A) (A)
       Virtual   (A) (A) (A) (A) (A) (A) (A) (A) (A) (A) (A) (A)
                 (A) (A) (A) (A) (A) (A) (A) (A) (A) (A) (A) (A)
                 (A) (A) (A) (A) (A) (A) (A) (A) (A) (A) (A) (A)
                 (A) (A) (A) (A) (A) (A) (A) (A) (A) (A) (A) (A)
                 (A) (A) (A) (A) (A) (A) (A) (A) (A) (A) (A) (A)
                 (A) (A) (A) (A) (A) (A) (A) (A) (A) (A) (A) (A)
                 (A) (A) (A) (A) (A) (A) (A) (A) (A) (A) (A) (A)
                 (A) (A) (A) (A) (A) (A) (A) (A) (A) (A) (A) (A)
                 (A) (A) (A) (A) (A) (A) (A) (A) (A) (A) (A) (A)
                 (A) (A) (A) (A) (A) (A) (A) (A) (A) (A) (A) (A)
                 (A) (A) (A) (A) (A) (A) (A) (A) (A) (A) (A) (A)
                 (A) (A) (A) (A) (A) (A) (A) (A) (A) (A) (A) (A)
                 (A) (A) (A) (A) (A) (A) (A) (A) (A) (A) (A) (A)
                 (A) (A) (A) (A) (A) (A) (A) (A) (A) (A) (A) (A)
                 (A) (A) (A) (A) (A) (A) (A) (A) (A) (A) (A) (A)
                 (A) (A) (A) (A) (A) (A) (A) (A) (A) (A) (A) (A)
                 (A) (A) (A) (A) (A) (A) (A) (A) (A) (A) (A) (A)
                 (A) (A) (A) (A) (A) (A) (A) (A) (A) (A) (A) (A)
                 (A) (A) (A) (A) (A) (A) (A) (A) (A) (A) (A) (A)
                 (A) (A) (A) (A) (A) (A) (A) (A) (A) (A) (A) (A)
                 (A) (A) (A) (A) (A) (A) (A) (A) (A) (A) (A) (A)
                 (A) (A) (A) (A) (A) (A) (A) (A) (A) (A) (A) (A)
                 (A) (A) (A) (A) (A) (A) (A) (A) (A) (A) (A) (A)
                 (A) (A) (A) (A) (A) (A) (A) (A) (A) (A) (A) (A)
                 (A) (A) (A) (A) (A) (A) (A) (A) (A) (A) (A) (A)
                 (A) (A) (A) (A) (A) (A) (A) (A) (A) (A) (A) (A)
                 (A) (A) (A) (A) (A) (A) (A) (A) (A) (A) (A) (A)
                 (A) (A) (A) (A) (A) (A) (A) (A) (A) (A) (A) (A)
                 (A) (A) (A) (A) (A) (A) (A) (A) (A) (A) (A) (A)
                 (A) (A) (A) (A) (A) (A) (A) (A) (A) (A) (A) (A)
                 (A) (A) (A) (A) (A) (A) (A) (A) (A) (A) (A) (A)
                 (A) (A) (A) (A) (A) (A) (A) (A) (A) (A) (A) (A)
                 (A) (A) (A) (A) (A) (A) (A) (A) (A) (A) (A) (A)
                 (A) (A) (A) (A) (A) (A) (A) (A) (A) (A) (A) (A)
                 (A) (A) (A) (A) (A) (A) (A) (A) (A) (A) (A) (A)
                 (A) (A) (A) (A) (A) (A) (A) (A) (A) (A) (A) (A)
                 (A) (A) (A) (A) (A) (A) (A) (A) (A) (A) (A) (A)
                 (A) (A) (A) (A) (A) (A) (A) (A) (A) (A) (A) (A)
                 (A) (A) (A) (A) (A) (A) (A) (A) (A) (A) (A) (A)
                 (A) (A) (A) (A) (A) (A) (A) (A) (A) (A) (A) (A)
                 (A) (A) (A) (A) (A) (A)
 The electronic state of the initial guess is 1-A.
 Leave Link  401 at Wed Mar 25 12:57:48 2020, MaxMem= 2684354560 cpu:      15.4
 (Enter /opt/g09gh/gaussian/g09/l502.exe)
 Closed shell SCF:
 Requested convergence on RMS density matrix=1.00D-08 within 128 cycles.
 Requested convergence on MAX density matrix=1.00D-06.
 Requested convergence on             energy=1.00D-06.
 No special actions if energy rises.
 Using DIIS extrapolation, IDIIS=  1040.
 Integral symmetry usage will be decided dynamically.
       589670 words used for storage of precomputed grid.
 IEnd=     1758250 IEndB=     1758250 NGot=  2684354560 MDV=  2682994257
 LenX=  2682994257 LenY=  2682612951
 Fock matrices will be formed incrementally for  20 cycles.
 Integral accuracy reduced to 1.0D-05 until final iterations.

 Cycle   1  Pass 0  IDiag  1:
 FoFJK:  IHMeth= 1 ICntrl=     0 DoSepK=T KAlg= 1 I1Cent= 0 FoldK=F
 FoFCou: FMM=T IPFlag=           0 FMFlag=      100000 FMFlg1=           1
         NFxFlg=           0 DoJE=T BraDBF=F KetDBF=F FulRan=T
         Omega=  0.000000  0.000000  1.000000  0.000000  0.000000 ICntrl=     500 IOpCl=  0
         NMat0=    1 NMatS0=    1 NMatT0=    0 NMatD0=    1 NMtDS0=    0 NMtDT0=    0
         I1Cent=           0 NGrid=           0.
 Symmetry not used in FoFCou.
 FMM levels:  10  Number of levels for PrismC:   9
 E= -1581.14914284046    
 DIIS: error= 4.87D-02 at cycle   1 NSaved=   1.
 NSaved= 1 IEnMin= 1 EnMin= -1581.14914284046     IErMin= 1 ErrMin= 4.87D-02
 ErrMax= 4.87D-02 EMaxC= 1.00D-01 BMatC= 1.46D+00 BMatP= 1.46D+00
 IDIUse=3 WtCom= 5.13D-01 WtEn= 4.87D-01
 Coeff-Com:  0.100D+01
 Coeff-En:   0.100D+01
 Coeff:      0.100D+01
 Gap=     0.326 Goal=   None    Shift=    0.000
 GapD=    0.326 DampG=1.000 DampE=0.500 DampFc=0.5000 IDamp=-1.
 Damping current iteration by 5.00D-01
 RMSDP=1.87D-03 MaxDP=8.42D-02              OVMax= 1.70D-01

 Cycle   2  Pass 0  IDiag  1:
 RMSU=  6.59D-04    CP:  1.00D+00
 FoFJK:  IHMeth= 1 ICntrl=     0 DoSepK=T KAlg= 1 I1Cent= 0 FoldK=F
 E= -1581.32531274373     Delta-E=       -0.176169903268 Rises=F Damp=T
 DIIS: error= 2.47D-02 at cycle   2 NSaved=   2.
 NSaved= 2 IEnMin= 2 EnMin= -1581.32531274373     IErMin= 2 ErrMin= 2.47D-02
 ErrMax= 2.47D-02 EMaxC= 1.00D-01 BMatC= 3.22D-01 BMatP= 1.46D+00
 IDIUse=3 WtCom= 7.53D-01 WtEn= 2.47D-01
 Coeff-Com: -0.651D+00 0.165D+01
 Coeff-En:   0.000D+00 0.100D+01
 Coeff:     -0.490D+00 0.149D+01
 Gap=     0.315 Goal=   None    Shift=    0.000
 RMSDP=8.75D-04 MaxDP=3.65D-02 DE=-1.76D-01 OVMax= 1.23D-01

 Cycle   3  Pass 0  IDiag  1:
 RMSU=  5.71D-04    CP:  1.00D+00  1.36D+00
 FoFJK:  IHMeth= 1 ICntrl=     0 DoSepK=T KAlg= 1 I1Cent= 0 FoldK=F
 E= -1581.45032503516     Delta-E=       -0.125012291429 Rises=F Damp=F
 DIIS: error= 1.02D-02 at cycle   3 NSaved=   3.
 NSaved= 3 IEnMin= 3 EnMin= -1581.45032503516     IErMin= 3 ErrMin= 1.02D-02
 ErrMax= 1.02D-02 EMaxC= 1.00D-01 BMatC= 6.79D-02 BMatP= 3.22D-01
 IDIUse=3 WtCom= 8.98D-01 WtEn= 1.02D-01
 Coeff-Com: -0.373D+00 0.770D+00 0.603D+00
 Coeff-En:   0.000D+00 0.000D+00 0.100D+01
 Coeff:     -0.335D+00 0.691D+00 0.644D+00
 Gap=     0.298 Goal=   None    Shift=    0.000
 RMSDP=4.91D-04 MaxDP=3.41D-02 DE=-1.25D-01 OVMax= 6.47D-02

 Cycle   4  Pass 0  IDiag  1:
 RMSU=  1.39D-04    CP:  1.00D+00  1.67D+00  5.77D-01
 FoFJK:  IHMeth= 1 ICntrl=     0 DoSepK=T KAlg= 1 I1Cent= 0 FoldK=F
 E= -1581.50994379026     Delta-E=       -0.059618755104 Rises=F Damp=F
 DIIS: error= 2.08D-03 at cycle   4 NSaved=   4.
 NSaved= 4 IEnMin= 4 EnMin= -1581.50994379026     IErMin= 4 ErrMin= 2.08D-03
 ErrMax= 2.08D-03 EMaxC= 1.00D-01 BMatC= 4.16D-03 BMatP= 6.79D-02
 IDIUse=3 WtCom= 9.79D-01 WtEn= 2.08D-02
 Coeff-Com: -0.162D+00 0.330D+00 0.345D+00 0.487D+00
 Coeff-En:   0.000D+00 0.000D+00 0.000D+00 0.100D+01
 Coeff:     -0.159D+00 0.323D+00 0.338D+00 0.498D+00
 Gap=     0.291 Goal=   None    Shift=    0.000
 RMSDP=1.05D-04 MaxDP=9.19D-03 DE=-5.96D-02 OVMax= 1.05D-02

 Cycle   5  Pass 0  IDiag  1:
 RMSU=  4.45D-05    CP:  1.00D+00  1.65D+00  6.51D-01  7.28D-01
 FoFJK:  IHMeth= 1 ICntrl=     0 DoSepK=T KAlg= 1 I1Cent= 0 FoldK=F
 E= -1581.51351092416     Delta-E=       -0.003567133896 Rises=F Damp=F
 DIIS: error= 5.26D-04 at cycle   5 NSaved=   5.
 NSaved= 5 IEnMin= 5 EnMin= -1581.51351092416     IErMin= 5 ErrMin= 5.26D-04
 ErrMax= 5.26D-04 EMaxC= 1.00D-01 BMatC= 8.39D-05 BMatP= 4.16D-03
 IDIUse=3 WtCom= 9.95D-01 WtEn= 5.26D-03
 Coeff-Com: -0.112D-01 0.218D-01 0.478D-01 0.152D+00 0.789D+00
 Coeff-En:   0.000D+00 0.000D+00 0.000D+00 0.000D+00 0.100D+01
 Coeff:     -0.111D-01 0.216D-01 0.476D-01 0.152D+00 0.790D+00
 Gap=     0.288 Goal=   None    Shift=    0.000
 RMSDP=2.46D-05 MaxDP=2.66D-03 DE=-3.57D-03 OVMax= 3.06D-03

 Cycle   6  Pass 0  IDiag  1:
 RMSU=  1.34D-05    CP:  1.00D+00  1.65D+00  6.58D-01  7.97D-01  9.91D-01
 FoFJK:  IHMeth= 1 ICntrl=     0 DoSepK=T KAlg= 1 I1Cent= 0 FoldK=F
 E= -1581.51359523838     Delta-E=       -0.000084314222 Rises=F Damp=F
 DIIS: error= 2.68D-04 at cycle   6 NSaved=   6.
 NSaved= 6 IEnMin= 6 EnMin= -1581.51359523838     IErMin= 6 ErrMin= 2.68D-04
 ErrMax= 2.68D-04 EMaxC= 1.00D-01 BMatC= 2.81D-05 BMatP= 8.39D-05
 IDIUse=3 WtCom= 9.97D-01 WtEn= 2.68D-03
 Coeff-Com:  0.245D-01-0.506D-01-0.379D-01-0.163D-01 0.414D+00 0.666D+00
 Coeff-En:   0.000D+00 0.000D+00 0.000D+00 0.000D+00 0.000D+00 0.100D+01
 Coeff:      0.244D-01-0.504D-01-0.378D-01-0.162D-01 0.413D+00 0.667D+00
 Gap=     0.289 Goal=   None    Shift=    0.000
 RMSDP=1.29D-05 MaxDP=8.32D-04 DE=-8.43D-05 OVMax= 1.67D-03

 Cycle   7  Pass 0  IDiag  1:
 RMSU=  5.66D-06    CP:  1.00D+00  1.65D+00  6.62D-01  8.25D-01  1.11D+00
                    CP:  8.95D-01
 FoFJK:  IHMeth= 1 ICntrl=     0 DoSepK=T KAlg= 1 I1Cent= 0 FoldK=F
 E= -1581.51362593078     Delta-E=       -0.000030692398 Rises=F Damp=F
 DIIS: error= 7.51D-05 at cycle   7 NSaved=   7.
 NSaved= 7 IEnMin= 7 EnMin= -1581.51362593078     IErMin= 7 ErrMin= 7.51D-05
 ErrMax= 7.51D-05 EMaxC= 1.00D-01 BMatC= 1.61D-06 BMatP= 2.81D-05
 IDIUse=1 WtCom= 1.00D+00 WtEn= 0.00D+00
 Coeff-Com:  0.950D-02-0.194D-01-0.169D-01-0.205D-01 0.680D-01 0.224D+00
 Coeff-Com:  0.756D+00
 Coeff:      0.950D-02-0.194D-01-0.169D-01-0.205D-01 0.680D-01 0.224D+00
 Coeff:      0.756D+00
 Gap=     0.289 Goal=   None    Shift=    0.000
 RMSDP=4.09D-06 MaxDP=2.58D-04 DE=-3.07D-05 OVMax= 6.54D-04

 Initial convergence to 1.0D-05 achieved.  Increase integral accuracy.
 Cycle   8  Pass 1  IDiag  1:
 FoFJK:  IHMeth= 1 ICntrl=     0 DoSepK=T KAlg= 1 I1Cent= 0 FoldK=F
 E= -1581.51196278431     Delta-E=        0.001663146466 Rises=F Damp=F
 DIIS: error= 9.12D-05 at cycle   1 NSaved=   1.
 NSaved= 1 IEnMin= 1 EnMin= -1581.51196278431     IErMin= 1 ErrMin= 9.12D-05
 ErrMax= 9.12D-05 EMaxC= 1.00D-01 BMatC= 1.37D-05 BMatP= 1.37D-05
 IDIUse=1 WtCom= 1.00D+00 WtEn= 0.00D+00
 Coeff-Com:  0.100D+01
 Coeff:      0.100D+01
 Gap=     0.289 Goal=   None    Shift=    0.000
 RMSDP=4.09D-06 MaxDP=2.58D-04 DE= 1.66D-03 OVMax= 3.75D-04

 Cycle   9  Pass 1  IDiag  1:
 RMSU=  1.94D-05    CP:  1.00D+00
 FoFJK:  IHMeth= 1 ICntrl=     0 DoSepK=T KAlg= 1 I1Cent= 0 FoldK=F
 E= -1581.51197421101     Delta-E=       -0.000011426695 Rises=F Damp=F
 DIIS: error= 3.83D-05 at cycle   2 NSaved=   2.
 NSaved= 2 IEnMin= 2 EnMin= -1581.51197421101     IErMin= 2 ErrMin= 3.83D-05
 ErrMax= 3.83D-05 EMaxC= 1.00D-01 BMatC= 7.12D-07 BMatP= 1.37D-05
 IDIUse=1 WtCom= 1.00D+00 WtEn= 0.00D+00
 Coeff-Com:  0.208D-01 0.979D+00
 Coeff:      0.208D-01 0.979D+00
 Gap=     0.289 Goal=   None    Shift=    0.000
 RMSDP=3.17D-06 MaxDP=2.24D-04 DE=-1.14D-05 OVMax= 3.34D-04

 Cycle  10  Pass 1  IDiag  1:
 RMSU=  2.03D-06    CP:  1.00D+00  1.05D+00
 FoFJK:  IHMeth= 1 ICntrl=     0 DoSepK=T KAlg= 1 I1Cent= 0 FoldK=F
 E= -1581.51197432576     Delta-E=       -0.000000114747 Rises=F Damp=F
 DIIS: error= 4.16D-05 at cycle   3 NSaved=   3.
 NSaved= 3 IEnMin= 3 EnMin= -1581.51197432576     IErMin= 2 ErrMin= 3.83D-05
 ErrMax= 4.16D-05 EMaxC= 1.00D-01 BMatC= 8.41D-07 BMatP= 7.12D-07
 IDIUse=1 WtCom= 1.00D+00 WtEn= 0.00D+00
 Coeff-Com: -0.400D-01 0.540D+00 0.500D+00
 Coeff:     -0.400D-01 0.540D+00 0.500D+00
 Gap=     0.289 Goal=   None    Shift=    0.000
 RMSDP=1.53D-06 MaxDP=1.28D-04 DE=-1.15D-07 OVMax= 1.58D-04

 Cycle  11  Pass 1  IDiag  1:
 RMSU=  6.56D-07    CP:  1.00D+00  1.06D+00  5.84D-01
 FoFJK:  IHMeth= 1 ICntrl=     0 DoSepK=T KAlg= 1 I1Cent= 0 FoldK=F
 E= -1581.51197506659     Delta-E=       -0.000000740839 Rises=F Damp=F
 DIIS: error= 7.55D-06 at cycle   4 NSaved=   4.
 NSaved= 4 IEnMin= 4 EnMin= -1581.51197506659     IErMin= 4 ErrMin= 7.55D-06
 ErrMax= 7.55D-06 EMaxC= 1.00D-01 BMatC= 2.43D-08 BMatP= 7.12D-07
 IDIUse=1 WtCom= 1.00D+00 WtEn= 0.00D+00
 Coeff-Com: -0.163D-01 0.112D+00 0.173D+00 0.731D+00
 Coeff:     -0.163D-01 0.112D+00 0.173D+00 0.731D+00
 Gap=     0.289 Goal=   None    Shift=    0.000
 RMSDP=3.74D-07 MaxDP=3.77D-05 DE=-7.41D-07 OVMax= 3.99D-05

 Cycle  12  Pass 1  IDiag  1:
 RMSU=  2.28D-07    CP:  1.00D+00  1.06D+00  6.46D-01  1.05D+00
 FoFJK:  IHMeth= 1 ICntrl=     0 DoSepK=T KAlg= 1 I1Cent= 0 FoldK=F
 E= -1581.51197509241     Delta-E=       -0.000000025816 Rises=F Damp=F
 DIIS: error= 3.29D-06 at cycle   5 NSaved=   5.
 NSaved= 5 IEnMin= 5 EnMin= -1581.51197509241     IErMin= 5 ErrMin= 3.29D-06
 ErrMax= 3.29D-06 EMaxC= 1.00D-01 BMatC= 5.68D-09 BMatP= 2.43D-08
 IDIUse=1 WtCom= 1.00D+00 WtEn= 0.00D+00
 Coeff-Com:  0.695D-04-0.441D-01-0.101D-01 0.329D+00 0.725D+00
 Coeff:      0.695D-04-0.441D-01-0.101D-01 0.329D+00 0.725D+00
 Gap=     0.289 Goal=   None    Shift=    0.000
 RMSDP=2.00D-07 MaxDP=1.35D-05 DE=-2.58D-08 OVMax= 3.11D-05

 Cycle  13  Pass 1  IDiag  1:
 RMSU=  9.88D-08    CP:  1.00D+00  1.06D+00  6.65D-01  1.19D+00  9.59D-01
 FoFJK:  IHMeth= 1 ICntrl=     0 DoSepK=T KAlg= 1 I1Cent= 0 FoldK=F
 E= -1581.51197510041     Delta-E=       -0.000000007999 Rises=F Damp=F
 DIIS: error= 7.60D-07 at cycle   6 NSaved=   6.
 NSaved= 6 IEnMin= 6 EnMin= -1581.51197510041     IErMin= 6 ErrMin= 7.60D-07
 ErrMax= 7.60D-07 EMaxC= 1.00D-01 BMatC= 6.10D-10 BMatP= 5.68D-09
 IDIUse=1 WtCom= 1.00D+00 WtEn= 0.00D+00
 Coeff-Com:  0.216D-02-0.291D-01-0.261D-01 0.149D-01 0.254D+00 0.784D+00
 Coeff:      0.216D-02-0.291D-01-0.261D-01 0.149D-01 0.254D+00 0.784D+00
 Gap=     0.289 Goal=   None    Shift=    0.000
 RMSDP=9.00D-08 MaxDP=4.94D-06 DE=-8.00D-09 OVMax= 1.60D-05

 Cycle  14  Pass 1  IDiag  1:
 RMSU=  3.73D-08    CP:  1.00D+00  1.06D+00  6.71D-01  1.25D+00  1.10D+00
                    CP:  1.06D+00
 FoFJK:  IHMeth= 1 ICntrl=     0 DoSepK=T KAlg= 1 I1Cent= 0 FoldK=F
 E= -1581.51197510180     Delta-E=       -0.000000001392 Rises=F Damp=F
 DIIS: error= 3.77D-07 at cycle   7 NSaved=   7.
 NSaved= 7 IEnMin= 7 EnMin= -1581.51197510180     IErMin= 7 ErrMin= 3.77D-07
 ErrMax= 3.77D-07 EMaxC= 1.00D-01 BMatC= 1.26D-10 BMatP= 6.10D-10
 IDIUse=1 WtCom= 1.00D+00 WtEn= 0.00D+00
 Coeff-Com:  0.833D-03-0.375D-02-0.932D-02-0.602D-01-0.362D-01 0.303D+00
 Coeff-Com:  0.805D+00
 Coeff:      0.833D-03-0.375D-02-0.932D-02-0.602D-01-0.362D-01 0.303D+00
 Coeff:      0.805D+00
 Gap=     0.289 Goal=   None    Shift=    0.000
 RMSDP=4.81D-08 MaxDP=2.93D-06 DE=-1.39D-09 OVMax= 8.88D-06

 Cycle  15  Pass 1  IDiag  1:
 RMSU=  1.51D-08    CP:  1.00D+00  1.06D+00  6.76D-01  1.27D+00  1.16D+00
                    CP:  1.27D+00  1.08D+00
 FoFJK:  IHMeth= 1 ICntrl=     0 DoSepK=T KAlg= 1 I1Cent= 0 FoldK=F
 E= -1581.51197510208     Delta-E=       -0.000000000276 Rises=F Damp=F
 DIIS: error= 1.58D-07 at cycle   8 NSaved=   8.
 NSaved= 8 IEnMin= 8 EnMin= -1581.51197510208     IErMin= 8 ErrMin= 1.58D-07
 ErrMax= 1.58D-07 EMaxC= 1.00D-01 BMatC= 1.81D-11 BMatP= 1.26D-10
 IDIUse=1 WtCom= 1.00D+00 WtEn= 0.00D+00
 Coeff-Com: -0.966D-04 0.388D-02 0.159D-02-0.214D-01-0.522D-01-0.391D-01
 Coeff-Com:  0.270D+00 0.837D+00
 Coeff:     -0.966D-04 0.388D-02 0.159D-02-0.214D-01-0.522D-01-0.391D-01
 Coeff:      0.270D+00 0.837D+00
 Gap=     0.289 Goal=   None    Shift=    0.000
 RMSDP=1.93D-08 MaxDP=1.23D-06 DE=-2.76D-10 OVMax= 3.90D-06

 Cycle  16  Pass 1  IDiag  1:
 RMSU=  6.27D-09    CP:  1.00D+00  1.06D+00  6.76D-01  1.28D+00  1.18D+00
                    CP:  1.33D+00  1.27D+00  1.08D+00
 FoFJK:  IHMeth= 1 ICntrl=     0 DoSepK=T KAlg= 1 I1Cent= 0 FoldK=F
 E= -1581.51197510217     Delta-E=       -0.000000000095 Rises=F Damp=F
 DIIS: error= 6.39D-08 at cycle   9 NSaved=   9.
 NSaved= 9 IEnMin= 9 EnMin= -1581.51197510217     IErMin= 9 ErrMin= 6.39D-08
 ErrMax= 6.39D-08 EMaxC= 1.00D-01 BMatC= 3.10D-12 BMatP= 1.81D-11
 IDIUse=1 WtCom= 1.00D+00 WtEn= 0.00D+00
 Coeff-Com: -0.165D-03 0.206D-02 0.209D-02 0.130D-02-0.148D-01-0.685D-01
 Coeff-Com: -0.267D-01 0.308D+00 0.797D+00
 Coeff:     -0.165D-03 0.206D-02 0.209D-02 0.130D-02-0.148D-01-0.685D-01
 Coeff:     -0.267D-01 0.308D+00 0.797D+00
 Gap=     0.289 Goal=   None    Shift=    0.000
 RMSDP=7.53D-09 MaxDP=4.43D-07 DE=-9.46D-11 OVMax= 1.40D-06

 SCF Done:  E(RwB97XD) =  -1581.51197510     A.U. after   16 cycles
             Convg  =    0.7535D-08             -V/T =  2.0109
 KE= 1.564405551666D+03 PE=-1.124561562052D+04 EE= 4.310812917454D+03
 Leave Link  502 at Wed Mar 25 13:00:34 2020, MaxMem= 2684354560 cpu:     996.0
 (Enter /opt/g09gh/gaussian/g09/l601.exe)
 Copying SCF densities to generalized density rwf, IOpCl= 0 IROHF=0.

 **********************************************************************

            Population analysis using the SCF density.

 **********************************************************************

 Orbital symmetries:
       Occupied  (A) (A) (A) (A) (A) (A) (A) (A) (A) (A) (A) (A)
                 (A) (A) (A) (A) (A) (A) (A) (A) (A) (A) (A) (A)
                 (A) (A) (A) (A) (A) (A) (A) (A) (A) (A) (A) (A)
                 (A) (A) (A) (A) (A) (A) (A) (A) (A) (A) (A) (A)
                 (A) (A) (A) (A) (A) (A) (A) (A) (A) (A) (A) (A)
                 (A) (A) (A) (A) (A) (A) (A) (A) (A) (A) (A) (A)
                 (A) (A) (A) (A) (A) (A) (A) (A) (A) (A) (A) (A)
                 (A) (A) (A) (A) (A) (A) (A) (A) (A) (A) (A) (A)
                 (A) (A) (A) (A) (A) (A) (A) (A) (A) (A) (A) (A)
                 (A) (A) (A) (A) (A) (A) (A) (A) (A) (A) (A) (A)
                 (A) (A) (A) (A) (A) (A) (A) (A) (A) (A) (A)
       Virtual   (A) (A) (A) (A) (A) (A) (A) (A) (A) (A) (A) (A)
                 (A) (A) (A) (A) (A) (A) (A) (A) (A) (A) (A) (A)
                 (A) (A) (A) (A) (A) (A) (A) (A) (A) (A) (A) (A)
                 (A) (A) (A) (A) (A) (A) (A) (A) (A) (A) (A) (A)
                 (A) (A) (A) (A) (A) (A) (A) (A) (A) (A) (A) (A)
                 (A) (A) (A) (A) (A) (A) (A) (A) (A) (A) (A) (A)
                 (A) (A) (A) (A) (A) (A) (A) (A) (A) (A) (A) (A)
                 (A) (A) (A) (A) (A) (A) (A) (A) (A) (A) (A) (A)
                 (A) (A) (A) (A) (A) (A) (A) (A) (A) (A) (A) (A)
                 (A) (A) (A) (A) (A) (A) (A) (A) (A) (A) (A) (A)
                 (A) (A) (A) (A) (A) (A) (A) (A) (A) (A) (A) (A)
                 (A) (A) (A) (A) (A) (A) (A) (A) (A) (A) (A) (A)
                 (A) (A) (A) (A) (A) (A) (A) (A) (A) (A) (A) (A)
                 (A) (A) (A) (A) (A) (A) (A) (A) (A) (A) (A) (A)
                 (A) (A) (A) (A) (A) (A) (A) (A) (A) (A) (A) (A)
                 (A) (A) (A) (A) (A) (A) (A) (A) (A) (A) (A) (A)
                 (A) (A) (A) (A) (A) (A) (A) (A) (A) (A) (A) (A)
                 (A) (A) (A) (A) (A) (A) (A) (A) (A) (A) (A) (A)
                 (A) (A) (A) (A) (A) (A) (A) (A) (A) (A) (A) (A)
                 (A) (A) (A) (A) (A) (A) (A) (A) (A) (A) (A) (A)
                 (A) (A) (A) (A) (A) (A) (A) (A) (A) (A) (A) (A)
                 (A) (A) (A) (A) (A) (A) (A) (A) (A) (A) (A) (A)
                 (A) (A) (A) (A) (A) (A) (A) (A) (A) (A) (A) (A)
                 (A) (A) (A) (A) (A) (A) (A) (A) (A) (A) (A) (A)
                 (A) (A) (A) (A) (A) (A) (A) (A) (A) (A) (A) (A)
                 (A) (A) (A) (A) (A) (A) (A) (A) (A) (A) (A) (A)
                 (A) (A) (A) (A) (A) (A) (A) (A) (A) (A) (A) (A)
                 (A) (A) (A) (A) (A) (A) (A) (A) (A) (A) (A) (A)
                 (A) (A) (A) (A) (A) (A) (A) (A) (A) (A) (A) (A)
                 (A) (A) (A) (A) (A) (A) (A) (A) (A) (A) (A) (A)
                 (A) (A) (A) (A) (A) (A) (A) (A) (A) (A) (A) (A)
                 (A) (A) (A) (A) (A) (A) (A) (A) (A) (A) (A) (A)
                 (A) (A) (A) (A) (A) (A) (A) (A) (A) (A) (A) (A)
                 (A) (A) (A) (A) (A) (A) (A) (A) (A) (A) (A) (A)
                 (A) (A) (A) (A) (A) (A) (A) (A) (A) (A) (A) (A)
                 (A) (A) (A) (A) (A) (A) (A) (A) (A) (A) (A) (A)
                 (A) (A) (A) (A) (A) (A) (A) (A) (A) (A) (A) (A)
                 (A) (A) (A) (A) (A) (A) (A) (A) (A) (A) (A) (A)
                 (A) (A) (A) (A) (A) (A) (A) (A) (A) (A) (A) (A)
                 (A) (A) (A) (A) (A) (A) (A) (A) (A) (A) (A) (A)
                 (A) (A) (A) (A) (A) (A)
 The electronic state is 1-A.
 Alpha  occ. eigenvalues --  -19.23904 -14.49544 -14.49264 -14.47308 -14.46274
 Alpha  occ. eigenvalues --  -14.45914 -14.45717 -14.45606 -10.41954 -10.41019
 Alpha  occ. eigenvalues --  -10.37578 -10.37322 -10.37081 -10.37006 -10.36613
 Alpha  occ. eigenvalues --  -10.36440 -10.35849 -10.35072 -10.34843 -10.34785
 Alpha  occ. eigenvalues --  -10.34603 -10.33555 -10.33428 -10.32607 -10.32532
 Alpha  occ. eigenvalues --  -10.32238 -10.32215 -10.32084 -10.31858 -10.31725
 Alpha  occ. eigenvalues --  -10.31662 -10.31658 -10.31502 -10.30430 -10.30271
 Alpha  occ. eigenvalues --  -10.29648 -10.29306  -1.14001  -1.11651  -1.04966
 Alpha  occ. eigenvalues --   -1.04253  -1.03893  -1.03262  -1.00340  -1.00161
 Alpha  occ. eigenvalues --   -0.96818  -0.94639  -0.91933  -0.89428  -0.88568
 Alpha  occ. eigenvalues --   -0.86863  -0.86545  -0.85711  -0.84448  -0.83840
 Alpha  occ. eigenvalues --   -0.82596  -0.79844  -0.78407  -0.77690  -0.75561
 Alpha  occ. eigenvalues --   -0.73305  -0.73262  -0.72407  -0.72125  -0.71332
 Alpha  occ. eigenvalues --   -0.71069  -0.69909  -0.68559  -0.66653  -0.64638
 Alpha  occ. eigenvalues --   -0.63172  -0.62565  -0.61656  -0.61182  -0.60181
 Alpha  occ. eigenvalues --   -0.59090  -0.58458  -0.58039  -0.57269  -0.56341
 Alpha  occ. eigenvalues --   -0.55982  -0.55231  -0.54926  -0.54722  -0.54262
 Alpha  occ. eigenvalues --   -0.53639  -0.53443  -0.52820  -0.52321  -0.52138
 Alpha  occ. eigenvalues --   -0.51796  -0.51652  -0.51215  -0.51049  -0.50634
 Alpha  occ. eigenvalues --   -0.50374  -0.49947  -0.49524  -0.49005  -0.48795
 Alpha  occ. eigenvalues --   -0.47866  -0.47528  -0.46872  -0.46756  -0.45998
 Alpha  occ. eigenvalues --   -0.45739  -0.45347  -0.44960  -0.44447  -0.44011
 Alpha  occ. eigenvalues --   -0.43632  -0.43074  -0.42646  -0.40886  -0.40274
 Alpha  occ. eigenvalues --   -0.40031  -0.38602  -0.37914  -0.37190  -0.36385
 Alpha  occ. eigenvalues --   -0.34886  -0.34672  -0.34428  -0.34150  -0.33792
 Alpha  occ. eigenvalues --   -0.33430  -0.32738  -0.31923  -0.29551  -0.27622
 Alpha  occ. eigenvalues --   -0.26908
 Alpha virt. eigenvalues --    0.02008   0.02289   0.03235   0.04554   0.04998
 Alpha virt. eigenvalues --    0.05168   0.06978   0.07309   0.08846   0.09349
 Alpha virt. eigenvalues --    0.10790   0.12884   0.13718   0.15103   0.15972
 Alpha virt. eigenvalues --    0.17007   0.17688   0.18348   0.18559   0.19013
 Alpha virt. eigenvalues --    0.19323   0.19519   0.20616   0.20860   0.21417
 Alpha virt. eigenvalues --    0.21720   0.22679   0.22921   0.23089   0.23435
 Alpha virt. eigenvalues --    0.23680   0.23945   0.24167   0.24471   0.24605
 Alpha virt. eigenvalues --    0.24730   0.25254   0.25433   0.26104   0.26257
 Alpha virt. eigenvalues --    0.26648   0.27301   0.27546   0.28003   0.28186
 Alpha virt. eigenvalues --    0.28574   0.28774   0.30049   0.30354   0.30821
 Alpha virt. eigenvalues --    0.31424   0.31742   0.31969   0.32309   0.32994
 Alpha virt. eigenvalues --    0.33340   0.34180   0.35433   0.35604   0.36241
 Alpha virt. eigenvalues --    0.37385   0.37571   0.38648   0.39098   0.39456
 Alpha virt. eigenvalues --    0.39866   0.40489   0.40702   0.41345   0.41540
 Alpha virt. eigenvalues --    0.41890   0.43352   0.44242   0.45071   0.46295
 Alpha virt. eigenvalues --    0.48157   0.48578   0.49618   0.51783   0.52787
 Alpha virt. eigenvalues --    0.54922   0.55216   0.56391   0.57618   0.57837
 Alpha virt. eigenvalues --    0.58170   0.58451   0.58707   0.59274   0.59874
 Alpha virt. eigenvalues --    0.60082   0.60735   0.60806   0.61289   0.61937
 Alpha virt. eigenvalues --    0.62143   0.62697   0.62999   0.63174   0.63552
 Alpha virt. eigenvalues --    0.63905   0.64155   0.64623   0.64986   0.65005
 Alpha virt. eigenvalues --    0.65092   0.65346   0.65765   0.65979   0.66138
 Alpha virt. eigenvalues --    0.66553   0.66706   0.67087   0.67507   0.67969
 Alpha virt. eigenvalues --    0.68489   0.68698   0.68950   0.69379   0.69819
 Alpha virt. eigenvalues --    0.70406   0.70497   0.71115   0.71444   0.71736
 Alpha virt. eigenvalues --    0.71852   0.72146   0.72555   0.73263   0.73358
 Alpha virt. eigenvalues --    0.74035   0.74638   0.75034   0.75353   0.76936
 Alpha virt. eigenvalues --    0.77112   0.77572   0.78010   0.79409   0.79652
 Alpha virt. eigenvalues --    0.80071   0.80508   0.81139   0.82093   0.82705
 Alpha virt. eigenvalues --    0.83087   0.83159   0.83804   0.84538   0.84571
 Alpha virt. eigenvalues --    0.85549   0.86586   0.86822   0.87051   0.87583
 Alpha virt. eigenvalues --    0.88445   0.89180   0.89401   0.89927   0.90062
 Alpha virt. eigenvalues --    0.90385   0.90956   0.91281   0.91488   0.91823
 Alpha virt. eigenvalues --    0.92251   0.92517   0.92745   0.93228   0.93466
 Alpha virt. eigenvalues --    0.93591   0.94073   0.94226   0.94422   0.95061
 Alpha virt. eigenvalues --    0.95607   0.95681   0.96127   0.96436   0.96981
 Alpha virt. eigenvalues --    0.97147   0.98102   0.98439   0.99228   0.99666
 Alpha virt. eigenvalues --    1.00038   1.00247   1.00655   1.01420   1.02180
 Alpha virt. eigenvalues --    1.02524   1.03117   1.03498   1.03614   1.04487
 Alpha virt. eigenvalues --    1.05425   1.06408   1.07173   1.07389   1.07446
[...]
                 (A) (A) (A) (A) (A) (A) (A) (A) (A) (A) (A) (A)
                 (A) (A) (A) (A) (A) (A) (A) (A) (A) (A) (A) (A)
                 (A) (A) (A) (A) (A) (A) (A) (A) (A) (A) (A) (A)
                 (A) (A) (A) (A) (A) (A) (A) (A) (A) (A) (A) (A)
                 (A) (A) (A) (A) (A) (A) (A) (A) (A) (A) (A) (A)
                 (A) (A) (A) (A) (A) (A) (A) (A) (A) (A) (A) (A)
                 (A) (A) (A) (A) (A) (A) (A) (A) (A) (A) (A) (A)
                 (A) (A) (A) (A) (A) (A) (A) (A) (A) (A) (A) (A)
                 (A) (A) (A) (A) (A) (A) (A) (A) (A) (A) (A) (A)
                 (A) (A) (A) (A) (A) (A) (A) (A) (A) (A) (A) (A)
                 (A) (A) (A) (A) (A) (A) (A) (A) (A) (A) (A) (A)
                 (A) (A) (A) (A) (A) (A) (A) (A) (A) (A) (A) (A)
                 (A) (A) (A) (A) (A) (A) (A) (A) (A) (A) (A) (A)
                 (A) (A) (A) (A) (A) (A) (A) (A) (A) (A) (A) (A)
                 (A) (A) (A) (A) (A) (A) (A) (A) (A) (A) (A) (A)
                 (A) (A) (A) (A) (A) (A) (A) (A) (A) (A) (A) (A)
                 (A) (A) (A) (A) (A) (A) (A) (A) (A) (A) (A) (A)
                 (A) (A) (A) (A) (A) (A) (A) (A) (A) (A) (A) (A)
                 (A) (A) (A) (A) (A) (A) (A) (A) (A) (A) (A) (A)
                 (A) (A) (A) (A) (A) (A) (A) (A) (A) (A) (A) (A)
                 (A) (A) (A) (A) (A) (A) (A) (A) (A) (A) (A) (A)
                 (A) (A) (A) (A) (A) (A) (A) (A) (A) (A) (A) (A)
                 (A) (A) (A) (A) (A) (A) (A) (A) (A) (A) (A) (A)
                 (A) (A) (A) (A) (A) (A) (A) (A) (A) (A) (A) (A)
                 (A) (A) (A) (A) (A) (A) (A) (A) (A) (A) (A) (A)
                 (A) (A) (A) (A) (A) (A) (A) (A) (A) (A) (A) (A)
                 (A) (A) (A) (A) (A) (A) (A) (A) (A) (A) (A) (A)
                 (A) (A) (A) (A) (A) (A) (A) (A) (A) (A) (A) (A)
                 (A) (A) (A) (A) (A) (A) (A) (A) (A) (A) (A) (A)
                 (A) (A) (A) (A) (A) (A) (A) (A) (A) (A) (A) (A)
                 (A) (A) (A) (A) (A) (A) (A) (A) (A) (A) (A) (A)
                 (A) (A) (A) (A) (A) (A) (A) (A) (A) (A) (A) (A)
                 (A) (A) (A) (A) (A) (A) (A) (A) (A) (A) (A) (A)
                 (A) (A) (A) (A) (A) (A)
 The electronic state is 1-A.
 Alpha  occ. eigenvalues --  -19.24089 -14.49150 -14.49017 -14.45638 -14.45495
 Alpha  occ. eigenvalues --  -14.45254 -14.44752 -14.44486 -10.41410 -10.40878
 Alpha  occ. eigenvalues --  -10.36990 -10.35812 -10.34772 -10.34358 -10.34178
 Alpha  occ. eigenvalues --  -10.33795 -10.33270 -10.32415 -10.32329 -10.32275
 Alpha  occ. eigenvalues --  -10.32159 -10.32061 -10.32003 -10.31811 -10.31773
 Alpha  occ. eigenvalues --  -10.31762 -10.31723 -10.31418 -10.31321 -10.31205
 Alpha  occ. eigenvalues --  -10.31199 -10.30807 -10.30492 -10.30094 -10.29696
 Alpha  occ. eigenvalues --  -10.29148 -10.28553  -1.14248  -1.11908  -1.05088
 Alpha  occ. eigenvalues --   -1.04928  -1.04514  -1.03924  -1.00692  -1.00240
 Alpha  occ. eigenvalues --   -0.97149  -0.94799  -0.91759  -0.89379  -0.88646
 Alpha  occ. eigenvalues --   -0.86819  -0.86443  -0.86243  -0.85685  -0.83680
 Alpha  occ. eigenvalues --   -0.82874  -0.80131  -0.78570  -0.77406  -0.76021
 Alpha  occ. eigenvalues --   -0.74344  -0.73636  -0.72815  -0.71793  -0.71617
 Alpha  occ. eigenvalues --   -0.71220  -0.69819  -0.68525  -0.66744  -0.64958
 Alpha  occ. eigenvalues --   -0.64627  -0.63170  -0.62535  -0.61081  -0.60116
 Alpha  occ. eigenvalues --   -0.58973  -0.58182  -0.57565  -0.56650  -0.56349
 Alpha  occ. eigenvalues --   -0.55926  -0.55793  -0.55164  -0.54888  -0.54641
 Alpha  occ. eigenvalues --   -0.54423  -0.54138  -0.53874  -0.53287  -0.52595
 Alpha  occ. eigenvalues --   -0.51884  -0.51660  -0.51425  -0.50999  -0.50800
 Alpha  occ. eigenvalues --   -0.50409  -0.50019  -0.49366  -0.49204  -0.48843
 Alpha  occ. eigenvalues --   -0.47703  -0.47540  -0.47287  -0.47125  -0.46416
 Alpha  occ. eigenvalues --   -0.46063  -0.45850  -0.45151  -0.44692  -0.44090
 Alpha  occ. eigenvalues --   -0.43558  -0.43276  -0.42949  -0.42536  -0.41957
 Alpha  occ. eigenvalues --   -0.41847  -0.41095  -0.39714  -0.38105  -0.36396
 Alpha  occ. eigenvalues --   -0.35067  -0.34335  -0.34262  -0.34043  -0.33635
 Alpha  occ. eigenvalues --   -0.32954  -0.32672  -0.31975  -0.29393  -0.27113
 Alpha  occ. eigenvalues --   -0.26187
 Alpha virt. eigenvalues --    0.00536   0.02564   0.04139   0.04952   0.05308
 Alpha virt. eigenvalues --    0.07730   0.08196   0.10644   0.13795   0.14270
 Alpha virt. eigenvalues --    0.15592   0.15749   0.16868   0.17975   0.18382
 Alpha virt. eigenvalues --    0.18877   0.19181   0.19524   0.20059   0.20844
 Alpha virt. eigenvalues --    0.21467   0.21575   0.21968   0.22531   0.22992
 Alpha virt. eigenvalues --    0.23184   0.23427   0.23702   0.24385   0.24643
 Alpha virt. eigenvalues --    0.24893   0.25087   0.25290   0.26028   0.26593
 Alpha virt. eigenvalues --    0.26861   0.27309   0.27647   0.27896   0.28158
 Alpha virt. eigenvalues --    0.28384   0.28799   0.29514   0.29715   0.30038
 Alpha virt. eigenvalues --    0.30514   0.30853   0.31314   0.32108   0.32254
 Alpha virt. eigenvalues --    0.32388   0.32905   0.33396   0.33628   0.34010
 Alpha virt. eigenvalues --    0.34504   0.35643   0.36713   0.37018   0.37382
 Alpha virt. eigenvalues --    0.37905   0.38864   0.39722   0.39943   0.40340
 Alpha virt. eigenvalues --    0.40554   0.41069   0.41793   0.42030   0.42313
 Alpha virt. eigenvalues --    0.43168   0.45315   0.45521   0.46757   0.47145
 Alpha virt. eigenvalues --    0.48659   0.49986   0.51261   0.52807   0.53948
 Alpha virt. eigenvalues --    0.55946   0.56368   0.56870   0.57338   0.57686
 Alpha virt. eigenvalues --    0.58871   0.59230   0.59809   0.59936   0.60487
 Alpha virt. eigenvalues --    0.60824   0.61202   0.61359   0.61708   0.62578
 Alpha virt. eigenvalues --    0.62798   0.62938   0.63455   0.63829   0.64266
 Alpha virt. eigenvalues --    0.64676   0.64825   0.65128   0.65685   0.65949
 Alpha virt. eigenvalues --    0.66256   0.66536   0.66695   0.67034   0.67443
 Alpha virt. eigenvalues --    0.67626   0.68099   0.68525   0.69045   0.69205
 Alpha virt. eigenvalues --    0.69504   0.69928   0.70538   0.70617   0.71042
 Alpha virt. eigenvalues --    0.71161   0.71812   0.72347   0.72473   0.72882
 Alpha virt. eigenvalues --    0.73459   0.73623   0.73730   0.74544   0.74819
 Alpha virt. eigenvalues --    0.75377   0.76011   0.76528   0.77862   0.78288
 Alpha virt. eigenvalues --    0.78620   0.78792   0.79900   0.80407   0.80997
 Alpha virt. eigenvalues --    0.81996   0.82241   0.82834   0.83458   0.84024
 Alpha virt. eigenvalues --    0.84705   0.85226   0.86426   0.87065   0.88109
 Alpha virt. eigenvalues --    0.88670   0.89498   0.89702   0.90027   0.90201
 Alpha virt. eigenvalues --    0.90292   0.90866   0.91321   0.91742   0.92073
 Alpha virt. eigenvalues --    0.92532   0.92931   0.93180   0.93744   0.93813
 Alpha virt. eigenvalues --    0.93981   0.94223   0.94560   0.94790   0.95237
 Alpha virt. eigenvalues --    0.95463   0.96043   0.96719   0.96945   0.97251
 Alpha virt. eigenvalues --    0.97756   0.98264   0.98294   0.98737   0.99699
 Alpha virt. eigenvalues --    1.00547   1.00807   1.01167   1.01609   1.01763
 Alpha virt. eigenvalues --    1.02186   1.02932   1.03406   1.03937   1.04242
 Alpha virt. eigenvalues --    1.05163   1.05381   1.06038   1.06390   1.06643
 Alpha virt. eigenvalues --    1.07506   1.08231   1.08413   1.08617   1.08973
 Alpha virt. eigenvalues --    1.09534   1.10055   1.10434   1.11036   1.11396
 Alpha virt. eigenvalues --    1.12606   1.13490   1.13947   1.14482   1.15460
 Alpha virt. eigenvalues --    1.16337   1.16572   1.17773   1.18177   1.19121
 Alpha virt. eigenvalues --    1.19739   1.20782   1.22130   1.23196   1.23453
 Alpha virt. eigenvalues --    1.24552   1.24862   1.25410   1.26920   1.27354
 Alpha virt. eigenvalues --    1.28080   1.29002   1.29518   1.29868   1.31003
 Alpha virt. eigenvalues --    1.31413   1.32478   1.32896   1.33949   1.35590
 Alpha virt. eigenvalues --    1.35695   1.36500   1.36679   1.37478   1.38070
 Alpha virt. eigenvalues --    1.39643   1.40866   1.41630   1.43156   1.44258
 Alpha virt. eigenvalues --    1.46620   1.47247   1.47386   1.47739   1.48250
 Alpha virt. eigenvalues --    1.48928   1.49172   1.50190   1.50564   1.50632
 Alpha virt. eigenvalues --    1.51827   1.52616   1.53307   1.54479   1.54740
 Alpha virt. eigenvalues --    1.55187   1.55537   1.56045   1.56829   1.56981
 Alpha virt. eigenvalues --    1.57398   1.57739   1.58382   1.58463   1.58835
 Alpha virt. eigenvalues --    1.59765   1.60106   1.60599   1.60855   1.61893
 Alpha virt. eigenvalues --    1.63117   1.64401   1.65319   1.66093   1.66356
 Alpha virt. eigenvalues --    1.68758   1.69169   1.72116   1.74718   1.76754
 Alpha virt. eigenvalues --    1.79457   1.80714   1.81298   1.81652   1.82390
 Alpha virt. eigenvalues --    1.84745   1.84904   1.86453   1.87169   1.87678
 Alpha virt. eigenvalues --    1.88338   1.88853   1.89462   1.89934   1.90668
 Alpha virt. eigenvalues --    1.91466   1.92181   1.92649   1.92979   1.93958
 Alpha virt. eigenvalues --    1.94331   1.94893   1.96254   1.96689   1.97819
 Alpha virt. eigenvalues --    1.98330   1.98566   1.99083   1.99656   2.00185
 Alpha virt. eigenvalues --    2.00837   2.02288   2.02495   2.02648   2.04455
 Alpha virt. eigenvalues --    2.04692   2.05979   2.06194   2.07041   2.07411
 Alpha virt. eigenvalues --    2.07782   2.08453   2.08629   2.09896   2.10879
 Alpha virt. eigenvalues --    2.11590   2.11941   2.13040   2.14158   2.14545
 Alpha virt. eigenvalues --    2.15050   2.16733   2.16997   2.19644   2.19966
 Alpha virt. eigenvalues --    2.20667   2.20777   2.21676   2.21893   2.22215
 Alpha virt. eigenvalues --    2.22692   2.23582   2.23820   2.24869   2.25182
 Alpha virt. eigenvalues --    2.25336   2.25808   2.26227   2.26775   2.27148
 Alpha virt. eigenvalues --    2.28693   2.29066   2.30208   2.31656   2.33156
 Alpha virt. eigenvalues --    2.34292   2.34930   2.35081   2.36036   2.36504
 Alpha virt. eigenvalues --    2.37473   2.38040   2.38733   2.38973   2.39594
 Alpha virt. eigenvalues --    2.40563   2.41714   2.41800   2.42699   2.42976
 Alpha virt. eigenvalues --    2.43657   2.44466   2.44699   2.44949   2.45601
 Alpha virt. eigenvalues --    2.45902   2.46772   2.47873   2.48747   2.49716
 Alpha virt. eigenvalues --    2.49929   2.50557   2.51928   2.52883   2.55368
 Alpha virt. eigenvalues --    2.58360   2.59666   2.59934   2.62165   2.62648
 Alpha virt. eigenvalues --    2.64756   2.64976   2.65198   2.66219   2.67540
 Alpha virt. eigenvalues --    2.68476   2.69873   2.70901   2.72253   2.73107
 Alpha virt. eigenvalues --    2.74121   2.74330   2.74789   2.76498   2.76968
 Alpha virt. eigenvalues --    2.77408   2.78271   2.78523   2.79892   2.82023
 Alpha virt. eigenvalues --    2.82582   2.83110   2.83499   2.84368   2.84746
 Alpha virt. eigenvalues --    2.85671   2.86399   2.86840   2.87744   2.89075
 Alpha virt. eigenvalues --    2.90356   2.91180   2.91405   2.92990   2.94363
 Alpha virt. eigenvalues --    2.94807   2.95296   2.96982   3.00012   3.02842
 Alpha virt. eigenvalues --    3.04294   3.06834   3.08713   3.09832   3.11226
 Alpha virt. eigenvalues --    3.19059   3.26298   3.30263   3.38486   3.41452
 Alpha virt. eigenvalues --    3.45697   3.52554   3.56944   3.57329   4.12062
 Alpha virt. eigenvalues --    4.13980   4.16232   4.17411   4.18210   4.18858
 Alpha virt. eigenvalues --    4.19973   4.21327   4.21990   4.23869   4.24270
 Alpha virt. eigenvalues --    4.25827   4.26428   4.27560   4.31064   4.31939
 Alpha virt. eigenvalues --    4.33234   4.33395   4.35509   4.40030   4.40531
 Alpha virt. eigenvalues --    4.41938   4.44511   4.45494   4.48733   4.49509
 Alpha virt. eigenvalues --    4.50477   4.52279   4.56613   4.59641   4.62603
 Alpha virt. eigenvalues --    4.63927   4.66711   4.68308   4.79665   4.84024
 Alpha virt. eigenvalues --    4.89224
          Condensed to atoms (all electrons):
 Mulliken atomic charges:
              1
     1  C   -0.194951
     2  C   -0.155722
     3  C    0.040392
     4  C   -0.013277
     5  N   -0.423387
     6  C    0.014929
     7  C    0.286058
     8  C   -0.251852
     9  C    0.048520
    10  N   -0.497100
    11  C    0.713269
    12  N   -0.566522
    13  N   -0.806677
    14  C    0.298500
    15  C    0.117520
    16  C   -0.239662
    17  C   -0.190039
    18  C    0.353523
    19  C   -0.272328
    20  N   -0.760392
    21  C    0.589929
    22  C    0.015715
    23  C   -0.211581
    24  C   -0.218108
    25  C    0.154723
    26  C   -0.222990
    27  C   -0.177683
    28  C   -0.264407
    29  N   -0.380973
    30  C   -0.184920
    31  C   -0.181224
    32  N   -0.395907
    33  C   -0.355907
    34  C   -0.183099
    35  C   -0.188875
    36  O   -0.510948
    37  C   -0.608926
    38  H    0.212573
    39  H    0.199640
    40  H    0.174223
    41  H    0.169145
    42  H    0.186398
    43  H    0.188603
    44  H    0.369499
    45  H    0.161345
    46  H    0.213293
    47  H    0.199526
    48  H    0.357514
    49  H    0.179600
    50  H    0.167823
    51  H    0.167897
    52  H    0.201576
    53  H    0.172887
    54  H    0.172661
    55  H    0.156836
    56  H    0.163383
    57  H    0.155232
    58  H    0.161742
    59  H    0.144100
    60  H    0.168514
    61  H    0.173495
    62  H    0.158527
    63  H    0.171174
    64  H    0.163477
    65  H    0.159041
    66  H    0.184925
    67  H    0.179370
    68  H    0.190362
 Sum of Mulliken atomic charges =   0.00000
 Mulliken charges with hydrogens summed into heavy atoms:
              1
     1  C    0.017622
     2  C    0.043918
     3  C    0.040392
     4  C    0.160945
     5  N   -0.423387
     6  C    0.184074
     7  C    0.286058
     8  C   -0.065454
     9  C    0.237122
    10  N   -0.497100
    11  C    0.713269
    12  N   -0.566522
    13  N   -0.437178
    14  C    0.298500
    15  C    0.117520
    16  C   -0.078317
    17  C    0.023254
    18  C    0.353523
    19  C   -0.072802
    20  N   -0.402878
    21  C    0.589929
    22  C    0.015715
    23  C   -0.031981
    24  C   -0.050285
    25  C    0.154723
    26  C   -0.055094
    27  C    0.023893
    28  C    0.081142
    29  N   -0.380973
    30  C    0.135298
    31  C    0.135750
    32  N   -0.395907
    33  C    0.130203
    34  C    0.146602
    35  C    0.133642
    36  O   -0.510948
    37  C   -0.054269
 Sum of Mulliken charges with hydrogens summed into heavy atoms =   0.00000
 Electronic spatial extent (au):  <R**2>=          21776.5457
 Charge=              0.0000 electrons
 Dipole moment (field-independent basis, Debye):
    X=             -0.9190    Y=              2.1811    Z=              0.0463  Tot=              2.3673
 Quadrupole moment (field-independent basis, Debye-Ang):
   XX=           -188.4985   YY=           -231.2263   ZZ=           -212.7083
   XY=              2.9885   XZ=             -1.9331   YZ=              1.0379
 Traceless Quadrupole moment (field-independent basis, Debye-Ang):
   XX=             22.3125   YY=            -20.4153   ZZ=             -1.8972
   XY=              2.9885   XZ=             -1.9331   YZ=              1.0379
 Octapole moment (field-independent basis, Debye-Ang**2):
  XXX=             61.0390  YYY=             54.5367  ZZZ=              1.5229  XYY=             60.0768
  XXY=            -12.8648  XXZ=             33.0208  XZZ=            -38.2074  YZZ=             -3.6585
  YYZ=             18.6774  XYZ=             -7.3154
 Hexadecapole moment (field-independent basis, Debye-Ang**3):
 XXXX=         -18876.1166 YYYY=          -9892.2749 ZZZZ=           -957.7444 XXXY=           -157.4574
 XXXZ=            -60.9377 YYYX=            177.0446 YYYZ=             13.0576 ZZZX=            -10.8245
 ZZZY=              1.7245 XXYY=          -4185.3830 XXZZ=          -3321.9898 YYZZ=          -1771.2797
 XXYZ=            -94.7292 YYXZ=            -68.2859 ZZXY=             -0.0128
 N-N= 3.866359036017D+03 E-N=-1.140375383272D+04  KE= 1.567154212460D+03
 No NMR shielding tensors so no spin-rotation constants.
 Leave Link  601 at Wed Mar 25 14:53:09 2020, MaxMem= 2684354560 cpu:       3.2
 (Enter /opt/g09gh/gaussian/g09/l9999.exe)
 1\1\GINC-NODE46\FOpt\RwB97XD\6-31G(d)\C29H31N7O1\BDW2292\25-Mar-2020\0
 \\#P opt=(,maxcycle=400) wB97XD/6-31G* MaxDisk=100GB\\MOLECULE0 Rotata
 ble Bond Optimization on node37.bme.utexas.edu\\0,1\C,-0.197463949,4.9
 662062051,-0.0930856048\C,1.0021536265,4.4196477107,0.3400344385\C,1.8
 599403803,3.834538681,-0.5961735785\C,1.4448050947,3.8135562079,-1.930
 3064317\N,0.2961469214,4.3312416656,-2.363721449\C,-0.4952685023,4.899
 8216178,-1.452429998\C,3.1532076565,3.244763746,-0.1754402405\C,4.2476
 891425,3.1393898085,-1.0308631894\C,5.3946218502,2.5594210977,-0.49614
 99723\N,5.4826956318,2.128818518,0.7544265477\C,4.3727692789,2.2915354
 522,1.5022917167\N,3.2197497701,2.8221534113,1.0928372372\N,4.50807199
 89,1.8540851681,2.792330753\C,3.6135526654,1.8605251066,3.8739033671\C
 ,4.141188042,1.6080048917,5.1571490781\C,3.259186419,1.6081040976,6.23
 20931774\C,1.8951735393,1.8493297981,6.0971898009\C,1.3954290897,2.091
 5932169,4.8203728928\C,2.2491181084,2.0868494616,3.7158794467\N,0.0361
 200449,2.3390342888,4.5444937269\C,-0.9676934484,2.6656926788,5.419950
 9151\C,-2.2792027541,2.9592288646,4.7478173837\C,-2.7030711365,2.30541
 71327,3.5877562297\C,-3.9111275471,2.6491202315,2.993994915\C,-4.70880
 88966,3.6641271214,3.524954873\C,-4.3012164804,4.2743988337,4.71333306
 37\C,-3.104674926,3.9236309503,5.3251042415\C,-5.9635760664,4.13173958
 5,2.8044413867\N,-5.8001714199,5.1280763963,1.7578683233\C,-5.30026041
 18,4.6889986015,0.4611895224\C,-3.7791665369,4.8305580824,0.2891155402
 \N,-3.2810748707,6.1627911342,0.6314345519\C,-3.5807409551,7.175097688
 8,-0.3692226803\C,-3.7276775101,6.5228691426,1.9786079183\C,-5.2524971
 274,6.4192677398,2.1545214173\O,-0.8291984641,2.7508985988,6.628593173
 7\C,5.612542025,1.3526374223,5.3641300244\H,-0.9047147227,5.4449874135
 ,0.5796260961\H,1.2961044962,4.4488763499,1.3849655836\H,2.059911594,3
 .3324956579,-2.6884944314\H,-1.4218733066,5.3285090431,-1.8279071759\H
 ,4.228327725,3.5079324082,-2.0485738531\H,6.2891324392,2.4425472224,-1
 .1047108325\H,5.4392268284,1.5107156257,2.974125363\H,3.6548919847,1.4
 175228275,7.2264253239\H,1.2399546207,1.8634035666,6.9561649184\H,1.86
 2222402,2.278802731,2.7242307278\H,-0.1778869613,2.4586951,3.565272400
 7\H,-2.1097119711,1.5008225142,3.1608010525\H,-4.2362786946,2.12541466
 57,2.09784934\H,-4.9266480656,5.04323768,5.1612862764\H,-2.7889095906,
 4.3931349911,6.2511275125\H,-6.4661201112,3.2681001858,2.3533146039\H,
 -6.6576974338,4.547241102,3.5464554708\H,-5.6011306411,3.6482306339,0.
 2973025642\H,-5.8032082687,5.2869644542,-0.3135053945\H,-3.4987636886,
 4.6013755428,-0.7457446619\H,-3.2608119388,4.1126964029,0.9346270204\H
 ,-4.6530984748,7.3773424647,-0.5283785905\H,-3.1570193385,6.8670312041
 ,-1.3309202741\H,-3.1020250391,8.1163480363,-0.0797012513\H,-3.3910097
 14,7.5428668284,2.198488454\H,-3.228044955,5.8497093364,2.6848317532\H
 ,-5.7396673166,7.1974870843,1.5487447195\H,-5.5239069921,6.6175935963,
 3.1971462663\H,6.2289997686,2.1829595988,4.9966947635\H,5.9502592333,0
 .4379880405,4.8574148199\H,5.8341238497,1.2276943363,6.4270219162\\Ver
 sion=EM64L-G09RevA.02\State=1-A\HF=-1581.7673805\RMSD=6.567e-09\RMSF=2
 .888e-06\Dipole=-0.1908423,0.3666121,-0.8346438\Quadrupole=14.2746142,
 0.2209087,-14.4955229,-6.5361011,0.9434742,3.2861701\PG=C01 [X(C29H31N
 7O1)]\\@


 Luck is a matter of preparation meeting opportunity.
                                    -- Oprah Winfrey
 Job cpu time:  0 days 11 hours 28 minutes 43.6 seconds.
 File lengths (MBytes):  RWF=    244 Int=      0 D2E=      0 Chk=     25 Scr=      1
 Normal termination of Gaussian 09 at Wed Mar 25 14:53:10 2020.
