
    -----------------------------------------------------------------------
          Psi4: An Open-Source Ab Initio Electronic Structure Package
                               Psi4 1.3.2 release

                         Git: Rev {HEAD} ecbda83 


    R. M. Parrish, L. A. Burns, D. G. A. Smith, A. C. Simmonett,
    A. E. DePrince III, E. G. Hohenstein, U. Bozkaya, A. Yu. Sokolov,
    R. Di Remigio, R. M. Richard, J. F. Gonthier, A. M. James,
    H. R. McAlexander, A. Kumar, M. Saitow, X. Wang, B. P. Pritchard,
    P. Verma, H. F. Schaefer III, K. Patkowski, R. A. King, E. F. Valeev,
    F. A. Evangelista, J. M. Turney, T. D. Crawford, and C. D. Sherrill,
    J. Chem. Theory Comput. 13(7) pp 3185--3197 (2017).
    (doi: 10.1021/acs.jctc.7b00174)


                         Additional Contributions by
    P. Kraus, H. Kruse, M. H. Lechner, M. C. Schieber, R. A. Shaw,
    A. Alenaizan, R. Galvelis, Z. L. Glick, S. Lehtola, and J. P. Misiewicz

    -----------------------------------------------------------------------


    Psi4 started on: Tuesday, 14 April 2020 12:45PM

    Process ID: 4874
    Host:       node101.bme.utexas.edu
    PSIDATADIR: /home/bdw2292/miniconda3/envs/p4env/share/psi4
    Memory:     500.0 MiB
    Threads:    1
    
  ==> Input File <==

--------------------------------------------------------------------------
molecule { 
0 1
 C    0.044682    4.593799   -1.580505
 C    1.365127    4.478787   -1.124901
 C    1.935553    3.204482   -0.938818
 C    1.107516    2.103446   -1.269616
 N   -0.153813    2.192636   -1.711516
 C   -0.671012    3.422779   -1.854987
 C    3.340504    2.977813   -0.439098
 C    4.314993    3.974590   -0.267937
 C    5.570388    3.532330    0.167378
 N    5.869702    2.261960    0.431317
 C    4.868238    1.375242    0.261936
 N    3.643182    1.698101   -0.155898
 N    5.180194    0.058270    0.554720
 C    4.445079   -1.177560    0.443720
 C    5.142201   -2.422976    0.486120
 C    4.379591   -3.594067    0.335933
 C    2.991500   -3.607132    0.153332
 C    2.314352   -2.383635    0.152879
 C    3.052534   -1.198951    0.297069
 N    0.905101   -2.204530   -0.014261
 C   -0.098886   -3.081917   -0.353179
 C   -1.440261   -2.465094   -0.704147
 C   -1.570733   -1.242747   -1.385669
 C   -2.832552   -0.686437   -1.604270
 C   -4.006737   -1.335562   -1.177382
 C   -3.862931   -2.591318   -0.555513
 C   -2.604771   -3.156272   -0.332748
 C   -5.378867   -0.673931   -1.326886
 N   -5.833905    0.296357   -0.312303
 C   -4.895361    1.336981    0.167897
 C   -4.097911    0.938838    1.438063
 N   -4.941925    0.470984    2.564799
 C   -5.537736    1.512222    3.409895
 C   -5.858487   -0.587313    2.073507
 C   -6.666801   -0.183434    0.813888
 O    0.053979   -4.293325   -0.359659
 C    6.648581   -2.527405    0.655391
 H   -0.419296    5.565951   -1.719231
 H    1.919591    5.387155   -0.901602
 H    1.489819    1.089741   -1.200760
 H   -1.698674    3.459235   -2.213826
 H    4.160903    5.025775   -0.477757
 H    6.402006    4.220706    0.315286
 H    6.152094   -0.004660    0.817755
 H    4.884380   -4.559127    0.349595
 H    2.441295   -4.530903    0.025107
 H    2.529836   -0.257474    0.308617
 H    0.603021   -1.243555    0.063675
 H   -0.683352   -0.707424   -1.715471
 H   -2.890850    0.286124   -2.092353
 H   -4.745952   -3.131135   -0.214556
 H   -2.505891   -4.120850    0.159177
 H   -5.416666   -0.151829   -2.293504
 H   -6.127170   -1.476985   -1.362104
 H   -4.241134    1.649112   -0.625951
 H   -5.716546    2.534144    0.520840
 H   -3.362599    1.969020    1.850368
 H   -3.219192   -0.096506    1.133357
 H   -6.260784    2.110367    2.843938
 H   -4.757461    2.175836    3.799720
 H   -6.048069    1.057525    4.266651
 H   -6.623889   -0.920816    2.990339
 H   -5.066498   -1.701387    1.767949
 H   -7.566682    0.887087    1.177576
 H   -7.461342   -1.247116    0.402836
 H    7.001032   -2.083003    1.597128
 H    7.171547   -2.016518   -0.158060
 H    7.002422   -3.561698    0.653569
}
memory 20GB
set_num_threads(6)
psi4_io.set_default_path("/scratch/bdw2292")
set freeze_core True
E, wfn = energy('mp2/6-311++G**',return_wfn=True)
oeprop(wfn,"WIBERG_LOWDIN_INDICES")
clean()
--------------------------------------------------------------------------

  Memory set to  18.626 GiB by Python driver.
  Threads set to 6 by Python driver.
    SCF Algorithm Type (re)set to DF.

*** tstart() called on node101.bme.utexas.edu
*** at Tue Apr 14 12:45:21 2020

   => Loading Basis Set <=

    Name: 6-311++G**
    Role: ORBITAL
    Keyword: BASIS
    atoms 1-4, 6-9, 11, 14-19, 21-28, 30-31, 33-35, 37 entry C          line   119 file /home/bdw2292/miniconda3/envs/p4env/share/psi4/basis/6-311ppgss.gbs 
    atoms 5, 10, 12-13, 20, 29, 32                     entry N          line   140 file /home/bdw2292/miniconda3/envs/p4env/share/psi4/basis/6-311ppgss.gbs 
    atoms 36                                           entry O          line   161 file /home/bdw2292/miniconda3/envs/p4env/share/psi4/basis/6-311ppgss.gbs 
    atoms 38-68                                        entry H          line    42 file /home/bdw2292/miniconda3/envs/p4env/share/psi4/basis/6-311ppgss.gbs 


         ---------------------------------------------------------
                                   SCF
               by Justin Turney, Rob Parrish, Andy Simmonett
                          and Daniel G. A. Smith
                              RHF Reference
                        6 Threads,  19073 MiB Core
         ---------------------------------------------------------

  ==> Geometry <==

    Molecular point group: c1
    Full point group: C1

    Geometry (in Angstrom), charge = 0, multiplicity = 1:

       Center              X                  Y                   Z               Mass       
    ------------   -----------------  -----------------  -----------------  -----------------
         C           -0.070669183036     4.573011622671    -1.529194806509    12.000000000000
         C            1.249775816964     4.457999622671    -1.073590806509    12.000000000000
         C            1.820201816964     3.183694622671    -0.887507806509    12.000000000000
         C            0.992164816964     2.082658622671    -1.218305806509    12.000000000000
         N           -0.269164183036     2.171848622671    -1.660205806509    14.003074004430
         C           -0.786363183036     3.401991622671    -1.803676806509    12.000000000000
         C            3.225152816964     2.957025622671    -0.387787806509    12.000000000000
         C            4.199641816964     3.953802622671    -0.216626806509    12.000000000000
         C            5.455036816964     3.511542622671     0.218688193491    12.000000000000
         N            5.754350816964     2.241172622671     0.482627193491    14.003074004430
         C            4.752886816964     1.354454622671     0.313246193491    12.000000000000
         N            3.527830816964     1.677313622671    -0.104587806509    14.003074004430
         N            5.064842816964     0.037482622671     0.606030193491    14.003074004430
         C            4.329727816964    -1.198347377329     0.495030193491    12.000000000000
         C            5.026849816964    -2.443763377329     0.537430193491    12.000000000000
         C            4.264239816964    -3.614854377329     0.387243193491    12.000000000000
         C            2.876148816964    -3.627919377329     0.204642193491    12.000000000000
         C            2.199000816964    -2.404422377329     0.204189193491    12.000000000000
         C            2.937182816964    -1.219738377329     0.348379193491    12.000000000000
         N            0.789749816964    -2.225317377329     0.037049193491    14.003074004430
         C           -0.214237183036    -3.102704377329    -0.301868806509    12.000000000000
         C           -1.555612183036    -2.485881377329    -0.652836806509    12.000000000000
         C           -1.686084183036    -1.263534377329    -1.334358806509    12.000000000000
         C           -2.947903183036    -0.707224377329    -1.552959806509    12.000000000000
         C           -4.122088183036    -1.356349377329    -1.126071806509    12.000000000000
         C           -3.978282183036    -2.612105377329    -0.504202806509    12.000000000000
         C           -2.720122183036    -3.177059377329    -0.281437806509    12.000000000000
         C           -5.494218183036    -0.694718377329    -1.275575806509    12.000000000000
         N           -5.949256183036     0.275569622671    -0.260992806509    14.003074004430
         C           -5.010712183036     1.316193622671     0.219207193491    12.000000000000
         C           -4.213262183036     0.918050622671     1.489373193491    12.000000000000
         N           -5.057276183036     0.450196622671     2.616109193491    14.003074004430
         C           -5.653087183036     1.491434622671     3.461205193491    12.000000000000
         C           -5.973838183036    -0.608100377329     2.124817193491    12.000000000000
         C           -6.782152183036    -0.204221377329     0.865198193491    12.000000000000
         O           -0.061372183036    -4.314112377329    -0.308348806509    15.994914619570
         C            6.533229816964    -2.548192377329     0.706701193491    12.000000000000
         H           -0.534647183036     5.545163622671    -1.667920806509     1.007825032230
         H            1.804239816964     5.366367622671    -0.850291806509     1.007825032230
         H            1.374467816964     1.068953622671    -1.149449806509     1.007825032230
         H           -1.814025183036     3.438447622671    -2.162515806509     1.007825032230
         H            4.045551816964     5.004987622671    -0.426446806509     1.007825032230
         H            6.286654816964     4.199918622671     0.366596193491     1.007825032230
         H            6.036742816964    -0.025447377329     0.869065193491     1.007825032230
         H            4.769028816964    -4.579914377329     0.400905193491     1.007825032230
         H            2.325943816964    -4.551690377329     0.076417193491     1.007825032230
         H            2.414484816964    -0.278261377329     0.359927193491     1.007825032230
         H            0.487669816964    -1.264342377329     0.114985193491     1.007825032230
         H           -0.798703183036    -0.728211377329    -1.664160806509     1.007825032230
         H           -3.006201183036     0.265336622671    -2.041042806509     1.007825032230
         H           -4.861303183036    -3.151922377329    -0.163245806509     1.007825032230
         H           -2.621242183036    -4.141637377329     0.210487193491     1.007825032230
         H           -5.532017183036    -0.172616377329    -2.242193806509     1.007825032230
         H           -6.242521183036    -1.497772377329    -1.310793806509     1.007825032230
         H           -4.356485183036     1.628324622671    -0.574640806509     1.007825032230
         H           -5.831897183036     2.513356622671     0.572150193491     1.007825032230
         H           -3.477950183036     1.948232622671     1.901678193491     1.007825032230
         H           -3.334543183036    -0.117293377329     1.184667193491     1.007825032230
         H           -6.376135183036     2.089579622671     2.895248193491     1.007825032230
         H           -4.872812183036     2.155048622671     3.851030193491     1.007825032230
         H           -6.163420183036     1.036737622671     4.317961193491     1.007825032230
         H           -6.739240183036    -0.941603377329     3.041649193491     1.007825032230
         H           -5.181849183036    -1.722174377329     1.819259193491     1.007825032230
         H           -7.682033183036     0.866299622671     1.228886193491     1.007825032230
         H           -7.576693183036    -1.267903377329     0.454146193491     1.007825032230
         H            6.885680816964    -2.103790377329     1.648438193491     1.007825032230
         H            7.056195816964    -2.037305377329    -0.106749806509     1.007825032230
         H            6.887070816964    -3.582485377329     0.704879193491     1.007825032230

  Running in c1 symmetry.

  Rotational constants: A =      0.00445  B =      0.00192  C =      0.00150 [cm^-1]
  Rotational constants: A =    133.42120  B =     57.55712  C =     44.99874 [MHz]
  Nuclear repulsion = 3763.573900805160974

  Charge       = 0
  Multiplicity = 1
  Electrons    = 262
  Nalpha       = 131
  Nbeta        = 131

  ==> Algorithm <==

  SCF Algorithm Type is DF.
  DIIS enabled.
  MOM disabled.
  Fractional occupation disabled.
  Guess Type is SAD.
  Energy threshold   = 1.00e-08
  Density threshold  = 1.00e-08
  Integral threshold = 0.00e+00

  ==> Primary Basis <==

  Basis Set: 6-311++G**
    Blend: 6-311++G**
    Number of shells: 525
    Number of basis function: 1031
    Number of Cartesian functions: 1068
    Spherical Harmonics?: true
    Max angular momentum: 2

   => Loading Basis Set <=

    Name: (6-311++G** AUX)
    Role: JKFIT
    Keyword: DF_BASIS_SCF
    atoms 1-4, 6-9, 11, 14-19, 21-28, 30-31, 33-35, 37 entry C          line   162 file /home/bdw2292/miniconda3/envs/p4env/share/psi4/basis/aug-cc-pvtz-jkfit.gbs 
    atoms 5, 10, 12-13, 20, 29, 32                     entry N          line   224 file /home/bdw2292/miniconda3/envs/p4env/share/psi4/basis/aug-cc-pvtz-jkfit.gbs 
    atoms 36                                           entry O          line   286 file /home/bdw2292/miniconda3/envs/p4env/share/psi4/basis/aug-cc-pvtz-jkfit.gbs 
    atoms 38-68                                        entry H          line    70 file /home/bdw2292/miniconda3/envs/p4env/share/psi4/basis/aug-cc-pvtz-jkfit.gbs 

  ==> Pre-Iterations <==

   -------------------------------------------------------
    Irrep   Nso     Nmo     Nalpha   Nbeta   Ndocc  Nsocc
   -------------------------------------------------------
     A       1031    1031       0       0       0       0
   -------------------------------------------------------
    Total    1031    1031     131     131     131       0
   -------------------------------------------------------

  ==> Integral Setup <==

  ==> DiskDFJK: Density-Fitted J/K Matrices <==

    J tasked:                  Yes
    K tasked:                  Yes
    wK tasked:                  No
    OpenMP threads:              6
    Integrals threads:           6
    Memory [MiB]:            14305
    Algorithm:                Disk
    Integral Cache:           NONE
    Schwarz Cutoff:          1E-12
    Fitting Condition:       1E-10

   => Auxiliary Basis Set <=

  Basis Set: (6-311++G** AUX)
    Blend: AUG-CC-PVTZ-JKFIT
    Number of shells: 1544
    Number of basis function: 5274
    Number of Cartesian functions: 6552
    Spherical Harmonics?: true
    Max angular momentum: 4

  Minimum eigenvalue in the overlap matrix is 1.4611157620E-07.
  Using Symmetric Orthogonalization.

  SCF Guess: Superposition of Atomic Densities via on-the-fly atomic UHF.

  ==> Iterations <==

                           Total Energy        Delta E     RMS |[F,P]|

   @DF-RHF iter SAD: -1571.21565443169902   -1.57122e+03   0.00000e+00 
   @DF-RHF iter   1: -1571.35757433444905   -1.41920e-01   1.21306e-03 DIIS
   @DF-RHF iter   2: -1572.12131888758609   -7.63745e-01   6.40866e-04 DIIS
   @DF-RHF iter   3: -1572.31461971487875   -1.93301e-01   1.65571e-04 DIIS
   @DF-RHF iter   4: -1572.33182582708923   -1.72061e-02   6.54160e-05 DIIS
   @DF-RHF iter   5: -1572.33440051836760   -2.57469e-03   1.35071e-05 DIIS
   @DF-RHF iter   6: -1572.33455303450501   -1.52516e-04   5.97298e-06 DIIS
   @DF-RHF iter   7: -1572.33458808020373   -3.50457e-05   1.95367e-06 DIIS
   @DF-RHF iter   8: -1572.33459356360277   -5.48340e-06   7.81885e-07 DIIS
   @DF-RHF iter   9: -1572.33459448297731   -9.19375e-07   3.20036e-07 DIIS
   @DF-RHF iter  10: -1572.33459466599788   -1.83021e-07   1.44255e-07 DIIS
   @DF-RHF iter  11: -1572.33459470332741   -3.73295e-08   6.76053e-08 DIIS
   @DF-RHF iter  12: -1572.33459471313836   -9.81095e-09   2.71183e-08 DIIS
   @DF-RHF iter  13: -1572.33459471495621   -1.81785e-09   1.14916e-08 DIIS
   @DF-RHF iter  14: -1572.33459471531705   -3.60842e-10   5.49945e-09 DIIS
  Energy and wave function converged.


  ==> Post-Iterations <==

    Orbital Energies [Eh]
    ---------------------

    Doubly Occupied:                                                      

       1A    -20.521802     2A    -15.604412     3A    -15.601210  
       4A    -15.587945     5A    -15.574143     6A    -15.569021  
       7A    -15.568089     8A    -15.556588     9A    -11.375069  
      10A    -11.364125    11A    -11.335072    12A    -11.326006  
      13A    -11.314424    14A    -11.309386    15A    -11.304841  
      16A    -11.302456    17A    -11.302298    18A    -11.301724  
      19A    -11.301385    20A    -11.292477    21A    -11.290393  
      22A    -11.281384    23A    -11.275622    24A    -11.266916  
      25A    -11.256670    26A    -11.256545    27A    -11.253200  
      28A    -11.252674    29A    -11.249110    30A    -11.248086  
      31A    -11.247185    32A    -11.244824    33A    -11.244669  
      34A    -11.239961    35A    -11.233982    36A    -11.230474  
      37A    -11.224957    38A     -1.386077    39A     -1.345667  
      40A     -1.279347    41A     -1.251657    42A     -1.244867  
      43A     -1.242141    44A     -1.210219    45A     -1.199304  
      46A     -1.161115    47A     -1.139820    48A     -1.116816  
      49A     -1.075974    50A     -1.059274    51A     -1.049014  
      52A     -1.037460    53A     -1.022766    54A     -1.008065  
      55A     -0.992616    56A     -0.975631    57A     -0.947102  
      58A     -0.927714    59A     -0.927142    60A     -0.901444  
      61A     -0.873573    62A     -0.866329    63A     -0.858809  
      64A     -0.842946    65A     -0.834700    66A     -0.826697  
      67A     -0.821871    68A     -0.803936    69A     -0.778101  
      70A     -0.754949    71A     -0.738927    72A     -0.730999  
      73A     -0.722456    74A     -0.701279    75A     -0.695135  
      76A     -0.683226    77A     -0.672389    78A     -0.666948  
      79A     -0.658423    80A     -0.655924    81A     -0.652178  
      82A     -0.640769    83A     -0.636871    84A     -0.629617  
      85A     -0.622801    86A     -0.618111    87A     -0.613575  
      88A     -0.607326    89A     -0.605316    90A     -0.603400  
      91A     -0.599553    92A     -0.596109    93A     -0.592248  
      94A     -0.590482    95A     -0.586618    96A     -0.580618  
      97A     -0.580163    98A     -0.570742    99A     -0.565453  
     100A     -0.562358   101A     -0.547929   102A     -0.545522  
     103A     -0.533382   104A     -0.524527   105A     -0.521338  
     106A     -0.514633   107A     -0.511174   108A     -0.509914  
     109A     -0.508376   110A     -0.505804   111A     -0.499558  
     112A     -0.491418   113A     -0.484768   114A     -0.481040  
     115A     -0.456363   116A     -0.452318   117A     -0.443844  
     118A     -0.431615   119A     -0.427137   120A     -0.425002  
     121A     -0.414743   122A     -0.407845   123A     -0.401102  
     124A     -0.382244   125A     -0.374344   126A     -0.347125  
     127A     -0.345428   128A     -0.340818   129A     -0.315625  
     130A     -0.313323   131A     -0.290219  

    Virtual:                                                              

     132A      0.026108   133A      0.035194   134A      0.041016  
     135A      0.041651   136A      0.044318   137A      0.046451  
     138A      0.049417   139A      0.054983   140A      0.057811  
     141A      0.060970   142A      0.062342   143A      0.066798  
     144A      0.068192   145A      0.070881   146A      0.072314  
     147A      0.073321   148A      0.076172   149A      0.081602  
     150A      0.082857   151A      0.085765   152A      0.088185  
     153A      0.089588   154A      0.092865   155A      0.094981  
     156A      0.096655   157A      0.100831   158A      0.102502  
     159A      0.104685   160A      0.108613   161A      0.110127  
     162A      0.111334   163A      0.114478   164A      0.115861  
     165A      0.116760   166A      0.117715   167A      0.121489  
     168A      0.125336   169A      0.130364   170A      0.132182  
     171A      0.135847   172A      0.137562   173A      0.141815  
     174A      0.144799   175A      0.147025   176A      0.148129  
     177A      0.150955   178A      0.152538   179A      0.152844  
     180A      0.155820   181A      0.157234   182A      0.160719  
     183A      0.162138   184A      0.164275   185A      0.165669  
     186A      0.168366   187A      0.170563   188A      0.172948  
     189A      0.174913   190A      0.176687   191A      0.178603  
     192A      0.179544   193A      0.181072   194A      0.182305  
     195A      0.184651   196A      0.185644   197A      0.188292  
     198A      0.189849   199A      0.190019   200A      0.192244  
     201A      0.194876   202A      0.197878   203A      0.200304  
     204A      0.201526   205A      0.201898   206A      0.205283  
     207A      0.206375   208A      0.209334   209A      0.210032  
     210A      0.210852   211A      0.215333   212A      0.216092  
     213A      0.217373   214A      0.218420   215A      0.219540  
     216A      0.220648   217A      0.221962   218A      0.223444  
     219A      0.225372   220A      0.226907   221A      0.229188  
     222A      0.230744   223A      0.232973   224A      0.235625  
     225A      0.237428   226A      0.240301   227A      0.242197  
     228A      0.242917   229A      0.246759   230A      0.248498  
     231A      0.251164   232A      0.252579   233A      0.255716  
     234A      0.258712   235A      0.259438   236A      0.260894  
     237A      0.263472   238A      0.266579   239A      0.269913  
     240A      0.271752   241A      0.274097   242A      0.276787  
     243A      0.277829   244A      0.281102   245A      0.281495  
     246A      0.283083   247A      0.285897   248A      0.286832  
     249A      0.292238   250A      0.292588   251A      0.297593  
     252A      0.300350   253A      0.301723   254A      0.304031  
     255A      0.305760   256A      0.307567   257A      0.310291  
     258A      0.312291   259A      0.313357   260A      0.316137  
     261A      0.319408   262A      0.321807   263A      0.324109  
     264A      0.325099   265A      0.327566   266A      0.329147  
     267A      0.333504   268A      0.334533   269A      0.338200  
     270A      0.338413   271A      0.343532   272A      0.344341  
     273A      0.345656   274A      0.346870   275A      0.349426  
     276A      0.350995   277A      0.351848   278A      0.355830  
     279A      0.358181   280A      0.361401   281A      0.362384  
     282A      0.363927   283A      0.365960   284A      0.368375  
     285A      0.370395   286A      0.372100   287A      0.374448  
     288A      0.375103   289A      0.376042   290A      0.377866  
     291A      0.379263   292A      0.381703   293A      0.383004  
     294A      0.384176   295A      0.384851   296A      0.387645  
     297A      0.388115   298A      0.391431   299A      0.394030  
     300A      0.396336   301A      0.397018   302A      0.398395  
     303A      0.399737   304A      0.400879   305A      0.405061  
     306A      0.405205   307A      0.408024   308A      0.410471  
     309A      0.411760   310A      0.415430   311A      0.416182  
     312A      0.417874   313A      0.420340   314A      0.422254  
     315A      0.423380   316A      0.424991   317A      0.428224  
     318A      0.431797   319A      0.433114   320A      0.433636  
     321A      0.435559   322A      0.437986   323A      0.439176  
     324A      0.442526   325A      0.443894   326A      0.444379  
     327A      0.446671   328A      0.447453   329A      0.449122  
     330A      0.450284   331A      0.452493   332A      0.456814  
     333A      0.458831   334A      0.461105   335A      0.462206  
     336A      0.465743   337A      0.470243   338A      0.472786  
     339A      0.474995   340A      0.476823   341A      0.478863  
     342A      0.481677   343A      0.483691   344A      0.484897  
     345A      0.487309   346A      0.491780   347A      0.493105  
     348A      0.496548   349A      0.501320   350A      0.502902  
     351A      0.505927   352A      0.509556   353A      0.512346  
     354A      0.514852   355A      0.517259   356A      0.519929  
     357A      0.520484   358A      0.523693   359A      0.526307  
     360A      0.527158   361A      0.531355   362A      0.537832  
     363A      0.538445   364A      0.542350   365A      0.542915  
     366A      0.549018   367A      0.554311   368A      0.558256  
     369A      0.561412   370A      0.563106   371A      0.568873  
     372A      0.572845   373A      0.578220   374A      0.587181  
     375A      0.588898   376A      0.595148   377A      0.598002  
     378A      0.605587   379A      0.608976   380A      0.612191  
     381A      0.618170   382A      0.622899   383A      0.626797  
     384A      0.627442   385A      0.631664   386A      0.638071  
     387A      0.650402   388A      0.656555   389A      0.669827  
     390A      0.685859   391A      0.687095   392A      0.694518  
     393A      0.701093   394A      0.707343   395A      0.710710  
     396A      0.712665   397A      0.720369   398A      0.725511  
     399A      0.729564   400A      0.733330   401A      0.737932  
     402A      0.742834   403A      0.749912   404A      0.755068  
     405A      0.757753   406A      0.759679   407A      0.763148  
     408A      0.769656   409A      0.770674   410A      0.775403  
     411A      0.776682   412A      0.781056   413A      0.783252  
     414A      0.787164   415A      0.793207   416A      0.798395  
     417A      0.799844   418A      0.802808   419A      0.809135  
     420A      0.811314   421A      0.813491   422A      0.817058  
     423A      0.819236   424A      0.821310   425A      0.824766  
     426A      0.830106   427A      0.832200   428A      0.835603  
     429A      0.840346   430A      0.844203   431A      0.847904  
     432A      0.857997   433A      0.858755   434A      0.861915  
     435A      0.865508   436A      0.867169   437A      0.870195  
     438A      0.874245   439A      0.875881   440A      0.879083  
     441A      0.880125   442A      0.885504   443A      0.892011  
     444A      0.894169   445A      0.896158   446A      0.899576  
     447A      0.903732   448A      0.906797   449A      0.908997  
     450A      0.914584   451A      0.916980   452A      0.919244  
     453A      0.922561   454A      0.924649   455A      0.928134  
     456A      0.933162   457A      0.934190   458A      0.937490  
     459A      0.940045   460A      0.942277   461A      0.945047  
     462A      0.948348   463A      0.952735   464A      0.954040  
     465A      0.955609   466A      0.963804   467A      0.967856  
     468A      0.969908   469A      0.972635   470A      0.978601  
     471A      0.980026   472A      0.981322   473A      0.984942  
     474A      0.990866   475A      0.994712   476A      0.997634  
     477A      1.000740   478A      1.003613   479A      1.009010  
     480A      1.011618   481A      1.014175   482A      1.018986  
     483A      1.024581   484A      1.028605   485A      1.029092  
     486A      1.034999   487A      1.038433   488A      1.041570  
     489A      1.047831   490A      1.050299   491A      1.053841  
     492A      1.060014   493A      1.064151   494A      1.068705  
     495A      1.075612   496A      1.076866   497A      1.078666  
     498A      1.085021   499A      1.088265   500A      1.093987  
     501A      1.098862   502A      1.106305   503A      1.110053  
     504A      1.117757   505A      1.121034   506A      1.122842  
     507A      1.128555   508A      1.132526   509A      1.135795  
     510A      1.141366   511A      1.144474   512A      1.145588  
     513A      1.150928   514A      1.153449   515A      1.158902  
     516A      1.164702   517A      1.168101   518A      1.171966  
     519A      1.174201   520A      1.175221   521A      1.179576  
     522A      1.186341   523A      1.189876   524A      1.192415  
     525A      1.197867   526A      1.200401   527A      1.204969  
     528A      1.212449   529A      1.216636   530A      1.219084  
     531A      1.225411   532A      1.228392   533A      1.231553  
     534A      1.235601   535A      1.239367   536A      1.242383  
     537A      1.245248   538A      1.252167   539A      1.254671  
     540A      1.254896   541A      1.257804   542A      1.263478  
     543A      1.272224   544A      1.278459   545A      1.279939  
     546A      1.282964   547A      1.287139   548A      1.288664  
     549A      1.294921   550A      1.304886   551A      1.308195  
     552A      1.312381   553A      1.315920   554A      1.322373  
     555A      1.327069   556A      1.334727   557A      1.337691  
     558A      1.345640   559A      1.349306   560A      1.354598  
     561A      1.366267   562A      1.369995   563A      1.378102  
     564A      1.382780   565A      1.390409   566A      1.392661  
     567A      1.397616   568A      1.411710   569A      1.418361  
     570A      1.420243   571A      1.425916   572A      1.434226  
     573A      1.437515   574A      1.449418   575A      1.453798  
     576A      1.460222   577A      1.460992   578A      1.465148  
     579A      1.474111   580A      1.481170   581A      1.493567  
     582A      1.498505   583A      1.505316   584A      1.516527  
     585A      1.524086   586A      1.528787   587A      1.538908  
     588A      1.547662   589A      1.553652   590A      1.557841  
     591A      1.568131   592A      1.579960   593A      1.585745  
     594A      1.600349   595A      1.608487   596A      1.618440  
     597A      1.620337   598A      1.625304   599A      1.635142  
     600A      1.645525   601A      1.657351   602A      1.677372  
     603A      1.686456   604A      1.688919   605A      1.696015  
     606A      1.705684   607A      1.707370   608A      1.718573  
     609A      1.725139   610A      1.728680   611A      1.736372  
     612A      1.743395   613A      1.745332   614A      1.750215  
     615A      1.760651   616A      1.762573   617A      1.771785  
     618A      1.773160   619A      1.781408   620A      1.784797  
     621A      1.789013   622A      1.794814   623A      1.803922  
     624A      1.807721   625A      1.811243   626A      1.817943  
     627A      1.820709   628A      1.822475   629A      1.823438  
     630A      1.829431   631A      1.829972   632A      1.834376  
     633A      1.839572   634A      1.841359   635A      1.844971  
     636A      1.851847   637A      1.853656   638A      1.856662  
     639A      1.858357   640A      1.864748   641A      1.866230  
     642A      1.868604   643A      1.877273   644A      1.877387  
     645A      1.883566   646A      1.889430   647A      1.897129  
     648A      1.899369   649A      1.911770   650A      1.924441  
     651A      1.927589   652A      1.930240   653A      1.933851  
     654A      1.937963   655A      1.945588   656A      1.950504  
     657A      1.954431   658A      1.958834   659A      1.963491  
     660A      1.964023   661A      1.967525   662A      1.971983  
     663A      1.973770   664A      1.976402   665A      1.989692  
     666A      1.993873   667A      2.000202   668A      2.002748  
     669A      2.006780   670A      2.009841   671A      2.012052  
     672A      2.015524   673A      2.024650   674A      2.025087  
     675A      2.029138   676A      2.040889   677A      2.042040  
     678A      2.048388   679A      2.057101   680A      2.060217  
     681A      2.064622   682A      2.072397   683A      2.075622  
     684A      2.077901   685A      2.084069   686A      2.087533  
     687A      2.089258   688A      2.095585   689A      2.103729  
     690A      2.104568   691A      2.117702   692A      2.123810  
     693A      2.127170   694A      2.139224   695A      2.143447  
     696A      2.152751   697A      2.155902   698A      2.163800  
     699A      2.173272   700A      2.175027   701A      2.180614  
     702A      2.183439   703A      2.192635   704A      2.192929  
     705A      2.195686   706A      2.209086   707A      2.213439  
     708A      2.225419   709A      2.228522   710A      2.236620  
     711A      2.240597   712A      2.243236   713A      2.248634  
     714A      2.251989   715A      2.254845   716A      2.257196  
     717A      2.262704   718A      2.266732   719A      2.275009  
     720A      2.275459   721A      2.282816   722A      2.292149  
     723A      2.294616   724A      2.302751   725A      2.306528  
     726A      2.312611   727A      2.317331   728A      2.321370  
     729A      2.325704   730A      2.335833   731A      2.341392  
     732A      2.345022   733A      2.347546   734A      2.356127  
     735A      2.359801   736A      2.370571   737A      2.378708  
     738A      2.385546   739A      2.387642   740A      2.394083  
     741A      2.404679   742A      2.405902   743A      2.407175  
     744A      2.421449   745A      2.428428   746A      2.439108  
     747A      2.449116   748A      2.451533   749A      2.460674  
     750A      2.471820   751A      2.474591   752A      2.480050  
     753A      2.491159   754A      2.496510   755A      2.505466  
     756A      2.516538   757A      2.521410   758A      2.536323  
     759A      2.537809   760A      2.551235   761A      2.555442  
     762A      2.558749   763A      2.573176   764A      2.578068  
     765A      2.582680   766A      2.592535   767A      2.601747  
     768A      2.616044   769A      2.621007   770A      2.648397  
     771A      2.650844   772A      2.653132   773A      2.662019  
     774A      2.679624   775A      2.685298   776A      2.696831  
     777A      2.705180   778A      2.712489   779A      2.716612  
     780A      2.727973   781A      2.735472   782A      2.744739  
     783A      2.746701   784A      2.768889   785A      2.781296  
     786A      2.782479   787A      2.789049   788A      2.797260  
     789A      2.807353   790A      2.812041   791A      2.823589  
     792A      2.830083   793A      2.833586   794A      2.848480  
     795A      2.854055   796A      2.863072   797A      2.863989  
     798A      2.874480   799A      2.880125   800A      2.887126  
     801A      2.897042   802A      2.903767   803A      2.910731  
     804A      2.922012   805A      2.927223   806A      2.933832  
     807A      2.941942   808A      2.950503   809A      2.957054  
     810A      2.963306   811A      2.968535   812A      2.974571  
     813A      2.980441   814A      2.982789   815A      2.989446  
     816A      2.990622   817A      3.008273   818A      3.012365  
     819A      3.017058   820A      3.021029   821A      3.028695  
     822A      3.035186   823A      3.038031   824A      3.044943  
     825A      3.055910   826A      3.059831   827A      3.062014  
     828A      3.065292   829A      3.071996   830A      3.077278  
     831A      3.080926   832A      3.090289   833A      3.097713  
     834A      3.103015   835A      3.105753   836A      3.109299  
     837A      3.110170   838A      3.114685   839A      3.117491  
     840A      3.124978   841A      3.127336   842A      3.130272  
     843A      3.139634   844A      3.146015   845A      3.161665  
     846A      3.165165   847A      3.172764   848A      3.174825  
     849A      3.181199   850A      3.190121   851A      3.197195  
     852A      3.202818   853A      3.203652   854A      3.211613  
     855A      3.216323   856A      3.224017   857A      3.234620  
     858A      3.240389   859A      3.256712   860A      3.261871  
     861A      3.263974   862A      3.274331   863A      3.278848  
     864A      3.282238   865A      3.288356   866A      3.289701  
     867A      3.295888   868A      3.301240   869A      3.308552  
     870A      3.315459   871A      3.320300   872A      3.325965  
     873A      3.331164   874A      3.332771   875A      3.335170  
     876A      3.339848   877A      3.343230   878A      3.348814  
     879A      3.358962   880A      3.360471   881A      3.364030  
     882A      3.366854   883A      3.381021   884A      3.387209  
     885A      3.397411   886A      3.398371   887A      3.408204  
     888A      3.418930   889A      3.434412   890A      3.442302  
     891A      3.445979   892A      3.462265   893A      3.471002  
     894A      3.507978   895A      3.519386   896A      3.546551  
     897A      3.579816   898A      3.596812   899A      3.608084  
     900A      3.612829   901A      3.616809   902A      3.635616  
     903A      3.651607   904A      3.660138   905A      3.672849  
     906A      3.678452   907A      3.680973   908A      3.686084  
     909A      3.758291   910A      3.765009   911A      3.772298  
     912A      3.781117   913A      3.801822   914A      3.809122  
     915A      3.818342   916A      3.850391   917A      3.857410  
     918A      3.857837   919A      3.873462   920A      3.874102  
     921A      3.889017   922A      3.904085   923A      3.912465  
     924A      3.918700   925A      3.923589   926A      3.928729  
     927A      3.942589   928A      3.958733   929A      3.971115  
     930A      3.977726   931A      3.989234   932A      4.009549  
     933A      4.048333   934A      4.060715   935A      4.070318  
     936A      4.087369   937A      4.095077   938A      4.099466  
     939A      4.118185   940A      4.124689   941A      4.133508  
     942A      4.158645   943A      4.174341   944A      4.187581  
     945A      4.189531   946A      4.199086   947A      4.208908  
     948A      4.217598   949A      4.263101   950A      4.285554  
     951A      4.357208   952A      4.363560   953A      4.384513  
     954A      4.403526   955A      4.413002   956A      4.419662  
     957A      4.426071   958A      4.431340   959A      4.441193  
     960A      4.448946   961A      4.453999   962A      4.456101  
     963A      4.515826   964A      4.546437   965A      4.551738  
     966A      4.584128   967A      4.586706   968A      4.618204  
     969A      4.626795   970A      4.669832   971A      4.718061  
     972A      4.768932   973A      4.771712   974A      4.786886  
     975A      4.906916   976A      4.939005   977A      5.003876  
     978A      5.044227   979A      5.217565   980A      5.248051  
     981A      5.258561   982A      5.274831   983A      5.293250  
     984A      5.330560   985A      5.352724   986A      5.381789  
     987A      5.417068   988A      5.607015   989A      5.686255  
     990A      5.697817   991A      5.799208   992A      5.854478  
     993A      5.868573   994A      6.393981   995A     24.758509  
     996A     24.774477   997A     24.787279   998A     24.833851  
     999A     24.841560  1000A     24.863621  1001A     24.938374  
    1002A     24.980063  1003A     25.017922  1004A     25.019510  
    1005A     25.049770  1006A     25.070129  1007A     25.072696  
    1008A     25.093122  1009A     25.099415  1010A     25.120249  
    1011A     25.124449  1012A     25.131367  1013A     25.139369  
    1014A     25.153114  1015A     25.170094  1016A     25.205594  
    1017A     25.211606  1018A     25.233732  1019A     25.244901  
    1020A     25.248463  1021A     25.254574  1022A     25.321896  
    1023A     25.329336  1024A     36.951513  1025A     36.994181  
    1026A     37.021485  1027A     37.071095  1028A     37.072114  
    1029A     37.135811  1030A     37.153508  1031A     51.761466  

    Final Occupation by Irrep:
              A 
    DOCC [   131 ]

  @DF-RHF Final Energy: -1572.33459471531705

   => Energetics <=

    Nuclear Repulsion Energy =           3763.5739008051609744
    One-Electron Energy =               -9625.4154868205150706
    Two-Electron Energy =                4289.5069913000379529
    Total Energy =                      -1572.3345947153165980

Computation Completed


Properties will be evaluated at   0.000000,   0.000000,   0.000000 [a0]

Properties computed using the SCF density matrix

  Nuclear Dipole Moment: [e a0]
     X:   -34.3510      Y:     4.6179      Z:    10.9234

  Electronic Dipole Moment: [e a0]
     X:    34.7136      Y:    -1.8262      Z:   -11.0134

  Dipole Moment: [e a0]
     X:     0.3626      Y:     2.7917      Z:    -0.0899     Total:     2.8166

  Dipole Moment: [D]
     X:     0.9217      Y:     7.0958      Z:    -0.2286     Total:     7.1591


*** tstop() called on node101.bme.utexas.edu at Tue Apr 14 13:02:34 2020
Module time:
	user time   =    3932.82 seconds =      65.55 minutes
	system time =     173.61 seconds =       2.89 minutes
	total time  =       1033 seconds =      17.22 minutes
Total time:
	user time   =    3932.82 seconds =      65.55 minutes
	system time =     173.61 seconds =       2.89 minutes
	total time  =       1033 seconds =      17.22 minutes

*** tstart() called on node101.bme.utexas.edu
*** at Tue Apr 14 13:02:34 2020


  //>>>>>>>>>>>>>>>>>>>>>>>>>>>>>>>>>>>//
  //               DFMP2               //
  //<<<<<<<<<<<<<<<<<<<<<<<<<<<<<<<<<<<//

   => Loading Basis Set <=

    Name: (6-311++G** AUX)
    Role: RIFIT
    Keyword: DF_BASIS_MP2
    atoms 1-4, 6-9, 11, 14-19, 21-28, 30-31, 33-35, 37 entry C          line   148 file /home/bdw2292/miniconda3/envs/p4env/share/psi4/basis/aug-cc-pvtz-ri.gbs 
    atoms 5, 10, 12-13, 20, 29, 32                     entry N          line   206 file /home/bdw2292/miniconda3/envs/p4env/share/psi4/basis/aug-cc-pvtz-ri.gbs 
    atoms 36                                           entry O          line   264 file /home/bdw2292/miniconda3/envs/p4env/share/psi4/basis/aug-cc-pvtz-ri.gbs 
    atoms 38-68                                        entry H          line    30 file /home/bdw2292/miniconda3/envs/p4env/share/psi4/basis/aug-cc-pvtz-ri.gbs 

	 --------------------------------------------------------
	                          DF-MP2                         
	      2nd-Order Density-Fitted Moller-Plesset Theory     
	              RMP2 Wavefunction,   6 Threads             
	                                                         
	        Rob Parrish, Justin Turney, Andy Simmonett,      
	           Ed Hohenstein, and C. David Sherrill          
	 --------------------------------------------------------

   => Auxiliary Basis Set <=

  Basis Set: (6-311++G** AUX)
    Blend: AUG-CC-PVTZ-RI
    Number of shells: 1470
    Number of basis function: 5348
    Number of Cartesian functions: 6737
    Spherical Harmonics?: true
    Max angular momentum: 4

	 --------------------------------------------------------
	                 NBF =  1031, NAUX =  5348
	 --------------------------------------------------------
	   CLASS    FOCC     OCC    AOCC    AVIR     VIR    FVIR
	   PAIRS      37     131      94     900     900       0
	 --------------------------------------------------------

	-----------------------------------------------------------
	 ==================> DF-MP2 Energies <==================== 
	-----------------------------------------------------------
	 Reference Energy          =   -1572.3345947153170528 [Eh]
	 Singles Energy            =      -0.0000000000000000 [Eh]
	 Same-Spin Energy          =      -1.4720297998928122 [Eh]
	 Opposite-Spin Energy      =      -4.0503771111586691 [Eh]
	 Correlation Energy        =      -5.5224069110514815 [Eh]
	 Total Energy              =   -1577.8570016263686284 [Eh]
	-----------------------------------------------------------
	 ================> DF-SCS-MP2 Energies <================== 
	-----------------------------------------------------------
	 SCS Same-Spin Scale       =       0.3333333333333333 [-]
	 SCS Opposite-Spin Scale   =       1.2000000000000000 [-]
	 SCS Same-Spin Energy      =      -0.4906765999642707 [Eh]
	 SCS Opposite-Spin Energy  =      -4.8604525333904025 [Eh]
	 SCS Correlation Energy    =      -5.3511291333546733 [Eh]
	 SCS Total Energy          =   -1577.6857238486716142 [Eh]
	-----------------------------------------------------------


*** tstop() called on node101.bme.utexas.edu at Tue Apr 14 13:10:34 2020
Module time:
	user time   =    2615.35 seconds =      43.59 minutes
	system time =      24.76 seconds =       0.41 minutes
	total time  =        480 seconds =       8.00 minutes
Total time:
	user time   =    6548.17 seconds =     109.14 minutes
	system time =     198.37 seconds =       3.31 minutes
	total time  =       1513 seconds =      25.22 minutes


Properties will be evaluated at   0.000000,   0.000000,   0.000000 [a0]
OEProp: No title given, name of density matrix used for the following properties is 'SCF density'


  Wiberg Bond Indices using Orthogonal Lowdin Orbitals:

  Irrep: 1 Size: 68 x 68

                 1                   2                   3                   4                   5

    1     0.00000000000000     1.46353476878407     0.12530947748482     0.14064638088657     0.12400744443284
    2     1.46353476878407     0.00000000000000     1.40177368555168     0.12863051330088     0.12166214499971
    3     0.12530947748482     1.40177368555168     0.00000000000000     1.36130352621834     0.11875750529094
    4     0.14064638088657     0.12863051330088     1.36130352621834     0.00000000000000     1.66037324222818
    5     0.12400744443284     0.12166214499971     0.11875750529094     1.66037324222818     0.00000000000000
    6     1.46580692740002     0.13826075691608     0.13570840597731     0.15353033446787     1.62602733048297
    7     0.01458706764077     0.10290266043478     1.01990605787870     0.10420305396222     0.01390618569481
    8     0.00353689526364     0.04133292162268     0.09815771329838     0.02377785719908     0.00218682604298
    9     0.00036568375170     0.00465646389366     0.01469989701012     0.00407992050288     0.00066555599641
   10     0.00041070090448     0.00535301365045     0.00577956776851     0.00598754388092     0.00032241519513
   11     0.00085491740335     0.00332675273246     0.01797579931821     0.00683542213923     0.00043064041005
   12     0.00280045729915     0.02202165390260     0.11934826680577     0.06165448886138     0.00407608967963
   13     0.00015895822488     0.00046990046345     0.00162396083197     0.00092510368245     0.00008498124255
   14     0.00003029784522     0.00009350361647     0.00057959054440     0.00131032822441     0.00011104635368
   15     0.00001016264599     0.00002333038802     0.00006761835679     0.00014441529339     0.00001605296664
   16     0.00000213102032     0.00000619608902     0.00004135439533     0.00027028225563     0.00001269267544
   17     0.00001238869426     0.00001868361230     0.00005529567876     0.00026903740734     0.00004219830228
   18     0.00002893687187     0.00005326504894     0.00030017179066     0.00184678218023     0.00024183643026
   19     0.00017945566352     0.00024242411563     0.00208759651914     0.01038478191429     0.00062990360683
   20     0.00006822191240     0.00006871401890     0.00031996759222     0.00300437371758     0.00064156220628
   21     0.00001380905956     0.00001300458685     0.00005365740952     0.00039636986142     0.00020061653833
   22     0.00006000042384     0.00004042002989     0.00004956549803     0.00067698084449     0.00156599434741
   23     0.00050942492630     0.00030720140348     0.00042978319773     0.00701780900280     0.02223812707613
   24     0.00026402343037     0.00022482272910     0.00031382907458     0.00175644416369     0.01403062718803
   25     0.00002031545227     0.00001968354711     0.00002555006483     0.00014022907208     0.00076863778485
   26     0.00001046606347     0.00000692328234     0.00001803900932     0.00024985610677     0.00063183076308
   27     0.00001094674753     0.00000627615053     0.00001635382112     0.00020330692324     0.00060925598064
   28     0.00000806965569     0.00000349579774     0.00000400388679     0.00002274870652     0.00008514617015
   29     0.00001239997533     0.00000426369182     0.00000529819717     0.00001074920809     0.00007388194493
   30     0.00014562457153     0.00009323128248     0.00018637931417     0.00006520185649     0.00038773776356
   31     0.00008533439476     0.00014277015491     0.00014320604425     0.00012707227382     0.00060147772238
   32     0.00001386701108     0.00000523235151     0.00000804517807     0.00004210293917     0.00004038282926
   33     0.00000551157471     0.00000170078500     0.00000194161131     0.00000640530439     0.00001095704297
   34     0.00000826070470     0.00000171744585     0.00000235807991     0.00001100723653     0.00002792877831
   35     0.00000778906493     0.00000143207744     0.00000164478327     0.00000527430198     0.00002404830720
   36     0.00000219846266     0.00000237813539     0.00001264558859     0.00010408468609     0.00003673663024
   37     0.00000217105476     0.00000726267751     0.00003293442162     0.00003439528266     0.00000287702687
   38     0.88601619537152     0.07925774838745     0.01179493683163     0.00636026526399     0.01073066734035
   39     0.07735250987469     0.87043687074123     0.07297941054516     0.01177756722386     0.00396123837386
   40     0.00566221592129     0.01050520638104     0.06905349613048     0.85000197637751     0.08675836670018
   41     0.07691470272004     0.01177656209187     0.00606042232976     0.01597415939901     0.08850305238129
   42     0.00104185260103     0.01382132325078     0.01429045528733     0.00137068366606     0.00029241707636
   43     0.00004398081190     0.00027440476180     0.00143186886736     0.00031693091884     0.00007658861002
   44     0.00002411549473     0.00008160308339     0.00034864096829     0.00009133817535     0.00000777143691
   45     0.00000032602471     0.00000107870560     0.00000701499497     0.00001854913837     0.00000169705929
   46     0.00000096986395     0.00000163332357     0.00000701192521     0.00002418812603     0.00000753251829
   47     0.00013833990973     0.00019924529504     0.00204108566650     0.00756125707335     0.00054734705249
   48     0.00012945223214     0.00007242782436     0.00020983523600     0.00235764029336     0.00072747474810
   49     0.00032614412881     0.00014163570100     0.00027180696479     0.00504664390375     0.01159513306621
   50     0.00011222436413     0.00008518529034     0.00014275705569     0.00047467349028     0.00448211676255
   51     0.00000072453709     0.00000049569952     0.00000128015379     0.00001622540119     0.00003485475881
   52     0.00000125397070     0.00000062414002     0.00000110290606     0.00001088028079     0.00003964258371
   53     0.00000281370393     0.00000136605581     0.00000110946911     0.00000288160935     0.00001361372244
   54     0.00000089176419     0.00000011274467     0.00000022373609     0.00000734809602     0.00000931024056
   55     0.00012397692669     0.00004729624523     0.00011149400840     0.00004720549668     0.00032458388907
   56     0.00002442915367     0.00000516875958     0.00000962538703     0.00001192311028     0.00007422801369
   57     0.00004138209635     0.00002643438146     0.00004938386013     0.00004488805614     0.00013521972703
   58     0.00002631836006     0.00003304625641     0.00001445631127     0.00004691975100     0.00026887097531
   59     0.00000157717679     0.00000033550633     0.00000048673661     0.00000104738901     0.00000641462882
   60     0.00000208462352     0.00000120882235     0.00000096069235     0.00000086005403     0.00000084792428
   61     0.00000089250937     0.00000023232069     0.00000012934388     0.00000056444097     0.00000061833344
   62     0.00000039361298     0.00000015383369     0.00000015686012     0.00000100261830     0.00000122348425
   63     0.00000411024026     0.00000091948660     0.00000097204387     0.00000379903082     0.00000918059186
   64     0.00000363683447     0.00000079583299     0.00000097405142     0.00000345064223     0.00000761830788
   65     0.00000064885011     0.00000028577611     0.00000043378572     0.00000192590275     0.00000331566528
   66     0.00000073779568     0.00000192921770     0.00001178365256     0.00000853297641     0.00000061046772
   67     0.00000096403432     0.00000269386721     0.00000967244112     0.00000821874766     0.00000077515218
   68     0.00000024891900     0.00000066966032     0.00000381743480     0.00000784555840     0.00000045976851

                 6                   7                   8                   9                  10

    1     1.46580692740002     0.01458706764077     0.00353689526364     0.00036568375170     0.00041070090448
    2     0.13826075691608     0.10290266043478     0.04133292162268     0.00465646389366     0.00535301365045
    3     0.13570840597731     1.01990605787870     0.09815771329838     0.01469989701012     0.00577956776851
    4     0.15353033446787     0.10420305396222     0.02377785719908     0.00407992050288     0.00598754388092
    5     1.62602733048297     0.01390618569481     0.00218682604298     0.00066555599641     0.00032241519513
    6     0.00000000000000     0.00971878569033     0.00679279868912     0.00119544101452     0.00331394547270
    7     0.00971878569033     0.00000000000000     1.38798530790968     0.14632134249721     0.11212685145335
    8     0.00679279868912     1.38798530790968     0.00000000000000     1.43188015127469     0.13034361656094
    9     0.00119544101452     0.14632134249721     1.43188015127469     0.00000000000000     1.66151777386414
   10     0.00331394547270     0.11212685145335     0.13034361656094     1.66151777386414     0.00000000000000
   11     0.00083764929559     0.14168106350507     0.11339479227398     0.15268175166273     1.50861615636266
   12     0.00602122851067     1.53261482370315     0.12704017255064     0.11131880684790     0.11019804988964
   13     0.00007251774443     0.01931693148533     0.02059681300429     0.02420455570172     0.15979059049067
   14     0.00004212683998     0.00292424530670     0.00248825843030     0.00326487147441     0.01689014718322
   15     0.00000526684491     0.00050437852547     0.00145683723893     0.00093572548976     0.00313911767761
   16     0.00000434496198     0.00016440420041     0.00019405677249     0.00016285735121     0.00047510878600
   17     0.00000794343204     0.00025273114907     0.00130986343223     0.00044350366604     0.00127712879671
   18     0.00004579366215     0.00056798745934     0.00026646864372     0.00014299012070     0.00041030781887
   19     0.00019284796418     0.00584941085789     0.00315412638073     0.00154334157002     0.00432695362676
   20     0.00007514483673     0.00013296075399     0.00002902557881     0.00001787350431     0.00005730593939
   21     0.00002240818483     0.00002195989254     0.00000833040422     0.00000474746433     0.00001582046626
   22     0.00015074341106     0.00000829269879     0.00000318129798     0.00000128211614     0.00000336854372
   23     0.00211307620598     0.00006923214966     0.00001552812316     0.00000416343521     0.00000354268952
   24     0.00295114065848     0.00003566361922     0.00001677130961     0.00000286940209     0.00000205237801
   25     0.00027390621424     0.00000402705055     0.00000240301417     0.00000045763309     0.00000065825427
   26     0.00013746893516     0.00000233128815     0.00000067782027     0.00000019408554     0.00000025020866
   27     0.00012599867543     0.00000313030741     0.00000124998980     0.00000041901842     0.00000084766217
   28     0.00007001486383     0.00000087845554     0.00000039450803     0.00000006502635     0.00000012546653
   29     0.00016599669762     0.00000057283281     0.00000056561731     0.00000012893251     0.00000016735489
   30     0.00145921678384     0.00000871779156     0.00001623338060     0.00000232421592     0.00000769103713
   31     0.00066439711019     0.00001118551334     0.00000765028364     0.00000166515282     0.00000384109385
   32     0.00007307411408     0.00000057028853     0.00000035699885     0.00000009470664     0.00000013133710
   33     0.00001613188221     0.00000015058600     0.00000015680238     0.00000002597583     0.00000001921946
   34     0.00005196307574     0.00000033593597     0.00000015384009     0.00000003438382     0.00000004541551
   35     0.00008266182413     0.00000025071877     0.00000022503257     0.00000003464558     0.00000007499622
   36     0.00000684605408     0.00001001250079     0.00000802547120     0.00000386654161     0.00001061410938
   37     0.00000180237108     0.00014399438457     0.00013620645072     0.00013360399791     0.00072078287585
   38     0.08245074961296     0.00129102155854     0.00024739574116     0.00003906388151     0.00002560445947
   39     0.01171609890891     0.01616927382210     0.01459623913012     0.00113285638515     0.00039681928048
   40     0.01476888977651     0.01574497491682     0.00169173683700     0.00040449634186     0.00058417878608
   41     0.87823871488493     0.00054216738513     0.00026404075073     0.00005235576420     0.00010347215359
   42     0.00047128310640     0.07535622392257     0.87663951574601     0.08078144792237     0.01045807718688
   43     0.00004343330337     0.01167853522062     0.07500770779471     0.87550417471669     0.09029195676447
   44     0.00001146587622     0.00206708615818     0.00202469146429     0.00366022869246     0.03133824286995
   45     0.00000043586165     0.00001863138303     0.00000784061465     0.00002314911755     0.00005196126622
   46     0.00000115354298     0.00002345710819     0.00004215751640     0.00001666721753     0.00005235906790
   47     0.00018626648951     0.00425193240644     0.00093680845659     0.00044030051105     0.00075800093790
   48     0.00009282372540     0.00008823157325     0.00002909024191     0.00001031911493     0.00002152938545
   49     0.00114087334529     0.00005108968769     0.00001106396746     0.00000322791429     0.00000289755187
   50     0.00190626246594     0.00001561977133     0.00000602989821     0.00000100541474     0.00000039587995
   51     0.00000645629982     0.00000012358066     0.00000006071758     0.00000001763907     0.00000003018563
   52     0.00001034772944     0.00000045251325     0.00000012035693     0.00000005987651     0.00000014233413
   53     0.00001588905127     0.00000024688227     0.00000006560939     0.00000001056520     0.00000002712182
   54     0.00000466813737     0.00000005361390     0.00000002303634     0.00000000373412     0.00000000685961
   55     0.00120251278487     0.00000602239395     0.00001016907326     0.00000169839033     0.00000475380880
   56     0.00011785220669     0.00000053441519     0.00000108244585     0.00000015616836     0.00000048742883
   57     0.00030597536079     0.00000562935064     0.00000149782046     0.00000035980333     0.00000048875445
   58     0.00009740254791     0.00000175611462     0.00000076423732     0.00000016988416     0.00000021711195
   59     0.00000322046093     0.00000001672998     0.00000005924450     0.00000000703704     0.00000002021488
   60     0.00000383360767     0.00000007552478     0.00000002963454     0.00000000745255     0.00000001145648
   61     0.00000327306685     0.00000001550250     0.00000001655272     0.00000000216628     0.00000000189012
   62     0.00000417407023     0.00000002274910     0.00000001491882     0.00000000479352     0.00000000285372
   63     0.00002187667945     0.00000008948969     0.00000009290489     0.00000000730967     0.00000002504572
   64     0.00003151283948     0.00000007051513     0.00000014134431     0.00000001108017     0.00000002655197
   65     0.00000647362311     0.00000003529186     0.00000003394028     0.00000000709325     0.00000001070934
   66     0.00000036916545     0.00004436848555     0.00007667132081     0.00004238875791     0.00025364622631
   67     0.00000113349708     0.00004369482157     0.00010655240494     0.00003983613075     0.00028965290680
   68     0.00000015174185     0.00001437978494     0.00000518468852     0.00000423786796     0.00003124335728

                11                  12                  13                  14                  15

    1     0.00085491740335     0.00280045729915     0.00015895822488     0.00003029784522     0.00001016264599
    2     0.00332675273246     0.02202165390260     0.00046990046345     0.00009350361647     0.00002333038802
    3     0.01797579931821     0.11934826680577     0.00162396083197     0.00057959054440     0.00006761835679
    4     0.00683542213923     0.06165448886138     0.00092510368245     0.00131032822441     0.00014441529339
    5     0.00043064041005     0.00407608967963     0.00008498124255     0.00011104635368     0.00001605296664
    6     0.00083764929559     0.00602122851067     0.00007251774443     0.00004212683998     0.00000526684491
    7     0.14168106350507     1.53261482370315     0.01931693148533     0.00292424530670     0.00050437852547
    8     0.11339479227398     0.12704017255064     0.02059681300429     0.00248825843030     0.00145683723893
    9     0.15268175166273     0.11131880684790     0.02420455570172     0.00326487147441     0.00093572548976
   10     1.50861615636266     0.11019804988964     0.15979059049067     0.01689014718322     0.00313911767761
   11     0.00000000000000     1.53263842481975     1.27126005186996     0.08264103908719     0.01784993230865
   12     1.53263842481975     0.00000000000000     0.14178021890601     0.02963500988263     0.00348707218124
   13     1.27126005186996     0.14178021890601     0.00000000000000     1.12586387471482     0.10549624080038
   14     0.08264103908719     0.02963500988263     1.12586387471482     0.00000000000000     1.31667431624828
   15     0.01784993230865     0.00348707218124     0.10549624080038     1.31667431624828     0.00000000000000
   16     0.00237880787021     0.00117109567583     0.01428100636402     0.12564107474566     1.44166854678000
   17     0.00412165570661     0.00248753130691     0.01185546227618     0.11951284056744     0.12408821539613
   18     0.00244095360992     0.00494665567255     0.01311088176036     0.12222217193334     0.11992145969689
   19     0.02856955076003     0.05574934410736     0.11041615459383     1.40256553324370     0.11999482640829
   20     0.00034361662494     0.00108828018671     0.00131501140470     0.01505556470763     0.01141448023722
   21     0.00006134244414     0.00013015916581     0.00030149891738     0.00275472153532     0.00574169878135
   22     0.00001204226030     0.00002901706667     0.00005549691527     0.00035497369767     0.00033779726861
   23     0.00001548280484     0.00012562776848     0.00001406582557     0.00011958266788     0.00035975862488
   24     0.00000273858387     0.00001511343152     0.00000292534013     0.00001256344592     0.00003647989816
   25     0.00000081439650     0.00000290135332     0.00000180399602     0.00002253521387     0.00014558360172
   26     0.00000059636647     0.00000150457568     0.00000221176463     0.00001758079223     0.00003229438585
   27     0.00000336781246     0.00000437888090     0.00001276975607     0.00009562209590     0.00029627983996
   28     0.00000016385741     0.00000060397204     0.00000018371320     0.00000200751535     0.00001030281529
   29     0.00000010600572     0.00000039010515     0.00000011112906     0.00000122131778     0.00000734654868
   30     0.00000117796942     0.00001118104812     0.00000037958434     0.00000094032920     0.00000157667883
   31     0.00000092443500     0.00000489816893     0.00000021978774     0.00000151983696     0.00000176516900
   32     0.00000020097064     0.00000089191479     0.00000005454555     0.00000134113962     0.00000059892537
   33     0.00000004138718     0.00000013215306     0.00000001066590     0.00000027092788     0.00000014910124
   34     0.00000008149169     0.00000030674888     0.00000008782957     0.00000043343643     0.00000029310102
   35     0.00000007569280     0.00000022497794     0.00000004469931     0.00000044775538     0.00000091522760
   36     0.00003861912552     0.00005210979097     0.00014675676093     0.00100308857261     0.00332746809688
   37     0.00357277831868     0.00078519455666     0.03774230434891     0.09667428130695     1.05933813536990
   38     0.00008954136859     0.00031362001860     0.00001566133997     0.00000718235128     0.00000079430898
   39     0.00029307786231     0.00109807643865     0.00007079789822     0.00002536162768     0.00000422619399
   40     0.00272385866329     0.02485725610739     0.00043620082725     0.00117000884991     0.00014375680407
   41     0.00004330260514     0.00025114096941     0.00000589043586     0.00000397460018     0.00000057916948
   42     0.00576515989026     0.01075548416357     0.00104517864655     0.00012100957065     0.00006556249377
   43     0.01584314211966     0.00401126032682     0.00136131183419     0.00038677782298     0.00006272457817
   44     0.07390024782955     0.01155431328035     0.93402005157282     0.05939305291772     0.01480305814967
   45     0.00036559452190     0.00006310499046     0.00115317084305     0.01143347723763     0.07494205146370
   46     0.00014750147503     0.00015796476420     0.00051422984053     0.00525212421210     0.01052260149207
   47     0.00970431966423     0.03785005675739     0.01582301948208     0.07323377554302     0.00971721169614
   48     0.00012211765085     0.00066881910019     0.00017783777196     0.00206528913465     0.00111950666098
   49     0.00001039049341     0.00006317854611     0.00000554281680     0.00003984712862     0.00011466255106
   50     0.00000090502789     0.00000369881877     0.00000036891045     0.00000145922289     0.00000162456921
   51     0.00000007124003     0.00000012885439     0.00000048627349     0.00000273675240     0.00000318459199
   52     0.00000069680006     0.00000065041255     0.00000228906561     0.00001521426438     0.00001941930057
   53     0.00000003099027     0.00000011927777     0.00000005815426     0.00000042007411     0.00000140085570
   54     0.00000002454991     0.00000005773932     0.00000004694824     0.00000032878860     0.00000183482227
   55     0.00000058733724     0.00000337324506     0.00000033992758     0.00000028911099     0.00000028691072
   56     0.00000009453086     0.00000079893253     0.00000003053161     0.00000024611797     0.00000028077919
   57     0.00000024593132     0.00000128672725     0.00000020260979     0.00000026285830     0.00000041730291
   58     0.00000021156409     0.00000063066571     0.00000009696054     0.00000108750015     0.00000457178013
   59     0.00000001098066     0.00000002843407     0.00000000304188     0.00000001636684     0.00000002303917
   60     0.00000001534443     0.00000002559408     0.00000000349640     0.00000002856635     0.00000002003689
   61     0.00000000403110     0.00000001650684     0.00000000288390     0.00000003447809     0.00000001440307
   62     0.00000000358379     0.00000000889282     0.00000000864650     0.00000003343971     0.00000005486128
   63     0.00000001845732     0.00000003062745     0.00000002496453     0.00000017465393     0.00000011420066
   64     0.00000001340670     0.00000004176557     0.00000000757875     0.00000012033059     0.00000046561755
   65     0.00000000791481     0.00000007096314     0.00000000780478     0.00000003211813     0.00000007044464
   66     0.00078594164246     0.00026539665063     0.00941852480196     0.01642743667703     0.05729018114896
   67     0.00087868795526     0.00028575280020     0.00974531444071     0.01662107024493     0.05875763268604
   68     0.00022916528675     0.00006125536863     0.00199109397148     0.00894999081563     0.05986711759462

                16                  17                  18                  19                  20

    1     0.00000213102032     0.00001238869426     0.00002893687187     0.00017945566352     0.00006822191240
    2     0.00000619608902     0.00001868361230     0.00005326504894     0.00024242411563     0.00006871401890
    3     0.00004135439533     0.00005529567876     0.00030017179066     0.00208759651914     0.00031996759222
    4     0.00027028225563     0.00026903740734     0.00184678218023     0.01038478191429     0.00300437371758
    5     0.00001269267544     0.00004219830228     0.00024183643026     0.00062990360683     0.00064156220628
    6     0.00000434496198     0.00000794343204     0.00004579366215     0.00019284796418     0.00007514483673
    7     0.00016440420041     0.00025273114907     0.00056798745934     0.00584941085789     0.00013296075399
    8     0.00019405677249     0.00130986343223     0.00026646864372     0.00315412638073     0.00002902557881
    9     0.00016285735121     0.00044350366604     0.00014299012070     0.00154334157002     0.00001787350431
   10     0.00047510878600     0.00127712879671     0.00041030781887     0.00432695362676     0.00005730593939
   11     0.00237880787021     0.00412165570661     0.00244095360992     0.02856955076003     0.00034361662494
   12     0.00117109567583     0.00248753130691     0.00494665567255     0.05574934410736     0.00108828018671
   13     0.01428100636402     0.01185546227618     0.01311088176036     0.11041615459383     0.00131501140470
   14     0.12564107474566     0.11951284056744     0.12222217193334     1.40256553324370     0.01505556470763
   15     1.44166854678000     0.12408821539613     0.11992145969689     0.11999482640829     0.01141448023722
   16     0.00000000000000     1.44433418544779     0.13317857880799     0.12568314361832     0.01369817073216
   17     1.44433418544779     0.00000000000000     1.39962307146221     0.12205480613718     0.10482361006480
   18     0.13317857880799     1.39962307146221     0.00000000000000     1.36189694108280     1.12785252009242
   19     0.12568314361832     0.12205480613718     1.36189694108280     0.00000000000000     0.12433269678730
   20     0.01369817073216     0.10482361006480     1.12785252009242     0.12433269678730     0.00000000000000
   21     0.00274714081424     0.03102153916241     0.08613919454091     0.02252096953317     1.31202147684969
   22     0.00035401211618     0.00326598251622     0.01471261257752     0.00211888150064     0.10627749391397
   23     0.00014806652221     0.00120606487543     0.00416424586660     0.00133612950554     0.04333134317821
   24     0.00002167276260     0.00016069569917     0.00043840578035     0.00013884150553     0.00387243501513
   25     0.00002616038910     0.00024794747858     0.00046729604638     0.00021407285122     0.00347345961551
   26     0.00002170768534     0.00013788405499     0.00050834274100     0.00010536751907     0.00254415147983
   27     0.00010254442859     0.00087118054214     0.00234735584480     0.00065358788958     0.01812118008673
   28     0.00000237351586     0.00002096750840     0.00004289950897     0.00001790224843     0.00026433805375
   29     0.00000144402489     0.00001124738222     0.00002283839239     0.00001012590127     0.00015698965787
   30     0.00000049459364     0.00000345867255     0.00000673796238     0.00000349676614     0.00004034034825
   31     0.00000058917249     0.00000605542464     0.00001112559430     0.00000991514998     0.00005108024021
   32     0.00000015796318     0.00000099296458     0.00000312614778     0.00000296342009     0.00001171432355
   33     0.00000005123129     0.00000030211302     0.00000055345838     0.00000037862599     0.00000200238120
   34     0.00000032671625     0.00000143176648     0.00000619375369     0.00000197019567     0.00002103607240
   35     0.00000034296534     0.00000205568087     0.00000486022377     0.00000188797261     0.00002478693800
   36     0.00332602346747     0.04707988162955     0.03126783613236     0.00522245386906     0.19171901180169
   37     0.11515877918231     0.01432941976453     0.00738438473102     0.01408239662770     0.00073001519105
   38     0.00000033630665     0.00000069379203     0.00000544193846     0.00002282407950     0.00000520273036
   39     0.00000168588069     0.00000231199335     0.00000617787794     0.00003721641994     0.00000677289935
   40     0.00024612083105     0.00023841606801     0.00177096126050     0.00825302834630     0.00203363066729
   41     0.00000046520511     0.00000075998808     0.00000266933747     0.00001354918482     0.00000497794396
   42     0.00001086239764     0.00004753947951     0.00003030235370     0.00020307298945     0.00000679990009
   43     0.00001575618804     0.00001184321954     0.00001516959766     0.00010746415187     0.00000174384327
   44     0.00149605638942     0.00108072903988     0.00129348846488     0.01048267353239     0.00023949179797
   45     0.87159412215704     0.07891385436019     0.01177715919895     0.00568149938005     0.00103394532258
   46     0.07703674868821     0.86047249246164     0.07591697906230     0.01127021054626     0.01470409650573
   47     0.00570030333150     0.01026789818272     0.07190954902703     0.83782151209989     0.02426521462683
   48     0.00136765126911     0.01010744365592     0.06267404377772     0.02164245372741     0.93544318453623
   49     0.00005204898858     0.00035647134976     0.00158373486900     0.00067075222338     0.01535886884156
   50     0.00000200493514     0.00001198143688     0.00003259723822     0.00001007186715     0.00021162249097
   51     0.00000273750987     0.00001811795819     0.00006620894635     0.00001715626755     0.00028443599386
   52     0.00002618963930     0.00016126803065     0.00024617227277     0.00007221148113     0.00164913711991
   53     0.00000051175413     0.00000365966487     0.00000827506238     0.00000290473945     0.00003576559042
   54     0.00000043582618     0.00000395122194     0.00000816204277     0.00000349727621     0.00004980198481
   55     0.00000012490921     0.00000062432600     0.00000180470681     0.00000081253979     0.00000960151554
   56     0.00000009119514     0.00000036289367     0.00000116780000     0.00000062897360     0.00001315153161
   57     0.00000011665719     0.00000111955448     0.00000170664392     0.00000221359770     0.00000739149396
   58     0.00000164574413     0.00001558222215     0.00001841676027     0.00001383828897     0.00011095930181
   59     0.00000001228463     0.00000005676494     0.00000012302188     0.00000004900741     0.00000058961661
   60     0.00000001464898     0.00000005962806     0.00000010929027     0.00000005643862     0.00000034091987
   61     0.00000000657061     0.00000003238145     0.00000007926959     0.00000003450310     0.00000033608271
   62     0.00000002152457     0.00000011157937     0.00000045078138     0.00000013273445     0.00000135631121
   63     0.00000021183987     0.00000085296359     0.00000322378523     0.00000106996262     0.00001714924053
   64     0.00000010468924     0.00000075000440     0.00000175262170     0.00000093991699     0.00001003839676
   65     0.00000002821214     0.00000019365224     0.00000060783574     0.00000021699682     0.00000383358726
   66     0.01487396431589     0.00125485743442     0.00287391604124     0.00120248289914     0.00036536202861
   67     0.01523475428707     0.00125773210221     0.00286852665083     0.00127010735913     0.00034347196151
   68     0.02374295331664     0.00189926303193     0.00055053798036     0.00109604145552     0.00008250858171

                21                  22                  23                  24                  25

    1     0.00001380905956     0.00006000042384     0.00050942492630     0.00026402343037     0.00002031545227
    2     0.00001300458685     0.00004042002989     0.00030720140348     0.00022482272910     0.00001968354711
    3     0.00005365740952     0.00004956549803     0.00042978319773     0.00031382907458     0.00002555006483
    4     0.00039636986142     0.00067698084449     0.00701780900280     0.00175644416369     0.00014022907208
    5     0.00020061653833     0.00156599434741     0.02223812707613     0.01403062718803     0.00076863778485
    6     0.00002240818483     0.00015074341106     0.00211307620598     0.00295114065848     0.00027390621424
    7     0.00002195989254     0.00000829269879     0.00006923214966     0.00003566361922     0.00000402705055
    8     0.00000833040422     0.00000318129798     0.00001552812316     0.00001677130961     0.00000240301417
    9     0.00000474746433     0.00000128211614     0.00000416343521     0.00000286940209     0.00000045763309
   10     0.00001582046626     0.00000336854372     0.00000354268952     0.00000205237801     0.00000065825427
   11     0.00006134244414     0.00001204226030     0.00001548280484     0.00000273858387     0.00000081439650
   12     0.00013015916581     0.00002901706667     0.00012562776848     0.00001511343152     0.00000290135332
   13     0.00030149891738     0.00005549691527     0.00001406582557     0.00000292534013     0.00000180399602
   14     0.00275472153532     0.00035497369767     0.00011958266788     0.00001256344592     0.00002253521387
   15     0.00574169878135     0.00033779726861     0.00035975862488     0.00003647989816     0.00014558360172
   16     0.00274714081424     0.00035401211618     0.00014806652221     0.00002167276260     0.00002616038910
   17     0.03102153916241     0.00326598251622     0.00120606487543     0.00016069569917     0.00024794747858
   18     0.08613919454091     0.01471261257752     0.00416424586660     0.00043840578035     0.00046729604638
   19     0.02252096953317     0.00211888150064     0.00133612950554     0.00013884150553     0.00021407285122
   20     1.31202147684969     0.10627749391397     0.04333134317821     0.00387243501513     0.00347345961551
   21     0.00000000000000     0.97168509677088     0.10455520773145     0.01449556203236     0.01116308231466
   22     0.97168509677088     0.00000000000000     1.39941547279292     0.12753626072209     0.12415505903997
   23     0.10455520773145     1.39941547279292     0.00000000000000     1.45412978019909     0.12651845817099
   24     0.01449556203236     0.12753626072209     1.45412978019909     0.00000000000000     1.40424751845922
   25     0.01116308231466     0.12415505903997     0.12651845817099     1.40424751845922     0.00000000000000
   26     0.01483159447148     0.12753080256917     0.13071878548918     0.12611572831486     1.39437828102608
   27     0.11096304913622     1.38529370272434     0.12454950714962     0.13156369811375     0.12665776497945
   28     0.00073324597570     0.00920052312375     0.01459683404009     0.10892281320017     1.01656205193485
   29     0.00037075484410     0.00427993517036     0.00191600804665     0.02258537960767     0.08388842353732
   30     0.00014905770905     0.00140002763593     0.00361900703365     0.02288129565846     0.02674793677964
   31     0.00028630931400     0.00439442580142     0.00941768757714     0.02098852481669     0.02414935977247
   32     0.00009125549901     0.00070287141839     0.00099247911966     0.00218571865703     0.00389507748382
   33     0.00001166998235     0.00013120105590     0.00022599313009     0.00056298391496     0.00101257808433
   34     0.00006381106789     0.00066286797591     0.00143966470393     0.00222797799537     0.01359226691546
   35     0.00006888536048     0.00078359604925     0.00058262302563     0.00371369964535     0.01621688130697
   36     2.18140343413479     0.13599291932984     0.02481412702502     0.00304345618943     0.00610771952695
[...]
   15     0.00000028077919     0.00000041730291     0.00000457178013     0.00000002303917     0.00000002003689
   16     0.00000009119514     0.00000011665719     0.00000164574413     0.00000001228463     0.00000001464898
   17     0.00000036289367     0.00000111955448     0.00001558222215     0.00000005676494     0.00000005962806
   18     0.00000116780000     0.00000170664392     0.00001841676027     0.00000012302188     0.00000010929027
   19     0.00000062897360     0.00000221359770     0.00001383828897     0.00000004900741     0.00000005643862
   20     0.00001315153161     0.00000739149396     0.00011095930181     0.00000058961661     0.00000034091987
   21     0.00003993874473     0.00002571628252     0.00033893282183     0.00000189880952     0.00000202138730
   22     0.00023628500473     0.00018671114338     0.00469370122065     0.00001103647949     0.00001728568891
   23     0.00027456696400     0.00023892530211     0.00785116809074     0.00002208464434     0.00002544283222
   24     0.00075830781405     0.00093305562551     0.01434194992715     0.00009956339834     0.00005680313824
   25     0.00122081558530     0.00094583612890     0.01605906958019     0.00016695368367     0.00009631419814
   26     0.00055403503139     0.00041244182175     0.00871639862235     0.00007455186398     0.00004891380494
   27     0.00050147937327     0.00018499435454     0.00435463486489     0.00003109006285     0.00002244354188
   28     0.01219859958676     0.00107300918348     0.00639108785545     0.00062999754644     0.00011505703902
   29     0.06215969561379     0.01195642469373     0.01158770222223     0.00279248685326     0.00062965916431
   30     0.78846170041923     0.05745078633012     0.04305132266028     0.01230098701703     0.00374225164970
   31     0.04859799895244     0.84772965514068     0.79033796719012     0.01657587335558     0.02042767845817
   32     0.01332141061991     0.05257079692058     0.05776632440041     0.06836414488122     0.06275339406857
   33     0.01394181692988     0.02255281098125     0.01166587808360     0.91017235788144     0.91995856739102
   34     0.00793331146470     0.01423494265813     0.01859921322026     0.01640898998454     0.01257072769772
   35     0.02175961897095     0.00201421430908     0.00663312871521     0.01203559592268     0.00164436821420
   36     0.00000731781825     0.00000926352060     0.00012816795519     0.00000067138187     0.00000046184946
   37     0.00000004715907     0.00000009863507     0.00000035880652     0.00000000267971     0.00000000573486
   38     0.00000411588173     0.00000859857249     0.00000236115187     0.00000015329168     0.00000029574169
   39     0.00000085037786     0.00000152561660     0.00000176676908     0.00000006062967     0.00000006123398
   40     0.00000106874592     0.00000587751164     0.00000613265723     0.00000007660431     0.00000003343039
   41     0.00001300227997     0.00003366825417     0.00001001102546     0.00000036760737     0.00000047284804
   42     0.00000002750790     0.00000043584121     0.00000018536359     0.00000000215903     0.00000000659526
   43     0.00000001177442     0.00000001457412     0.00000003730807     0.00000000096145     0.00000000032295
   44     0.00000000279911     0.00000001367986     0.00000001498896     0.00000000030209     0.00000000086813
   45     0.00000000954627     0.00000000797850     0.00000047720637     0.00000000114542     0.00000000055140
   46     0.00000008851019     0.00000031738595     0.00000333425933     0.00000000860745     0.00000001221542
   47     0.00000047180120     0.00000177302557     0.00000199194734     0.00000001487486     0.00000004559262
   48     0.00003040231293     0.00000451318601     0.00016286527301     0.00000070163947     0.00000032690968
   49     0.00001849683118     0.00001494513604     0.00065785982570     0.00000198451812     0.00000293644463
   50     0.00025995778440     0.00011519541507     0.00230287262937     0.00003881632507     0.00001333950349
   51     0.00008731808245     0.00003070133600     0.00107173017920     0.00002585642391     0.00001074347250
   52     0.00002804138124     0.00001592084423     0.00025802749243     0.00000201796253     0.00000141548764
   53     0.00100616366203     0.00014639399785     0.00058385812658     0.00006416669127     0.00002492876922
   54     0.00085634877463     0.00024610049034     0.00049964293588     0.00006327797993     0.00001940025055
   55     0.02596486182395     0.00617344935230     0.00848469610659     0.00053994194704     0.00015046083629
   56     0.00000000000000     0.00952744683227     0.01873795597540     0.00690154067503     0.00144951550469
   57     0.00952744683227     0.00000000000000     0.01923919750772     0.00315179881985     0.00723915753054
   58     0.01873795597540     0.01923919750772     0.00000000000000     0.00090869658150     0.00103248758987
   59     0.00690154067503     0.00315179881985     0.00090869658150     0.00000000000000     0.03482126327523
   60     0.00144951550469     0.00723915753054     0.00103248758987     0.03482126327523     0.00000000000000
   61     0.00057649272200     0.00118333021532     0.00066295978170     0.03490358022416     0.03778540684086
   62     0.00042854755324     0.00123372955089     0.00086657981793     0.00300971111503     0.00115720476685
   63     0.00082068044473     0.00092038041854     0.00493325447935     0.00091951282463     0.00066837595812
   64     0.00576408911679     0.00037367096936     0.00082899316449     0.00627399869744     0.00053467973694
   65     0.00100645438618     0.00060841140976     0.00030966785286     0.00036854551602     0.00025417467586
   66     0.00000000417861     0.00000001482806     0.00000011379267     0.00000000060708     0.00000000115293
   67     0.00000000711849     0.00000001315110     0.00000022037908     0.00000000067819     0.00000000034137
   68     0.00000000402410     0.00000000571387     0.00000003707329     0.00000000013734     0.00000000025101

                61                  62                  63                  64                  65

    1     0.00000089250937     0.00000039361298     0.00000411024026     0.00000363683447     0.00000064885011
    2     0.00000023232069     0.00000015383369     0.00000091948660     0.00000079583299     0.00000028577611
    3     0.00000012934388     0.00000015686012     0.00000097204387     0.00000097405142     0.00000043378572
    4     0.00000056444097     0.00000100261830     0.00000379903082     0.00000345064223     0.00000192590275
    5     0.00000061833344     0.00000122348425     0.00000918059186     0.00000761830788     0.00000331566528
    6     0.00000327306685     0.00000417407023     0.00002187667945     0.00003151283948     0.00000647362311
    7     0.00000001550250     0.00000002274910     0.00000008948969     0.00000007051513     0.00000003529186
    8     0.00000001655272     0.00000001491882     0.00000009290489     0.00000014134431     0.00000003394028
    9     0.00000000216628     0.00000000479352     0.00000000730967     0.00000001108017     0.00000000709325
   10     0.00000000189012     0.00000000285372     0.00000002504572     0.00000002655197     0.00000001070934
   11     0.00000000403110     0.00000000358379     0.00000001845732     0.00000001340670     0.00000000791481
   12     0.00000001650684     0.00000000889282     0.00000003062745     0.00000004176557     0.00000007096314
   13     0.00000000288390     0.00000000864650     0.00000002496453     0.00000000757875     0.00000000780478
   14     0.00000003447809     0.00000003343971     0.00000017465393     0.00000012033059     0.00000003211813
   15     0.00000001440307     0.00000005486128     0.00000011420066     0.00000046561755     0.00000007044464
   16     0.00000000657061     0.00000002152457     0.00000021183987     0.00000010468924     0.00000002821214
   17     0.00000003238145     0.00000011157937     0.00000085296359     0.00000075000440     0.00000019365224
   18     0.00000007926959     0.00000045078138     0.00000322378523     0.00000175262170     0.00000060783574
   19     0.00000003450310     0.00000013273445     0.00000106996262     0.00000093991699     0.00000021699682
   20     0.00000033608271     0.00000135631121     0.00001714924053     0.00001003839676     0.00000383358726
   21     0.00000075045378     0.00000284103523     0.00004754782658     0.00002359399323     0.00000888102215
   22     0.00000981098418     0.00004105331317     0.00060745150621     0.00023125388626     0.00007289131990
   23     0.00002105405353     0.00006323207776     0.00120176929876     0.00010432138457     0.00005974401881
   24     0.00003827191386     0.00010054246102     0.00176992814110     0.00050892332839     0.00031875813217
   25     0.00008806319002     0.00048464947700     0.00868726572024     0.00179188581340     0.00334535088968
   26     0.00007479957083     0.00061562907861     0.01991903450775     0.00087719098075     0.00210702820163
   27     0.00002103772427     0.00020586688315     0.00513358659617     0.00031904752537     0.00014711836442
   28     0.00012442400202     0.00114210429749     0.00701542224145     0.01175748209334     0.02453748699265
   29     0.00061050688643     0.01170926726331     0.01302485159862     0.06249820769816     0.05118459700664
   30     0.00168772084593     0.00231749677789     0.00765026059263     0.02174332251835     0.01397609273986
   31     0.01275716875739     0.01382361162964     0.01977438850656     0.00792868308947     0.00196887720809
   32     0.06305506501792     0.05467474719840     0.05856205465154     0.01297691051496     0.01296623491811
   33     0.91988091114648     0.02130380661067     0.01214216166192     0.01310610637508     0.00134423210489
   34     0.01928550777353     0.86626538361847     0.79813758567857     0.04856765784764     0.05631358541062
   35     0.00368080001006     0.05830952325688     0.04628116375204     0.80681692645591     0.83830688843299
   36     0.00000034774233     0.00000167877797     0.00003136366218     0.00001758101579     0.00000360928914
   37     0.00000000281092     0.00000000679835     0.00000002689672     0.00000003097702     0.00000000849157
   38     0.00000022522096     0.00000004083188     0.00000080143038     0.00000047717867     0.00000003799876
   39     0.00000001745003     0.00000002192251     0.00000007197097     0.00000005111612     0.00000001948842
   40     0.00000010838090     0.00000005259199     0.00000040792971     0.00000042803370     0.00000026375535
   41     0.00000208737736     0.00000157899568     0.00000786448181     0.00000957470059     0.00000158697243
   42     0.00000000438043     0.00000000137229     0.00000002097305     0.00000001453631     0.00000000413351
   43     0.00000000026143     0.00000000060790     0.00000000198597     0.00000000101093     0.00000000066647
   44     0.00000000036266     0.00000000101986     0.00000000566745     0.00000000371430     0.00000000116500
   45     0.00000000026803     0.00000000285820     0.00000004591976     0.00000000740794     0.00000000706466
   46     0.00000000326815     0.00000001176702     0.00000032707881     0.00000001977829     0.00000008059825
   47     0.00000003239754     0.00000001183905     0.00000015239820     0.00000016858294     0.00000005920695
   48     0.00000046527938     0.00000085770068     0.00001122118908     0.00000477046380     0.00000154139282
   49     0.00000140387905     0.00000254981572     0.00004042986849     0.00001239392651     0.00001306718274
   50     0.00000480753824     0.00001517370477     0.00009076079571     0.00014243884037     0.00008174408463
   51     0.00002280746574     0.00022584745605     0.00560997438772     0.00013653244447     0.00100904249480
   52     0.00000107576730     0.00001673971209     0.00041912778816     0.00003702066009     0.00001309963685
   53     0.00002339801526     0.00033000729734     0.00033030346356     0.00039753115543     0.00117453040464
   54     0.00001862193251     0.00014977589894     0.00175677778960     0.00118043390129     0.01030890788503
   55     0.00021451450942     0.00033720538114     0.00046083980899     0.00086042394577     0.00128631448207
   56     0.00057649272200     0.00042854755324     0.00082068044473     0.00576408911679     0.00100645438618
   57     0.00118333021532     0.00123372955089     0.00092038041854     0.00037367096936     0.00060841140976
   58     0.00066295978170     0.00086657981793     0.00493325447935     0.00082899316449     0.00030966785286
   59     0.03490358022416     0.00300971111503     0.00091951282463     0.00627399869744     0.00036854551602
   60     0.03778540684086     0.00115720476685     0.00066837595812     0.00053467973694     0.00025417467586
   61     0.00000000000000     0.00671944383331     0.00104370328133     0.00138554062554     0.00010191237688
   62     0.00671944383331     0.00000000000000     0.02021789115604     0.00862574464076     0.00547324770095
   63     0.00104370328133     0.02021789115604     0.00000000000000     0.01864955511546     0.00827433236752
   64     0.00138554062554     0.00862574464076     0.01864955511546     0.00000000000000     0.01785047150101
   65     0.00010191237688     0.00547324770095     0.00827433236752     0.01785047150101     0.00000000000000
   66     0.00000000062286     0.00000000193671     0.00000001077884     0.00000002402991     0.00000000305246
   67     0.00000000064836     0.00000000220238     0.00000000605732     0.00000001954744     0.00000000409405
   68     0.00000000028791     0.00000000113193     0.00000000238721     0.00000000058643     0.00000000140739

                66                  67                  68

    1     0.00000073779568     0.00000096403432     0.00000024891900
    2     0.00000192921770     0.00000269386721     0.00000066966032
    3     0.00001178365256     0.00000967244112     0.00000381743480
    4     0.00000853297641     0.00000821874766     0.00000784555840
    5     0.00000061046772     0.00000077515218     0.00000045976851
    6     0.00000036916545     0.00000113349708     0.00000015174185
    7     0.00004436848555     0.00004369482157     0.00001437978494
    8     0.00007667132081     0.00010655240494     0.00000518468852
    9     0.00004238875791     0.00003983613075     0.00000423786796
   10     0.00025364622631     0.00028965290680     0.00003124335728
   11     0.00078594164246     0.00087868795526     0.00022916528675
   12     0.00026539665063     0.00028575280020     0.00006125536863
   13     0.00941852480196     0.00974531444071     0.00199109397148
   14     0.01642743667703     0.01662107024493     0.00894999081563
   15     0.05729018114896     0.05875763268604     0.05986711759462
   16     0.01487396431589     0.01523475428707     0.02374295331664
   17     0.00125485743442     0.00125773210221     0.00189926303193
   18     0.00287391604124     0.00286852665083     0.00055053798036
   19     0.00120248289914     0.00127010735913     0.00109604145552
   20     0.00036536202861     0.00034347196151     0.00008250858171
   21     0.00020586421259     0.00020931274303     0.00003003370698
   22     0.00001160081198     0.00001517778353     0.00000678598786
   23     0.00001403431303     0.00001430475943     0.00000282071329
   24     0.00000145486769     0.00000157960107     0.00000031684756
   25     0.00000593125712     0.00000586192571     0.00000024318377
   26     0.00000105974328     0.00000135873641     0.00000029539376
   27     0.00001047696994     0.00001230354973     0.00000149786710
   28     0.00000043834024     0.00000036737904     0.00000003253850
   29     0.00000029033863     0.00000031053918     0.00000001916221
   30     0.00000005477123     0.00000006343349     0.00000001129496
   31     0.00000005507386     0.00000006582807     0.00000002136884
   32     0.00000001147972     0.00000001197554     0.00000000506604
   33     0.00000000331377     0.00000000384378     0.00000000193169
   34     0.00000001469978     0.00000001811026     0.00000000530631
   35     0.00000002768044     0.00000004118003     0.00000000661141
   36     0.00012185678874     0.00012544077733     0.00001554192213
   37     0.91884641997132     0.91932593070803     0.92068273572209
   38     0.00000009160391     0.00000008799328     0.00000003941870
   39     0.00000027449494     0.00000026803048     0.00000009952972
   40     0.00000676387900     0.00000757724294     0.00000709100986
   41     0.00000005504675     0.00000006042200     0.00000003841785
   42     0.00000331856018     0.00000424128833     0.00000044788374
   43     0.00000285132545     0.00000289992522     0.00000064415070
   44     0.00503023403243     0.00403071617060     0.00103128825696
   45     0.00122486126880     0.00124618213113     0.00766756086464
   46     0.00021075939320     0.00021352041649     0.00012842737490
   47     0.00018110614056     0.00018372986262     0.00035011240621
   48     0.00003766410051     0.00004315083860     0.00003872732698
   49     0.00000439269554     0.00000407964398     0.00000102350482
   50     0.00000006643848     0.00000012154040     0.00000004428529
   51     0.00000019606638     0.00000012809486     0.00000007490917
   52     0.00000089506134     0.00000077653380     0.00000044806166
   53     0.00000005070320     0.00000006713771     0.00000001237496
   54     0.00000007279416     0.00000008729489     0.00000000795758
   55     0.00000001706311     0.00000001824320     0.00000000663674
   56     0.00000000417861     0.00000000711849     0.00000000402410
   57     0.00000001482806     0.00000001315110     0.00000000571387
   58     0.00000011379267     0.00000022037908     0.00000003707329
   59     0.00000000060708     0.00000000067819     0.00000000013734
   60     0.00000000115293     0.00000000034137     0.00000000025101
   61     0.00000000062286     0.00000000064836     0.00000000028791
   62     0.00000000193671     0.00000000220238     0.00000000113193
   63     0.00000001077884     0.00000000605732     0.00000000238721
   64     0.00000002402991     0.00000001954744     0.00000000058643
   65     0.00000000305246     0.00000000409405     0.00000000140739
   66     0.00000000000000     0.03543004866976     0.03903193534445
   67     0.03543004866976     0.00000000000000     0.03911756008736
   68     0.03903193534445     0.03911756008736     0.00000000000000



  Atomic Valences: 

 #  #
 Irrep: 1
      1:  4.3915316
      2:  4.4220919
      3:  4.6039575
      4:  4.5816488
      5:  3.9241547
      6:  4.5488920
      7:  4.7434034
      8:  4.3678495
      9:  4.5224128
     10:  3.8657726
     11:  5.0034945
     12:  3.9635100
     13:  4.0366919
     14:  4.6637618
     15:  4.6239819
     16:  4.4366880
     17:  4.4010883
     18:  4.6702953
     19:  4.4261959
     20:  4.0833027
     21:  5.0021746
     22:  4.6226167
     23:  4.4659314
     24:  4.4871973
     25:  4.7160812
     26:  4.4795915
     27:  4.4361565
     28:  4.5005975
     29:  4.2403882
     30:  4.5613616
     31:  4.5703368
     32:  4.2206332
     33:  4.2811562
     34:  4.5826839
     35:  4.5665422
     36:  2.7558697
     37:  4.1496324
     38:  1.0979667
     39:  1.1009363
     40:  1.1124352
     41:  1.0934081
     42:  1.1092069
     43:  1.0859966
     44:  1.1751371
     45:  1.0999136
     46:  1.1065386
     47:  1.1352210
     48:  1.1857594
     49:  1.1147563
     50:  1.1124474
     51:  1.1093620
     52:  1.0976105
     53:  1.1060418
     54:  1.1195272
     55:  1.1393780
     56:  1.0457133
     57:  1.0634225
     58:  1.0647420
     59:  1.1316985
     60:  1.1072887
     61:  1.1059945
     62:  1.0798828
     63:  1.0652266
     64:  1.0524007
     65:  1.0548172
     66:  1.1055845
     67:  1.1077640
     68:  1.1066542


    Psi4 stopped on: Tuesday, 14 April 2020 01:10PM
    Psi4 wall time for execution: 0:25:15.79

*** Psi4 exiting successfully. Buy a developer a beer!
