
    -----------------------------------------------------------------------
          Psi4: An Open-Source Ab Initio Electronic Structure Package
                               Psi4 1.3.2 release

                         Git: Rev {HEAD} ecbda83 


    R. M. Parrish, L. A. Burns, D. G. A. Smith, A. C. Simmonett,
    A. E. DePrince III, E. G. Hohenstein, U. Bozkaya, A. Yu. Sokolov,
    R. Di Remigio, R. M. Richard, J. F. Gonthier, A. M. James,
    H. R. McAlexander, A. Kumar, M. Saitow, X. Wang, B. P. Pritchard,
    P. Verma, H. F. Schaefer III, K. Patkowski, R. A. King, E. F. Valeev,
    F. A. Evangelista, J. M. Turney, T. D. Crawford, and C. D. Sherrill,
    J. Chem. Theory Comput. 13(7) pp 3185--3197 (2017).
    (doi: 10.1021/acs.jctc.7b00174)


                         Additional Contributions by
    P. Kraus, H. Kruse, M. H. Lechner, M. C. Schieber, R. A. Shaw,
    A. Alenaizan, R. Galvelis, Z. L. Glick, S. Lehtola, and J. P. Misiewicz

    -----------------------------------------------------------------------


    Psi4 started on: Wednesday, 18 March 2020 02:07PM

    Process ID: 61975
    Host:       node50.bme.utexas.edu
    PSIDATADIR: /home/bdw2292/miniconda3/envs/p4env/share/psi4
    Memory:     500.0 MiB
    Threads:    1
    
  ==> Input File <==

--------------------------------------------------------------------------
molecule { 
0 1
 C   -1.400973    5.014842   -0.330504
 C   -2.713681    4.525176   -0.291451
 C   -2.946015    3.143056   -0.146711
 C   -1.787378    2.336396   -0.021666
 N   -0.525380    2.783523   -0.048591
 C   -0.345687    4.103563   -0.208309
 C   -4.324059    2.528743   -0.099258
 C   -5.537563    3.234902   -0.094025
 C   -6.694133    2.452136   -0.001263
 N   -6.701622    1.123344    0.061388
 C   -5.491908    0.526368    0.020913
 N   -4.330851    1.182795   -0.055670
 N   -5.505193   -0.860430    0.061004
 C   -4.461727   -1.854014    0.137365
 C   -4.779702   -3.181744    0.555033
 C   -3.719190   -4.101229    0.631269
 C   -2.389949   -3.789668    0.320274
 C   -2.098945   -2.492107   -0.112964
 C   -3.136190   -1.549951   -0.195407
 N   -0.807392   -1.995075   -0.480799
 C    0.445842   -2.549413   -0.370515
 C    1.631654   -1.659794   -0.692465
 C    2.742195   -2.242310   -1.325063
 C    3.845941   -1.461554   -1.676213
 C    3.885348   -0.080578   -1.404723
 C    2.767979    0.488777   -0.765449
 C    1.662520   -0.284344   -0.405401
 C    5.104452    0.766655   -1.771741
 N    6.198558    0.914771   -0.795995
 C    7.052690   -0.257845   -0.500594
 C    6.644993   -1.070369    0.755581
 N    6.469872   -0.258536    1.982146
 C    7.689788    0.066813    2.730580
 C    5.556740    0.868993    1.682242
 C    5.954126    1.700469    0.435103
 O    0.621015   -3.714303   -0.049486
 C   -6.181075   -3.625462    0.938127
 H   -1.199665    6.075029   -0.452763
 H   -3.530909    5.234562   -0.393493
 H   -1.888258    1.268574    0.138395
 H    0.688624    4.443400   -0.230763
 H   -5.612106    4.314984   -0.124229
 H   -7.675231    2.925502    0.029071
 H   -6.455175   -1.186188    0.158713
 H   -3.922336   -5.120583    0.957690
 H   -1.600104   -4.526925    0.398748
 H   -2.919446   -0.548801   -0.530713
 H   -0.816246   -1.053903   -0.848267
 H    2.720964   -3.308297   -1.537927
 H    4.692170   -1.944843   -2.163963
 H    2.754724    1.552916   -0.529999
 H    0.815058    0.184234    0.090126
 H    5.548033    0.354175   -2.690023
 H    4.758390    1.780720   -2.018953
 H    7.153547   -0.887725   -1.377661
 H    8.492889    0.299705   -0.180600
 H    7.538480   -2.005403    0.982519
 H    5.388474   -1.714724    0.491788
 H    8.348507    0.719455    2.146637
 H    8.234476   -0.850352    2.982295
 H    7.433517    0.571848    3.668932
 H    5.474366    1.610467    2.686341
 H    4.261719    0.308593    1.449637
 H    7.314225    2.389287    0.812193
 H    5.226318    2.519694    0.237979
 H   -6.863610   -3.582325    0.077681
 H   -6.603994   -2.988864    1.728049
 H   -6.216100   -4.656354    1.316743
}
memory 20GB
set_num_threads(6)
psi4_io.set_default_path("/scratch/bdw2292")
set freeze_core True
E, wfn = energy('mp2/6-311++G**',return_wfn=True)
oeprop(wfn,"WIBERG_LOWDIN_INDICES")
clean()
--------------------------------------------------------------------------

  Memory set to  18.626 GiB by Python driver.
  Threads set to 6 by Python driver.
    SCF Algorithm Type (re)set to DF.

*** tstart() called on node50.bme.utexas.edu
*** at Wed Mar 18 14:07:32 2020

   => Loading Basis Set <=

    Name: 6-311++G**
    Role: ORBITAL
    Keyword: BASIS
    atoms 1-4, 6-9, 11, 14-19, 21-28, 30-31, 33-35, 37 entry C          line   119 file /home/bdw2292/miniconda3/envs/p4env/share/psi4/basis/6-311ppgss.gbs 
    atoms 5, 10, 12-13, 20, 29, 32                     entry N          line   140 file /home/bdw2292/miniconda3/envs/p4env/share/psi4/basis/6-311ppgss.gbs 
    atoms 36                                           entry O          line   161 file /home/bdw2292/miniconda3/envs/p4env/share/psi4/basis/6-311ppgss.gbs 
    atoms 38-68                                        entry H          line    42 file /home/bdw2292/miniconda3/envs/p4env/share/psi4/basis/6-311ppgss.gbs 


         ---------------------------------------------------------
                                   SCF
               by Justin Turney, Rob Parrish, Andy Simmonett
                          and Daniel G. A. Smith
                              RHF Reference
                        6 Threads,  19073 MiB Core
         ---------------------------------------------------------

  ==> Geometry <==

    Molecular point group: c1
    Full point group: C1

    Geometry (in Angstrom), charge = 0, multiplicity = 1:

       Center              X                  Y                   Z               Mass       
    ------------   -----------------  -----------------  -----------------  -----------------
         C           -1.284742903705     5.010914251096    -0.310603188324    12.000000000000
         C           -2.597450903705     4.521248251096    -0.271550188324    12.000000000000
         C           -2.829784903705     3.139128251096    -0.126810188324    12.000000000000
         C           -1.671147903705     2.332468251096    -0.001765188324    12.000000000000
         N           -0.409149903705     2.779595251096    -0.028690188324    14.003074004430
         C           -0.229456903705     4.099635251096    -0.188408188324    12.000000000000
         C           -4.207828903705     2.524815251096    -0.079357188324    12.000000000000
         C           -5.421332903705     3.230974251096    -0.074124188324    12.000000000000
         C           -6.577902903705     2.448208251096     0.018637811676    12.000000000000
         N           -6.585391903705     1.119416251096     0.081288811676    14.003074004430
         C           -5.375677903705     0.522440251096     0.040813811676    12.000000000000
         N           -4.214620903705     1.178867251096    -0.035769188324    14.003074004430
         N           -5.388962903705    -0.864357748904     0.080904811676    14.003074004430
         C           -4.345496903705    -1.857941748904     0.157265811676    12.000000000000
         C           -4.663471903705    -3.185671748904     0.574933811676    12.000000000000
         C           -3.602959903705    -4.105156748904     0.651169811676    12.000000000000
         C           -2.273718903705    -3.793595748904     0.340174811676    12.000000000000
         C           -1.982714903705    -2.496034748904    -0.093063188324    12.000000000000
         C           -3.019959903705    -1.553878748904    -0.175506188324    12.000000000000
         N           -0.691161903705    -1.999002748904    -0.460898188324    14.003074004430
         C            0.562072096295    -2.553340748904    -0.350614188324    12.000000000000
         C            1.747884096295    -1.663721748904    -0.672564188324    12.000000000000
         C            2.858425096295    -2.246237748904    -1.305162188324    12.000000000000
         C            3.962171096295    -1.465481748904    -1.656312188324    12.000000000000
         C            4.001578096295    -0.084505748904    -1.384822188324    12.000000000000
         C            2.884209096295     0.484849251096    -0.745548188324    12.000000000000
         C            1.778750096295    -0.288271748904    -0.385500188324    12.000000000000
         C            5.220682096295     0.762727251096    -1.751840188324    12.000000000000
         N            6.314788096295     0.910843251096    -0.776094188324    14.003074004430
         C            7.168920096295    -0.261772748904    -0.480693188324    12.000000000000
         C            6.761223096295    -1.074296748904     0.775481811676    12.000000000000
         N            6.586102096295    -0.262463748904     2.002046811676    14.003074004430
         C            7.806018096295     0.062885251096     2.750480811676    12.000000000000
         C            5.672970096295     0.865065251096     1.702142811676    12.000000000000
         C            6.070356096295     1.696541251096     0.455003811676    12.000000000000
         O            0.737245096295    -3.718230748904    -0.029585188324    15.994914619570
         C           -6.064844903705    -3.629389748904     0.958027811676    12.000000000000
         H           -1.083434903705     6.071101251096    -0.432862188324     1.007825032230
         H           -3.414678903705     5.230634251096    -0.373592188324     1.007825032230
         H           -1.772027903705     1.264646251096     0.158295811676     1.007825032230
         H            0.804854096295     4.439472251096    -0.210862188324     1.007825032230
         H           -5.495875903705     4.311056251096    -0.104328188324     1.007825032230
         H           -7.559000903705     2.921574251096     0.048971811676     1.007825032230
         H           -6.338944903705    -1.190115748904     0.178613811676     1.007825032230
         H           -3.806105903705    -5.124510748904     0.977590811676     1.007825032230
         H           -1.483873903705    -4.530852748904     0.418648811676     1.007825032230
         H           -2.803215903705    -0.552728748904    -0.510812188324     1.007825032230
         H           -0.700015903705    -1.057830748904    -0.828366188324     1.007825032230
         H            2.837194096295    -3.312224748904    -1.518026188324     1.007825032230
         H            4.808400096295    -1.948770748904    -2.144062188324     1.007825032230
         H            2.870954096295     1.548988251096    -0.510098188324     1.007825032230
         H            0.931288096295     0.180306251096     0.110026811676     1.007825032230
         H            5.664263096295     0.350247251096    -2.670122188324     1.007825032230
         H            4.874620096295     1.776792251096    -1.999052188324     1.007825032230
         H            7.269777096295    -0.891652748904    -1.357760188324     1.007825032230
         H            8.609119096295     0.295777251096    -0.160699188324     1.007825032230
         H            7.654710096295    -2.009330748904     1.002419811676     1.007825032230
         H            5.504704096295    -1.718651748904     0.511688811676     1.007825032230
         H            8.464737096295     0.715527251096     2.166537811676     1.007825032230
         H            8.350706096295    -0.854279748904     3.002195811676     1.007825032230
         H            7.549747096295     0.567920251096     3.688832811676     1.007825032230
         H            5.590596096295     1.606539251096     2.706241811676     1.007825032230
         H            4.377949096295     0.304665251096     1.469537811676     1.007825032230
         H            7.430455096295     2.385359251096     0.832093811676     1.007825032230
         H            5.342548096295     2.515766251096     0.257879811676     1.007825032230
         H           -6.747379903705    -3.586252748904     0.097581811676     1.007825032230
         H           -6.487763903705    -2.992791748904     1.747949811676     1.007825032230
         H           -6.099869903705    -4.660281748904     1.336643811676     1.007825032230

  Running in c1 symmetry.

  Rotational constants: A =      0.00496  B =      0.00161  C =      0.00129 [cm^-1]
  Rotational constants: A =    148.79564  B =     48.16867  C =     38.74477 [MHz]
  Nuclear repulsion = 3695.094852696274756

  Charge       = 0
  Multiplicity = 1
  Electrons    = 262
  Nalpha       = 131
  Nbeta        = 131

  ==> Algorithm <==

  SCF Algorithm Type is DF.
  DIIS enabled.
  MOM disabled.
  Fractional occupation disabled.
  Guess Type is SAD.
  Energy threshold   = 1.00e-08
  Density threshold  = 1.00e-08
  Integral threshold = 0.00e+00

  ==> Primary Basis <==

  Basis Set: 6-311++G**
    Blend: 6-311++G**
    Number of shells: 525
    Number of basis function: 1031
    Number of Cartesian functions: 1068
    Spherical Harmonics?: true
    Max angular momentum: 2

   => Loading Basis Set <=

    Name: (6-311++G** AUX)
    Role: JKFIT
    Keyword: DF_BASIS_SCF
    atoms 1-4, 6-9, 11, 14-19, 21-28, 30-31, 33-35, 37 entry C          line   162 file /home/bdw2292/miniconda3/envs/p4env/share/psi4/basis/aug-cc-pvtz-jkfit.gbs 
    atoms 5, 10, 12-13, 20, 29, 32                     entry N          line   224 file /home/bdw2292/miniconda3/envs/p4env/share/psi4/basis/aug-cc-pvtz-jkfit.gbs 
    atoms 36                                           entry O          line   286 file /home/bdw2292/miniconda3/envs/p4env/share/psi4/basis/aug-cc-pvtz-jkfit.gbs 
    atoms 38-68                                        entry H          line    70 file /home/bdw2292/miniconda3/envs/p4env/share/psi4/basis/aug-cc-pvtz-jkfit.gbs 

  ==> Pre-Iterations <==

   -------------------------------------------------------
    Irrep   Nso     Nmo     Nalpha   Nbeta   Ndocc  Nsocc
   -------------------------------------------------------
     A       1031    1031       0       0       0       0
   -------------------------------------------------------
    Total    1031    1031     131     131     131       0
   -------------------------------------------------------

  ==> Integral Setup <==

  ==> DiskDFJK: Density-Fitted J/K Matrices <==

    J tasked:                  Yes
    K tasked:                  Yes
    wK tasked:                  No
    OpenMP threads:              6
    Integrals threads:           6
    Memory [MiB]:            14305
    Algorithm:                Core
    Integral Cache:           NONE
    Schwarz Cutoff:          1E-12
    Fitting Condition:       1E-10

   => Auxiliary Basis Set <=

  Basis Set: (6-311++G** AUX)
    Blend: AUG-CC-PVTZ-JKFIT
    Number of shells: 1544
    Number of basis function: 5274
    Number of Cartesian functions: 6552
    Spherical Harmonics?: true
    Max angular momentum: 4

  Minimum eigenvalue in the overlap matrix is 1.1534708963E-07.
  Using Symmetric Orthogonalization.

  SCF Guess: Superposition of Atomic Densities via on-the-fly atomic UHF.

  ==> Iterations <==

                           Total Energy        Delta E     RMS |[F,P]|

   @DF-RHF iter SAD: -1571.20529844320868   -1.57121e+03   0.00000e+00 
   @DF-RHF iter   1: -1571.34674887275582   -1.41450e-01   1.21152e-03 DIIS
   @DF-RHF iter   2: -1572.11204107132653   -7.65292e-01   6.40642e-04 DIIS
   @DF-RHF iter   3: -1572.30526069771781   -1.93220e-01   1.66767e-04 DIIS
   @DF-RHF iter   4: -1572.32271305514064   -1.74524e-02   6.67371e-05 DIIS
   @DF-RHF iter   5: -1572.32540011795368   -2.68706e-03   1.37954e-05 DIIS
   @DF-RHF iter   6: -1572.32556217610659   -1.62058e-04   6.02648e-06 DIIS
   @DF-RHF iter   7: -1572.32559933048128   -3.71544e-05   1.99016e-06 DIIS
   @DF-RHF iter   8: -1572.32560499982264   -5.66934e-06   7.78036e-07 DIIS
   @DF-RHF iter   9: -1572.32560590637490   -9.06552e-07   3.19949e-07 DIIS
   @DF-RHF iter  10: -1572.32560608557560   -1.79201e-07   1.44785e-07 DIIS
   @DF-RHF iter  11: -1572.32560612335806   -3.77825e-08   6.81079e-08 DIIS
   @DF-RHF iter  12: -1572.32560613338228   -1.00242e-08   2.75892e-08 DIIS
   @DF-RHF iter  13: -1572.32560613538067   -1.99839e-09   1.16588e-08 DIIS
   @DF-RHF iter  14: -1572.32560613596570   -5.85032e-10   5.53739e-09 DIIS
  Energy and wave function converged.


  ==> Post-Iterations <==

    Orbital Energies [Eh]
    ---------------------

    Doubly Occupied:                                                      

       1A    -20.521046     2A    -15.604526     3A    -15.602250  
       4A    -15.588386     5A    -15.575167     6A    -15.571673  
       7A    -15.569817     8A    -15.554118     9A    -11.376264  
      10A    -11.363981    11A    -11.335351    12A    -11.315050  
      13A    -11.309697    14A    -11.309455    15A    -11.306517  
      16A    -11.304583    17A    -11.302501    18A    -11.301779  
      19A    -11.301670    20A    -11.293098    21A    -11.290276  
      22A    -11.281485    23A    -11.280027    24A    -11.266662  
      25A    -11.257387    26A    -11.257149    27A    -11.253371  
      28A    -11.253184    29A    -11.250008    30A    -11.247674  
      31A    -11.246244    32A    -11.246057    33A    -11.243502  
      34A    -11.240302    35A    -11.235718    36A    -11.231147  
      37A    -11.225429    38A     -1.386621    39A     -1.345268  
      40A     -1.279672    41A     -1.251562    42A     -1.244978  
      43A     -1.241862    44A     -1.210609    45A     -1.199256  
      46A     -1.162005    47A     -1.140071    48A     -1.116781  
      49A     -1.076200    50A     -1.060044    51A     -1.049398  
      52A     -1.038196    53A     -1.023965    54A     -1.008333  
      55A     -0.994954    56A     -0.976397    57A     -0.946237  
      58A     -0.927459    59A     -0.926374    60A     -0.901546  
      61A     -0.873614    62A     -0.866325    63A     -0.858855  
      64A     -0.842586    65A     -0.837508    66A     -0.830265  
      67A     -0.825441    68A     -0.806070    69A     -0.778615  
      70A     -0.754829    71A     -0.739825    72A     -0.731699  
      73A     -0.722644    74A     -0.700014    75A     -0.695128  
      76A     -0.683738    77A     -0.677974    78A     -0.668592  
      79A     -0.659986    80A     -0.657645    81A     -0.652355  
      82A     -0.645668    83A     -0.638049    84A     -0.629664  
      85A     -0.623750    86A     -0.618924    87A     -0.612845  
      88A     -0.607440    89A     -0.603131    90A     -0.601404  
      91A     -0.599500    92A     -0.596342    93A     -0.592373  
      94A     -0.591123    95A     -0.587681    96A     -0.581320  
      97A     -0.579196    98A     -0.570756    99A     -0.563472  
     100A     -0.562464   101A     -0.548228   102A     -0.545336  
     103A     -0.538151   104A     -0.526004   105A     -0.524110  
     106A     -0.521901   107A     -0.513639   108A     -0.509386  
     109A     -0.507193   110A     -0.499102   111A     -0.498629  
     112A     -0.492277   113A     -0.485479   114A     -0.481462  
     115A     -0.461338   116A     -0.452960   117A     -0.444087  
     118A     -0.429734   119A     -0.426953   120A     -0.424246  
     121A     -0.415474   122A     -0.401277   123A     -0.387974  
     124A     -0.378568   125A     -0.374424   126A     -0.347217  
     127A     -0.345677   128A     -0.341075   129A     -0.315353  
     130A     -0.309039   131A     -0.290842  

    Virtual:                                                              

     132A      0.025671   133A      0.033765   134A      0.040636  
     135A      0.041101   136A      0.044285   137A      0.046720  
     138A      0.050288   139A      0.055992   140A      0.057504  
     141A      0.060937   142A      0.063530   143A      0.066557  
     144A      0.067894   145A      0.068579   146A      0.071754  
     147A      0.073637   148A      0.077113   149A      0.081364  
     150A      0.082472   151A      0.085552   152A      0.088853  
     153A      0.089417   154A      0.091443   155A      0.096149  
     156A      0.097623   157A      0.099199   158A      0.101668  
     159A      0.102105   160A      0.108569   161A      0.110170  
     162A      0.112416   163A      0.113701   164A      0.115105  
     165A      0.116627   166A      0.119199   167A      0.121629  
     168A      0.122724   169A      0.125400   170A      0.127243  
     171A      0.132684   172A      0.137010   173A      0.141608  
     174A      0.143426   175A      0.147186   176A      0.147353  
     177A      0.148518   178A      0.149271   179A      0.152243  
     180A      0.154398   181A      0.158082   182A      0.159739  
     183A      0.162257   184A      0.165149   185A      0.165824  
     186A      0.168062   187A      0.168329   188A      0.170631  
     189A      0.173378   190A      0.174492   191A      0.175614  
     192A      0.178619   193A      0.179835   194A      0.181273  
     195A      0.183993   196A      0.184670   197A      0.186366  
     198A      0.187557   199A      0.190593   200A      0.192376  
     201A      0.192796   202A      0.196539   203A      0.199064  
     204A      0.200644   205A      0.203183   206A      0.205792  
     207A      0.206596   208A      0.208190   209A      0.209728  
     210A      0.210566   211A      0.211005   212A      0.213866  
     213A      0.214978   214A      0.216597   215A      0.217736  
     216A      0.220037   217A      0.223219   218A      0.223956  
     219A      0.225834   220A      0.226448   221A      0.226723  
     222A      0.227449   223A      0.231459   224A      0.235030  
     225A      0.235767   226A      0.237787   227A      0.239322  
     228A      0.240580   229A      0.243496   230A      0.244226  
     231A      0.246519   232A      0.252207   233A      0.253617  
     234A      0.255433   235A      0.257743   236A      0.259707  
     237A      0.261382   238A      0.263579   239A      0.267946  
     240A      0.268288   241A      0.270881   242A      0.274826  
     243A      0.276019   244A      0.277962   245A      0.278936  
     246A      0.280174   247A      0.282056   248A      0.285472  
     249A      0.288954   250A      0.291639   251A      0.293905  
     252A      0.296030   253A      0.298733   254A      0.300860  
     255A      0.304506   256A      0.308677   257A      0.309419  
     258A      0.310376   259A      0.312743   260A      0.314891  
     261A      0.319371   262A      0.321253   263A      0.323847  
     264A      0.327391   265A      0.328625   266A      0.329851  
     267A      0.332749   268A      0.333910   269A      0.334615  
     270A      0.338083   271A      0.340258   272A      0.340888  
     273A      0.343057   274A      0.346625   275A      0.347133  
     276A      0.348963   277A      0.353320   278A      0.354150  
     279A      0.357360   280A      0.359466   281A      0.360641  
     282A      0.361767   283A      0.364045   284A      0.365737  
     285A      0.367974   286A      0.369138   287A      0.371732  
     288A      0.373694   289A      0.375087   290A      0.377904  
     291A      0.379825   292A      0.380910   293A      0.382075  
     294A      0.385695   295A      0.386940   296A      0.387439  
     297A      0.389629   298A      0.390510   299A      0.392842  
     300A      0.393262   301A      0.395787   302A      0.397571  
     303A      0.400308   304A      0.403073   305A      0.404503  
     306A      0.406182   307A      0.408083   308A      0.409302  
     309A      0.410280   310A      0.412517   311A      0.413951  
     312A      0.417478   313A      0.417796   314A      0.420510  
     315A      0.421556   316A      0.422496   317A      0.427732  
     318A      0.430652   319A      0.431084   320A      0.433889  
     321A      0.434261   322A      0.434425   323A      0.438323  
     324A      0.439347   325A      0.441543   326A      0.443847  
     327A      0.446563   328A      0.447316   329A      0.448809  
     330A      0.450436   331A      0.452257   332A      0.454692  
     333A      0.460124   334A      0.463108   335A      0.463533  
     336A      0.464323   337A      0.469549   338A      0.472276  
     339A      0.473039   340A      0.474831   341A      0.476073  
     342A      0.482036   343A      0.483987   344A      0.487301  
     345A      0.488635   346A      0.491171   347A      0.492516  
     348A      0.497546   349A      0.499222   350A      0.502821  
     351A      0.505120   352A      0.505908   353A      0.510565  
     354A      0.513726   355A      0.516649   356A      0.518516  
     357A      0.519710   358A      0.521927   359A      0.525026  
     360A      0.528622   361A      0.530411   362A      0.536536  
     363A      0.540894   364A      0.544818   365A      0.548100  
     366A      0.550528   367A      0.553414   368A      0.560929  
     369A      0.561311   370A      0.565321   371A      0.569902  
     372A      0.580335   373A      0.581587   374A      0.586228  
     375A      0.590456   376A      0.594034   377A      0.601734  
     378A      0.605838   379A      0.608776   380A      0.614996  
     381A      0.617744   382A      0.620851   383A      0.624538  
     384A      0.630807   385A      0.635367   386A      0.645928  
     387A      0.656157   388A      0.658797   389A      0.668735  
     390A      0.686102   391A      0.687859   392A      0.691157  
     393A      0.703105   394A      0.704416   395A      0.709463  
     396A      0.716231   397A      0.719796   398A      0.723928  
     399A      0.729873   400A      0.731627   401A      0.739550  
     402A      0.745011   403A      0.747438   404A      0.751490  
     405A      0.758651   406A      0.759094   407A      0.763708  
     408A      0.765045   409A      0.767505   410A      0.770908  
     411A      0.772572   412A      0.774951   413A      0.782464  
     414A      0.786467   415A      0.790848   416A      0.794558  
     417A      0.798233   418A      0.802354   419A      0.805405  
     420A      0.808540   421A      0.812205   422A      0.814386  
     423A      0.816465   424A      0.822258   425A      0.825420  
     426A      0.826768   427A      0.831876   428A      0.833964  
     429A      0.839385   430A      0.845603   431A      0.847464  
     432A      0.850959   433A      0.853316   434A      0.859174  
     435A      0.862529   436A      0.869155   437A      0.871804  
     438A      0.874217   439A      0.875384   440A      0.877617  
     441A      0.879674   442A      0.884421   443A      0.889273  
     444A      0.890508   445A      0.892413   446A      0.897021  
     447A      0.901413   448A      0.906478   449A      0.907878  
     450A      0.909444   451A      0.912560   452A      0.921557  
     453A      0.923493   454A      0.923994   455A      0.926526  
     456A      0.929581   457A      0.931640   458A      0.935068  
     459A      0.939925   460A      0.943280   461A      0.944442  
     462A      0.945654   463A      0.946640   464A      0.952626  
     465A      0.953092   466A      0.959235   467A      0.964250  
     468A      0.968388   469A      0.970021   470A      0.975293  
     471A      0.977187   472A      0.980125   473A      0.981280  
     474A      0.984698   475A      0.989571   476A      0.992093  
     477A      0.995866   478A      1.002518   479A      1.005992  
     480A      1.009914   481A      1.015844   482A      1.018785  
     483A      1.025479   484A      1.029330   485A      1.032750  
     486A      1.036503   487A      1.037663   488A      1.041807  
     489A      1.049142   490A      1.050387   491A      1.053902  
     492A      1.060438   493A      1.064362   494A      1.069455  
     495A      1.073249   496A      1.075185   497A      1.081148  
     498A      1.085001   499A      1.088860   500A      1.095341  
     501A      1.098960   502A      1.102916   503A      1.104400  
     504A      1.106114   505A      1.119584   506A      1.121872  
     507A      1.131379   508A      1.135046   509A      1.137621  
     510A      1.140332   511A      1.146567   512A      1.151412  
     513A      1.155405   514A      1.158904   515A      1.160055  
     516A      1.166030   517A      1.169134   518A      1.174593  
     519A      1.176485   520A      1.179773   521A      1.182545  
     522A      1.187678   523A      1.190485   524A      1.193165  
     525A      1.198431   526A      1.203728   527A      1.208917  
     528A      1.209716   529A      1.216345   530A      1.216670  
     531A      1.219939   532A      1.224397   533A      1.230236  
     534A      1.235609   535A      1.240760   536A      1.244621  
     537A      1.247012   538A      1.250279   539A      1.256966  
     540A      1.258058   541A      1.258975   542A      1.265421  
     543A      1.273817   544A      1.275298   545A      1.278247  
     546A      1.280168   547A      1.282810   548A      1.284797  
     549A      1.292458   550A      1.296151   551A      1.297458  
     552A      1.313219   553A      1.316678   554A      1.318501  
     555A      1.323862   556A      1.331251   557A      1.336110  
     558A      1.340509   559A      1.345940   560A      1.352428  
     561A      1.360295   562A      1.370011   563A      1.375395  
     564A      1.377471   565A      1.388743   566A      1.391465  
     567A      1.393484   568A      1.406414   569A      1.411230  
     570A      1.417424   571A      1.420208   572A      1.430659  
     573A      1.441414   574A      1.447551   575A      1.451535  
     576A      1.454957   577A      1.463133   578A      1.465586  
     579A      1.467941   580A      1.475839   581A      1.485878  
     582A      1.495631   583A      1.498909   584A      1.503961  
     585A      1.515998   586A      1.528439   587A      1.531365  
     588A      1.539397   589A      1.549222   590A      1.557904  
     591A      1.569422   592A      1.571884   593A      1.595485  
     594A      1.599279   595A      1.604835   596A      1.619585  
     597A      1.625932   598A      1.628274   599A      1.630579  
     600A      1.634584   601A      1.652639   602A      1.673749  
     603A      1.675792   604A      1.686724   605A      1.692759  
     606A      1.700586   607A      1.707862   608A      1.709584  
     609A      1.719770   610A      1.728161   611A      1.732493  
     612A      1.744401   613A      1.749431   614A      1.757278  
     615A      1.761795   616A      1.765060   617A      1.772059  
     618A      1.777493   619A      1.781233   620A      1.783691  
     621A      1.789783   622A      1.794339   623A      1.799915  
     624A      1.806516   625A      1.808775   626A      1.812364  
     627A      1.817125   628A      1.819652   629A      1.822432  
     630A      1.823056   631A      1.824543   632A      1.829081  
     633A      1.838754   634A      1.839991   635A      1.841351  
     636A      1.849631   637A      1.850233   638A      1.855483  
     639A      1.860983   640A      1.862172   641A      1.865599  
     642A      1.867556   643A      1.876349   644A      1.879171  
     645A      1.887301   646A      1.896940   647A      1.901824  
     648A      1.908802   649A      1.912152   650A      1.920825  
     651A      1.927751   652A      1.930867   653A      1.933041  
     654A      1.940356   655A      1.944414   656A      1.951914  
     657A      1.957160   658A      1.961306   659A      1.964589  
     660A      1.968401   661A      1.970482   662A      1.972818  
     663A      1.983442   664A      1.985558   665A      1.990951  
     666A      1.992572   667A      1.995097   668A      1.998546  
     669A      2.000698   670A      2.007518   671A      2.009082  
     672A      2.013727   673A      2.021682   674A      2.029168  
     675A      2.033235   676A      2.043209   677A      2.044762  
     678A      2.049662   679A      2.051501   680A      2.057521  
     681A      2.064803   682A      2.067961   683A      2.070828  
     684A      2.076301   685A      2.083303   686A      2.086719  
     687A      2.090345   688A      2.103691   689A      2.105132  
     690A      2.109971   691A      2.121618   692A      2.122599  
     693A      2.129964   694A      2.140302   695A      2.146898  
     696A      2.158818   697A      2.158931   698A      2.170407  
     699A      2.175501   700A      2.179039   701A      2.182605  
     702A      2.185052   703A      2.194121   704A      2.195868  
     705A      2.202558   706A      2.211949   707A      2.219689  
     708A      2.225197   709A      2.228604   710A      2.236785  
     711A      2.244189   712A      2.249215   713A      2.253095  
     714A      2.255298   715A      2.259023   716A      2.261923  
     717A      2.265383   718A      2.268837   719A      2.272911  
     720A      2.276114   721A      2.280903   722A      2.287073  
     723A      2.294110   724A      2.297399   725A      2.299475  
     726A      2.306626   727A      2.311415   728A      2.316090  
     729A      2.320832   730A      2.333289   731A      2.339467  
     732A      2.340679   733A      2.350049   734A      2.352032  
     735A      2.360286   736A      2.368885   737A      2.377433  
     738A      2.382058   739A      2.387387   740A      2.394659  
     741A      2.402136   742A      2.405838   743A      2.411964  
     744A      2.426028   745A      2.427281   746A      2.433100  
     747A      2.443042   748A      2.448744   749A      2.454354  
     750A      2.456024   751A      2.461286   752A      2.477254  
     753A      2.492097   754A      2.496567   755A      2.513094  
     756A      2.525844   757A      2.528264   758A      2.534810  
     759A      2.548498   760A      2.548955   761A      2.553674  
     762A      2.562818   763A      2.573152   764A      2.576826  
     765A      2.580599   766A      2.591326   767A      2.605554  
     768A      2.622139   769A      2.634228   770A      2.650168  
     771A      2.651136   772A      2.655323   773A      2.660239  
     774A      2.678327   775A      2.683638   776A      2.697315  
     777A      2.698753   778A      2.707230   779A      2.722375  
     780A      2.730200   781A      2.735497   782A      2.746300  
     783A      2.766372   784A      2.780427   785A      2.783608  
     786A      2.791123   787A      2.798211   788A      2.807511  
     789A      2.812965   790A      2.818499   791A      2.827484  
     792A      2.829362   793A      2.834071   794A      2.848183  
     795A      2.854580   796A      2.863151   797A      2.866274  
     798A      2.876775   799A      2.878570   800A      2.893170  
     801A      2.894724   802A      2.898325   803A      2.906720  
     804A      2.918019   805A      2.933451   806A      2.940802  
     807A      2.943907   808A      2.949588   809A      2.954288  
     810A      2.960653   811A      2.965966   812A      2.976080  
     813A      2.977034   814A      2.978239   815A      2.990209  
     816A      2.996445   817A      2.999027   818A      3.006804  
     819A      3.012499   820A      3.019664   821A      3.024675  
     822A      3.030886   823A      3.038512   824A      3.047698  
     825A      3.054849   826A      3.056381   827A      3.057739  
     828A      3.061339   829A      3.070074   830A      3.075334  
     831A      3.081659   832A      3.088477   833A      3.092369  
     834A      3.094889   835A      3.104869   836A      3.106988  
     837A      3.113721   838A      3.116005   839A      3.121186  
     840A      3.122831   841A      3.126580   842A      3.130472  
     843A      3.137518   844A      3.144121   845A      3.148537  
     846A      3.150373   847A      3.163329   848A      3.167520  
     849A      3.173902   850A      3.181739   851A      3.194490  
     852A      3.196347   853A      3.206739   854A      3.209749  
     855A      3.218477   856A      3.226997   857A      3.235014  
     858A      3.239756   859A      3.245007   860A      3.246910  
     861A      3.255173   862A      3.265794   863A      3.272363  
     864A      3.275702   865A      3.285985   866A      3.295351  
     867A      3.299363   868A      3.301478   869A      3.311566  
     870A      3.314612   871A      3.318402   872A      3.325511  
     873A      3.327429   874A      3.327859   875A      3.331815  
     876A      3.335773   877A      3.341992   878A      3.350986  
     879A      3.353383   880A      3.357935   881A      3.362009  
     882A      3.364564   883A      3.386371   884A      3.389893  
     885A      3.392623   886A      3.395169   887A      3.405634  
     888A      3.409387   889A      3.426006   890A      3.428896  
     891A      3.437054   892A      3.460848   893A      3.469411  
     894A      3.506813   895A      3.520279   896A      3.528390  
     897A      3.572275   898A      3.578178   899A      3.602875  
     900A      3.605013   901A      3.612573   902A      3.629707  
     903A      3.633180   904A      3.649933   905A      3.661830  
     906A      3.673767   907A      3.678395   908A      3.680883  
     909A      3.720016   910A      3.763272   911A      3.776639  
     912A      3.783104   913A      3.794950   914A      3.805574  
     915A      3.815528   916A      3.839617   917A      3.857503  
     918A      3.865900   919A      3.873045   920A      3.882452  
     921A      3.900239   922A      3.907805   923A      3.917030  
     924A      3.925842   925A      3.927207   926A      3.937293  
     927A      3.954359   928A      3.960500   929A      3.975009  
     930A      3.992207   931A      4.006682   932A      4.012657  
     933A      4.042868   934A      4.060090   935A      4.074368  
     936A      4.088790   937A      4.093629   938A      4.101328  
     939A      4.120335   940A      4.125823   941A      4.142319  
     942A      4.155798   943A      4.181334   944A      4.187545  
     945A      4.194109   946A      4.202723   947A      4.203016  
     948A      4.207924   949A      4.254474   950A      4.309221  
     951A      4.355034   952A      4.363071   953A      4.379197  
     954A      4.402594   955A      4.413728   956A      4.416935  
     957A      4.425962   958A      4.428613   959A      4.433890  
     960A      4.437665   961A      4.450349   962A      4.461045  
     963A      4.518840   964A      4.544632   965A      4.551167  
     966A      4.582753   967A      4.585865   968A      4.602773  
     969A      4.627254   970A      4.674316   971A      4.709645  
     972A      4.767844   973A      4.770054   974A      4.792871  
     975A      4.907492   976A      4.940722   977A      5.010832  
     978A      5.048754   979A      5.229153   980A      5.247515  
     981A      5.269404   982A      5.283897   983A      5.293014  
     984A      5.336379   985A      5.352277   986A      5.382433  
     987A      5.413430   988A      5.607965   989A      5.686723  
     990A      5.697266   991A      5.798902   992A      5.851362  
     993A      5.879253   994A      6.393693   995A     24.770813  
     996A     24.772712   997A     24.818125   998A     24.839304  
     999A     24.841228  1000A     24.911923  1001A     24.936085  
    1002A     24.992465  1003A     25.012186  1004A     25.017335  
    1005A     25.042147  1006A     25.069266  1007A     25.070233  
    1008A     25.091240  1009A     25.100000  1010A     25.121139  
    1011A     25.126287  1012A     25.130097  1013A     25.136026  
    1014A     25.151086  1015A     25.170919  1016A     25.202201  
    1017A     25.210859  1018A     25.233791  1019A     25.245240  
    1020A     25.247359  1021A     25.252120  1022A     25.321293  
    1023A     25.327823  1024A     36.948928  1025A     36.984691  
    1026A     37.020944  1027A     37.069567  1028A     37.076163  
    1029A     37.132146  1030A     37.150934  1031A     51.761756  

    Final Occupation by Irrep:
              A 
    DOCC [   131 ]

  @DF-RHF Final Energy: -1572.32560613596570

   => Energetics <=

    Nuclear Repulsion Energy =           3695.0948526962747565
    One-Electron Energy =               -9488.3883639209452667
    Two-Electron Energy =                4220.9679050887043559
    Total Energy =                      -1572.3256061359661544

Computation Completed


Properties will be evaluated at   0.000000,   0.000000,   0.000000 [a0]

Properties computed using the SCF density matrix

  Nuclear Dipole Moment: [e a0]
     X:    42.3378      Y:     1.9013      Z:     7.3950

  Electronic Dipole Moment: [e a0]
     X:   -43.6832      Y:     0.6634      Z:    -7.9437

  Dipole Moment: [e a0]
     X:    -1.3454      Y:     2.5648      Z:    -0.5487     Total:     2.9477

  Dipole Moment: [D]
     X:    -3.4197      Y:     6.5190      Z:    -1.3945     Total:     7.4924


*** tstop() called on node50.bme.utexas.edu at Wed Mar 18 14:47:27 2020
Module time:
	user time   =    4984.23 seconds =      83.07 minutes
	system time =     144.83 seconds =       2.41 minutes
	total time  =       2395 seconds =      39.92 minutes
Total time:
	user time   =    4984.23 seconds =      83.07 minutes
	system time =     144.83 seconds =       2.41 minutes
	total time  =       2395 seconds =      39.92 minutes

*** tstart() called on node50.bme.utexas.edu
*** at Wed Mar 18 14:47:27 2020


  //>>>>>>>>>>>>>>>>>>>>>>>>>>>>>>>>>>>//
  //               DFMP2               //
  //<<<<<<<<<<<<<<<<<<<<<<<<<<<<<<<<<<<//

   => Loading Basis Set <=

    Name: (6-311++G** AUX)
    Role: RIFIT
    Keyword: DF_BASIS_MP2
    atoms 1-4, 6-9, 11, 14-19, 21-28, 30-31, 33-35, 37 entry C          line   148 file /home/bdw2292/miniconda3/envs/p4env/share/psi4/basis/aug-cc-pvtz-ri.gbs 
    atoms 5, 10, 12-13, 20, 29, 32                     entry N          line   206 file /home/bdw2292/miniconda3/envs/p4env/share/psi4/basis/aug-cc-pvtz-ri.gbs 
    atoms 36                                           entry O          line   264 file /home/bdw2292/miniconda3/envs/p4env/share/psi4/basis/aug-cc-pvtz-ri.gbs 
    atoms 38-68                                        entry H          line    30 file /home/bdw2292/miniconda3/envs/p4env/share/psi4/basis/aug-cc-pvtz-ri.gbs 

	 --------------------------------------------------------
	                          DF-MP2                         
	      2nd-Order Density-Fitted Moller-Plesset Theory     
	              RMP2 Wavefunction,   6 Threads             
	                                                         
	        Rob Parrish, Justin Turney, Andy Simmonett,      
	           Ed Hohenstein, and C. David Sherrill          
	 --------------------------------------------------------

   => Auxiliary Basis Set <=

  Basis Set: (6-311++G** AUX)
    Blend: AUG-CC-PVTZ-RI
    Number of shells: 1470
    Number of basis function: 5348
    Number of Cartesian functions: 6737
    Spherical Harmonics?: true
    Max angular momentum: 4

	 --------------------------------------------------------
	                 NBF =  1031, NAUX =  5348
	 --------------------------------------------------------
	   CLASS    FOCC     OCC    AOCC    AVIR     VIR    FVIR
	   PAIRS      37     131      94     900     900       0
	 --------------------------------------------------------

	-----------------------------------------------------------
	 ==================> DF-MP2 Energies <==================== 
	-----------------------------------------------------------
	 Reference Energy          =   -1572.3256061359656997 [Eh]
	 Singles Energy            =      -0.0000000000000000 [Eh]
	 Same-Spin Energy          =      -1.4714451042713783 [Eh]
	 Opposite-Spin Energy      =      -4.0498498853605991 [Eh]
	 Correlation Energy        =      -5.5212949896319774 [Eh]
	 Total Energy              =   -1577.8469011255976966 [Eh]
	-----------------------------------------------------------
	 ================> DF-SCS-MP2 Energies <================== 
	-----------------------------------------------------------
	 SCS Same-Spin Scale       =       0.3333333333333333 [-]
	 SCS Opposite-Spin Scale   =       1.2000000000000000 [-]
	 SCS Same-Spin Energy      =      -0.4904817014237928 [Eh]
	 SCS Opposite-Spin Energy  =      -4.8598198624327189 [Eh]
	 SCS Correlation Energy    =      -5.3503015638565117 [Eh]
	 SCS Total Energy          =   -1577.6759076998221190 [Eh]
	-----------------------------------------------------------


*** tstop() called on node50.bme.utexas.edu at Wed Mar 18 15:06:53 2020
Module time:
	user time   =    2873.97 seconds =      47.90 minutes
	system time =      29.40 seconds =       0.49 minutes
	total time  =       1166 seconds =      19.43 minutes
Total time:
	user time   =    7858.20 seconds =     130.97 minutes
	system time =     174.23 seconds =       2.90 minutes
	total time  =       3561 seconds =      59.35 minutes


Properties will be evaluated at   0.000000,   0.000000,   0.000000 [a0]
OEProp: No title given, name of density matrix used for the following properties is 'SCF density'


  Wiberg Bond Indices using Orthogonal Lowdin Orbitals:

  Irrep: 1 Size: 68 x 68

                 1                   2                   3                   4                   5

    1     0.00000000000000     1.46405042052831     0.12494936547414     0.14046921912202     0.12365913338554
    2     1.46405042052831     0.00000000000000     1.40196396670917     0.12878141139988     0.12139789383760
    3     0.12494936547414     1.40196396670917     0.00000000000000     1.36083512366295     0.11832513584830
    4     0.14046921912202     0.12878141139988     1.36083512366295     0.00000000000000     1.66170459953161
    5     0.12365913338554     0.12139789383760     0.11832513584830     1.66170459953161     0.00000000000000
    6     1.46636079435178     0.13818951388255     0.13572218155326     0.15376686784847     1.62637094598844
    7     0.01457673902923     0.10298454137231     1.01958784927651     0.10315774153039     0.01381609910325
    8     0.00352865804381     0.04125909880658     0.09763436814550     0.02374127799689     0.00216571111382
    9     0.00036176406374     0.00464512236993     0.01473125758073     0.00407325416318     0.00067850850485
   10     0.00040593279558     0.00535246710301     0.00574619537771     0.00602365720654     0.00032143527758
   11     0.00088033222522     0.00336391445316     0.01810820844237     0.00686050179307     0.00042907595179
   12     0.00279695407614     0.02220657918523     0.11996847651625     0.06203532301149     0.00408575473152
   13     0.00016744298604     0.00048368942298     0.00163556611163     0.00094385294003     0.00008824418014
   14     0.00003128758251     0.00009479517625     0.00057729500890     0.00133562349615     0.00011627970573
   15     0.00001050237164     0.00002291461025     0.00006797471269     0.00015038714246     0.00001626297593
   16     0.00000211264821     0.00000586439987     0.00004150039264     0.00026593355326     0.00001320923442
   17     0.00001277592799     0.00001974644911     0.00005534079106     0.00028545090171     0.00004409732136
   18     0.00002649060330     0.00005525153035     0.00029581141667     0.00189754040755     0.00022550454691
   19     0.00016412027905     0.00025499325099     0.00207975731813     0.01095601617336     0.00063711130434
   20     0.00005579341197     0.00007494622281     0.00034578823897     0.00332135200406     0.00062604669158
   21     0.00001255283931     0.00001355149347     0.00005407561688     0.00040858334209     0.00020138334168
   22     0.00004955594613     0.00003742295370     0.00004673364244     0.00059175715272     0.00146145834422
   23     0.00000983349696     0.00000506279665     0.00001256980861     0.00018202255767     0.00051242849908
   24     0.00000936859915     0.00000497449263     0.00001273537760     0.00019659907148     0.00046892837252
   25     0.00001788089955     0.00001470043877     0.00001822849849     0.00010990830250     0.00050662006467
   26     0.00019640397581     0.00020824499353     0.00026517793630     0.00135571467152     0.01062878674634
   27     0.00047245367721     0.00030509322628     0.00039153408549     0.00631665407404     0.02151513671923
   28     0.00000555936693     0.00000220218330     0.00000265301564     0.00001703989450     0.00007095845698
   29     0.00000137013651     0.00000058057590     0.00000091212822     0.00000613400018     0.00001765306239
   30     0.00000075925223     0.00000025032202     0.00000033831428     0.00000297237982     0.00000629850181
   31     0.00000116131674     0.00000060761850     0.00000060448520     0.00000459432461     0.00001182802187
   32     0.00000109397542     0.00000090070254     0.00000101011937     0.00000402816170     0.00001150972773
   33     0.00000037096249     0.00000015079219     0.00000024789529     0.00000054576000     0.00000289202079
   34     0.00000381152908     0.00000228252098     0.00000278532637     0.00001303695623     0.00006504489872
   35     0.00000549472230     0.00000190470409     0.00000199343178     0.00000571733892     0.00004002736850
   36     0.00000203011395     0.00000265352977     0.00001388914519     0.00011823330660     0.00003860068862
   37     0.00000215969146     0.00000732669220     0.00003196759086     0.00003688284055     0.00000314085151
   38     0.88611967822210     0.07925927674242     0.01175183503697     0.00636125090373     0.01069420426638
   39     0.07765621013507     0.87056372946169     0.07274011034357     0.01177395466095     0.00394870754005
   40     0.00566751584072     0.01054560502789     0.06940113216787     0.84982974517152     0.08661846548987
   41     0.07728885572538     0.01178250872465     0.00602898075642     0.01590908716854     0.08764135829041
   42     0.00106374332450     0.01401270599870     0.01420831256226     0.00134741996794     0.00028603516118
   43     0.00004424288378     0.00028070675219     0.00144542957986     0.00031482566312     0.00007697662744
   44     0.00002475147448     0.00008327828095     0.00035107563222     0.00009134298925     0.00000773741443
   45     0.00000034349723     0.00000105586760     0.00000677813740     0.00001897701879     0.00000170044518
   46     0.00000091780225     0.00000173108467     0.00000740685087     0.00002648598881     0.00000820933769
   47     0.00012308476869     0.00021402723560     0.00211319794135     0.00825750965270     0.00061782109437
   48     0.00011164888404     0.00007794887139     0.00021859269963     0.00249976783380     0.00073228681020
   49     0.00000120505993     0.00000056699234     0.00000118122233     0.00000993985003     0.00003775174127
   50     0.00000074694810     0.00000049204914     0.00000135379343     0.00001410879258     0.00002627129444
   51     0.00008043504420     0.00007377168219     0.00011076545232     0.00030741628801     0.00287986599589
   52     0.00034974469658     0.00013676062300     0.00025960926189     0.00484281250012     0.01263848772584
   53     0.00000036348084     0.00000012064259     0.00000029647339     0.00000540276030     0.00000705936649
   54     0.00000386906737     0.00000248486509     0.00000274876516     0.00000368365604     0.00001760236908
   55     0.00000005473428     0.00000003232096     0.00000004169402     0.00000058955860     0.00000094495054
   56     0.00000018198020     0.00000005252410     0.00000006311796     0.00000066057072     0.00000109643013
   57     0.00000015107649     0.00000002677494     0.00000007028031     0.00000033373103     0.00000063736233
   58     0.00000078816667     0.00000051698021     0.00000051272179     0.00000498172947     0.00001022078834
   59     0.00000008402363     0.00000002580716     0.00000004350514     0.00000015236224     0.00000056721685
   60     0.00000002754691     0.00000001240587     0.00000001955886     0.00000009597828     0.00000054691604
   61     0.00000004079287     0.00000002283755     0.00000007334368     0.00000008849801     0.00000027338242
   62     0.00000064611632     0.00000050045538     0.00000051126216     0.00000067934163     0.00000462895102
   63     0.00000271865215     0.00000266208619     0.00000266242528     0.00000935202580     0.00004869466312
   64     0.00000021765086     0.00000006363945     0.00000015105526     0.00000121248256     0.00000310424038
   65     0.00001200691262     0.00000417055847     0.00000178745616     0.00000201684881     0.00001534434505
   66     0.00000071170556     0.00000181596346     0.00001059175744     0.00000843228793     0.00000058864481
   67     0.00000115576607     0.00000293672898     0.00001065298411     0.00000877392119     0.00000075894025
   68     0.00000026030034     0.00000073505125     0.00000391793234     0.00000828015403     0.00000048270657

                 6                   7                   8                   9                  10

    1     1.46636079435178     0.01457673902923     0.00352865804381     0.00036176406374     0.00040593279558
    2     0.13818951388255     0.10298454137231     0.04125909880658     0.00464512236993     0.00535246710301
    3     0.13572218155326     1.01958784927651     0.09763436814550     0.01473125758073     0.00574619537771
    4     0.15376686784847     0.10315774153039     0.02374127799689     0.00407325416318     0.00602365720654
    5     1.62637094598844     0.01381609910325     0.00216571111382     0.00067850850485     0.00032143527758
    6     0.00000000000000     0.00964764831299     0.00680499374649     0.00119157038504     0.00334324363410
    7     0.00964764831299     0.00000000000000     1.38938771711392     0.14703362438844     0.11211312797363
    8     0.00680499374649     1.38938771711392     0.00000000000000     1.43172872078614     0.13065978271821
    9     0.00119157038504     0.14703362438844     1.43172872078614     0.00000000000000     1.66309817199090
   10     0.00334324363410     0.11211312797363     0.13065978271821     1.66309817199090     0.00000000000000
   11     0.00084879629994     0.14157497518147     0.11315412466716     0.15277679217281     1.50715264367629
   12     0.00602935422044     1.53082523537784     0.12619262909954     0.11105553820374     0.10991189884569
   13     0.00007415966681     0.01930511833758     0.02048665391792     0.02413981737602     0.15892882645080
   14     0.00004527824318     0.00291219666550     0.00247198132051     0.00325349332238     0.01678362221283
   15     0.00000582005949     0.00050396282672     0.00143486423175     0.00093309268295     0.00311389144589
   16     0.00000421178759     0.00016727688960     0.00019273764376     0.00016423559095     0.00047064025850
   17     0.00000775525799     0.00025095620886     0.00127951881518     0.00044206613800     0.00125205523521
   18     0.00004404999822     0.00056664640169     0.00026504195685     0.00014283258272     0.00040880302272
   19     0.00019881153409     0.00582853709057     0.00311061903985     0.00153988315809     0.00429724879430
   20     0.00007603189304     0.00013894322961     0.00003004405276     0.00001836014573     0.00005958929559
   21     0.00002363721059     0.00002269133148     0.00000821612797     0.00000470376791     0.00001523283279
   22     0.00014408755667     0.00000781860804     0.00000264332780     0.00000123624538     0.00000375653483
   23     0.00013052556663     0.00000237100873     0.00000103660888     0.00000041141054     0.00000092224507
   24     0.00012268025749     0.00000162678913     0.00000075370581     0.00000016383525     0.00000023660502
   25     0.00021532975518     0.00000292786122     0.00000216483340     0.00000038035606     0.00000052917762
   26     0.00213287677808     0.00002824673252     0.00001633555580     0.00000256731109     0.00000267031264
   27     0.00196992474770     0.00006366497285     0.00001502918635     0.00000402159377     0.00000310932208
   28     0.00004731392761     0.00000073494312     0.00000026859787     0.00000005068907     0.00000007128911
   29     0.00001477370641     0.00000026982176     0.00000006759695     0.00000001815775     0.00000002235308
   30     0.00000546018841     0.00000008420197     0.00000004313601     0.00000001224510     0.00000001840661
   31     0.00000824498910     0.00000011851513     0.00000004345423     0.00000001242332     0.00000001713104
   32     0.00000594682160     0.00000013071708     0.00000005309240     0.00000001664518     0.00000001749004
   33     0.00000233882609     0.00000005953847     0.00000001874123     0.00000000538988     0.00000000483606
   34     0.00003330746500     0.00000043402687     0.00000028990368     0.00000004838505     0.00000014917850
   35     0.00001893324100     0.00000061373991     0.00000023386980     0.00000005270392     0.00000005335475
   36     0.00000725943118     0.00001101290018     0.00000840790828     0.00000417956105     0.00001138624847
   37     0.00000189009596     0.00014331522518     0.00013640504731     0.00013337434123     0.00073000359490
   38     0.08243363454911     0.00128161252628     0.00024429012669     0.00003851032527     0.00002513489824
   39     0.01173542272279     0.01615647408140     0.01468238870535     0.00113322005255     0.00039411753853
   40     0.01472639233260     0.01556262766287     0.00166163161680     0.00039632803338     0.00060860262081
   41     0.87920961718744     0.00053935498224     0.00026405708768     0.00005176380418     0.00010399831216
   42     0.00047655625630     0.07576219104580     0.87629339933472     0.08042103607378     0.01040352877845
   43     0.00004327891527     0.01180549613752     0.07623920931443     0.87541151937830     0.08892116422352
   44     0.00001164520614     0.00206191031208     0.00200646947064     0.00361947146595     0.03094826909054
   45     0.00000041021809     0.00001853807485     0.00000852258506     0.00002332729637     0.00005276381952
   46     0.00000122043159     0.00002321100862     0.00004110943603     0.00001649670620     0.00005131596997
   47     0.00020569987755     0.00428600236253     0.00094408922046     0.00043907962051     0.00077069784680
   48     0.00009311442512     0.00009117774948     0.00002820989704     0.00001010190570     0.00002045244578
   49     0.00001052600563     0.00000040928062     0.00000015009210     0.00000006583805     0.00000015655115
   50     0.00000541017076     0.00000009434587     0.00000008501481     0.00000002075901     0.00000002994844
   51     0.00129265783741     0.00001126471611     0.00000510493452     0.00000080606204     0.00000082264724
   52     0.00124452322827     0.00004819352448     0.00001179110557     0.00000327604501     0.00000246022788
   53     0.00000208456003     0.00000006343949     0.00000001524101     0.00000000433970     0.00000000588407
   54     0.00002053078823     0.00000026683883     0.00000030322873     0.00000003924948     0.00000013401531
   55     0.00000081877869     0.00000001018807     0.00000000826942     0.00000000362781     0.00000000217295
   56     0.00000446642889     0.00000002185552     0.00000000915922     0.00000000293810     0.00000000313042
   57     0.00000066894660     0.00000001729327     0.00000000731649     0.00000000124573     0.00000000262828
   58     0.00000847027856     0.00000009854924     0.00000002381113     0.00000000680374     0.00000001805732
   59     0.00000126105079     0.00000001679932     0.00000000727505     0.00000000267771     0.00000000209181
   60     0.00000034757353     0.00000000522585     0.00000000193348     0.00000000059216     0.00000000057098
   61     0.00000014218615     0.00000001365330     0.00000000192399     0.00000000118426     0.00000000053493
   62     0.00000258603085     0.00000005511485     0.00000005183905     0.00000000754514     0.00000002250669
   63     0.00003100502973     0.00000039949743     0.00000018157203     0.00000003933915     0.00000009452895
   64     0.00000505975161     0.00000005956635     0.00000001868617     0.00000000745270     0.00000000660346
   65     0.00002153904242     0.00000059324407     0.00000012551390     0.00000002442733     0.00000005979518
   66     0.00000037082095     0.00004065447592     0.00007169851847     0.00003941215983     0.00022469498460
   67     0.00000136019118     0.00004827542416     0.00011596705433     0.00004423467303     0.00034221539099
   68     0.00000016963123     0.00001420885826     0.00000626454998     0.00000449896031     0.00003357769063

                11                  12                  13                  14                  15

    1     0.00088033222522     0.00279695407614     0.00016744298604     0.00003128758251     0.00001050237164
    2     0.00336391445316     0.02220657918523     0.00048368942298     0.00009479517625     0.00002291461025
    3     0.01810820844237     0.11996847651625     0.00163556611163     0.00057729500890     0.00006797471269
    4     0.00686050179307     0.06203532301149     0.00094385294003     0.00133562349615     0.00015038714246
    5     0.00042907595179     0.00408575473152     0.00008824418014     0.00011627970573     0.00001626297593
    6     0.00084879629994     0.00602935422044     0.00007415966681     0.00004527824318     0.00000582005949
    7     0.14157497518147     1.53082523537784     0.01930511833758     0.00291219666550     0.00050396282672
    8     0.11315412466716     0.12619262909954     0.02048665391792     0.00247198132051     0.00143486423175
    9     0.15277679217281     0.11105553820374     0.02413981737602     0.00325349332238     0.00093309268295
   10     1.50715264367629     0.10991189884569     0.15892882645080     0.01678362221283     0.00311389144589
   11     0.00000000000000     1.53261773064540     1.26937308086405     0.08239059325809     0.01788734506694
   12     1.53261773064540     0.00000000000000     0.14155254875747     0.02959092391189     0.00348923625230
   13     1.26937308086405     0.14155254875747     0.00000000000000     1.12534043121354     0.10557160748239
   14     0.08239059325809     0.02959092391189     1.12534043121354     0.00000000000000     1.31670484059942
   15     0.01788734506694     0.00348923625230     0.10557160748239     1.31670484059942     0.00000000000000
   16     0.00238833992275     0.00117661647009     0.01430671692940     0.12596339909401     1.44161807563919
   17     0.00413992337257     0.00248139333777     0.01182349386527     0.11951370962486     0.12409652373219
   18     0.00244902985585     0.00494605731720     0.01322614921467     0.12284134043872     0.12006425894119
   19     0.02864069241313     0.05601714189693     0.11078401583313     1.40323064404023     0.11931814329296
   20     0.00034921619499     0.00114422210698     0.00133472955169     0.01516114354528     0.01125659063201
   21     0.00006227450197     0.00013776266101     0.00030583503142     0.00277662614406     0.00575002364433
   22     0.00001172320406     0.00002669985343     0.00005567484233     0.00035557131563     0.00031851048788
   23     0.00000324768068     0.00000443358289     0.00001308939345     0.00009710896346     0.00029996564947
   24     0.00000067824726     0.00000144400819     0.00000216303964     0.00001695768797     0.00003168183369
   25     0.00000080440281     0.00000284152098     0.00000201451630     0.00002327459000     0.00015135271186
   26     0.00000215094121     0.00001171879010     0.00000257496847     0.00001239317536     0.00003528829837
   27     0.00001408913395     0.00011568838074     0.00001364526156     0.00011284159091     0.00034123967819
   28     0.00000013256619     0.00000047873096     0.00000024951114     0.00000222094312     0.00001112289480
   29     0.00000005869961     0.00000017649467     0.00000010723028     0.00000136575422     0.00001000023329
   30     0.00000003381926     0.00000008559732     0.00000003307915     0.00000030013153     0.00000141219974
   31     0.00000004096969     0.00000014620110     0.00000003204001     0.00000033971909     0.00000080205586
   32     0.00000004997625     0.00000023015869     0.00000001931248     0.00000021294985     0.00000012667288
   33     0.00000003008422     0.00000004698671     0.00000000579208     0.00000004259425     0.00000010640269
   34     0.00000009695744     0.00000030964347     0.00000003295207     0.00000034976462     0.00000108464972
   35     0.00000006578511     0.00000027745356     0.00000005436531     0.00000037130047     0.00000123195108
   36     0.00004058222393     0.00005592474440     0.00015203840966     0.00103948620226     0.00338227947362
   37     0.00363717277887     0.00078050927055     0.03772181435536     0.09657063135209     1.06083771974708
   38     0.00009017694449     0.00031376663891     0.00001627267809     0.00000692744896     0.00000081068261
   39     0.00028750170740     0.00109312592449     0.00006703654367     0.00002557930031     0.00000405952829
   40     0.00277359081054     0.02542627140884     0.00043575658701     0.00125121540038     0.00016480148463
   41     0.00004322832707     0.00025313994249     0.00000562723934     0.00000403833854     0.00000058254715
   42     0.00573378065193     0.01070091404546     0.00103631824736     0.00011991869681     0.00006457316752
   43     0.01580462816486     0.00400326541657     0.00133513317569     0.00038205225866     0.00006183738703
   44     0.07346368212523     0.01151842648385     0.93487988643365     0.05948296412080     0.01488091151368
   45     0.00036751573768     0.00006341179072     0.00115784151040     0.01143794453150     0.07477854155040
   46     0.00014769831001     0.00015677153495     0.00051035231677     0.00524596400788     0.01051244708685
   47     0.00979963360196     0.03859639000456     0.01603290712416     0.07326210335187     0.00964894083825
   48     0.00012310201500     0.00069877367534     0.00017784872671     0.00207811349340     0.00111949252593
   49     0.00000069175980     0.00000065413198     0.00000262958194     0.00001637022882     0.00001839728656
   50     0.00000007208094     0.00000014724732     0.00000050242875     0.00000279093196     0.00000388784164
   51     0.00000079789984     0.00000274351041     0.00000033169052     0.00000117447205     0.00000159497045
   52     0.00000925689393     0.00005448837425     0.00000491408869     0.00003703149421     0.00010594578326
   53     0.00000001215811     0.00000006570269     0.00000003884578     0.00000027793787     0.00000058241700
   54     0.00000003076829     0.00000016184543     0.00000006435786     0.00000029669227     0.00000151028046
   55     0.00000000580039     0.00000001250480     0.00000000792215     0.00000004935820     0.00000013647714
   56     0.00000001177206     0.00000002418185     0.00000001444856     0.00000013818328     0.00000045458651
   57     0.00000000614823     0.00000001195407     0.00000000422353     0.00000003734083     0.00000008463745
   58     0.00000001851266     0.00000008233133     0.00000008112701     0.00000042821726     0.00000122089783
   59     0.00000000771383     0.00000002209159     0.00000000294710     0.00000000948186     0.00000003541953
   60     0.00000000160630     0.00000000421644     0.00000000078290     0.00000000613498     0.00000001650015
   61     0.00000000435182     0.00000001030917     0.00000000140560     0.00000000404554     0.00000000736228
   62     0.00000000730580     0.00000003965029     0.00000001021026     0.00000003011979     0.00000008296010
   63     0.00000010125698     0.00000065722134     0.00000006750484     0.00000030458158     0.00000128703650
   64     0.00000000945351     0.00000003167465     0.00000001295897     0.00000011896493     0.00000050408904
   65     0.00000003485601     0.00000010906149     0.00000001474114     0.00000003370172     0.00000005900610
   66     0.00068528905078     0.00024481478306     0.00840021926976     0.01643017906562     0.05846394939756
   67     0.00103234055854     0.00031420933841     0.01095779860980     0.01672438408140     0.05822296502711
   68     0.00023419300277     0.00006295754318     0.00199437344640     0.00897048985162     0.05943878726267

                16                  17                  18                  19                  20

    1     0.00000211264821     0.00001277592799     0.00002649060330     0.00016412027905     0.00005579341197
    2     0.00000586439987     0.00001974644911     0.00005525153035     0.00025499325099     0.00007494622281
    3     0.00004150039264     0.00005534079106     0.00029581141667     0.00207975731813     0.00034578823897
    4     0.00026593355326     0.00028545090171     0.00189754040755     0.01095601617336     0.00332135200406
    5     0.00001320923442     0.00004409732136     0.00022550454691     0.00063711130434     0.00062604669158
    6     0.00000421178759     0.00000775525799     0.00004404999822     0.00019881153409     0.00007603189304
    7     0.00016727688960     0.00025095620886     0.00056664640169     0.00582853709057     0.00013894322961
    8     0.00019273764376     0.00127951881518     0.00026504195685     0.00311061903985     0.00003004405276
    9     0.00016423559095     0.00044206613800     0.00014283258272     0.00153988315809     0.00001836014573
   10     0.00047064025850     0.00125205523521     0.00040880302272     0.00429724879430     0.00005958929559
   11     0.00238833992275     0.00413992337257     0.00244902985585     0.02864069241313     0.00034921619499
   12     0.00117661647009     0.00248139333777     0.00494605731720     0.05601714189693     0.00114422210698
   13     0.01430671692940     0.01182349386527     0.01322614921467     0.11078401583313     0.00133472955169
   14     0.12596339909401     0.11951370962486     0.12284134043872     1.40323064404023     0.01516114354528
   15     1.44161807563919     0.12409652373219     0.12006425894119     0.11931814329296     0.01125659063201
   16     0.00000000000000     1.44427413221499     0.13314301536300     0.12570023114615     0.01362077705813
   17     1.44427413221499     0.00000000000000     1.39992851544004     0.12166365850806     0.10423777147671
   18     0.13314301536300     1.39992851544004     0.00000000000000     1.36197270106128     1.12545611548420
   19     0.12570023114615     0.12166365850806     1.36197270106128     0.00000000000000     0.12467108403310
   20     0.01362077705813     0.10423777147671     1.12545611548420     0.12467108403310     0.00000000000000
   21     0.00275798424916     0.03114918659351     0.08638046966742     0.02260339223438     1.31499396859367
   22     0.00035132617902     0.00325379989687     0.01459964435641     0.00207581919589     0.10455739933978
   23     0.00010098160750     0.00087304333937     0.00232142454205     0.00065759505150     0.01785050486657
   24     0.00002124452401     0.00013124312291     0.00048611815827     0.00009988680679     0.00246465416274
   25     0.00002523687672     0.00025541838811     0.00044155449321     0.00021629481707     0.00342446244343
   26     0.00002145836933     0.00016354950348     0.00040923186900     0.00012867651073     0.00359480228080
   27     0.00014052020789     0.00117325062034     0.00386827032246     0.00118404320996     0.04202412644886
   28     0.00000246788647     0.00002176315043     0.00003957202800     0.00001716289963     0.00026685139367
   29     0.00000147336643     0.00001471169354     0.00002028188903     0.00001259248658     0.00015208714336
   30     0.00000042068187     0.00000320781312     0.00000513452748     0.00000272096253     0.00002903201870
   31     0.00000036029599     0.00000351141661     0.00000753349223     0.00000285385469     0.00002726461754
   32     0.00000008393541     0.00000058461154     0.00000274096856     0.00000083828984     0.00000740644881
   33     0.00000005361659     0.00000020546437     0.00000095166630     0.00000028344820     0.00000145027247
   34     0.00000043383523     0.00000430496406     0.00000742069906     0.00000414127670     0.00003108584074
   35     0.00000041084502     0.00000307150780     0.00000505426056     0.00000242279293     0.00002779911296
   36     0.00350069211126     0.04922345154964     0.03205518371148     0.00524118098360     0.19264617311327
   37     0.11545638636107     0.01435876138880     0.00735778872328     0.01395496091790     0.00071655859040
   38     0.00000033192009     0.00000069543422     0.00000527868402     0.00002279211289     0.00000537608669
   39     0.00000168107761     0.00000191817155     0.00000644786687     0.00003859568509     0.00000786866658
   40     0.00022808340735     0.00024958404363     0.00193089178941     0.00901818394435     0.00238905581298
   41     0.00000045550745     0.00000076440664     0.00000287495348     0.00001435868798     0.00000606000806
   42     0.00001084703467     0.00004649787973     0.00003016109411     0.00020156097153     0.00000705938536
   43     0.00001576002242     0.00001189765126     0.00001521244676     0.00010730284589     0.00000174542315
   44     0.00151085265926     0.00107437627329     0.00130496963230     0.01048463699506     0.00024310088212
   45     0.87158053037519     0.07894703123765     0.01176912161310     0.00565347182554     0.00103160753121
   46     0.07707623344775     0.85978022540301     0.07563004498812     0.01122718695175     0.01451904661479
   47     0.00565379215944     0.01015689293035     0.07126900616037     0.83710932385448     0.02420984044506
   48     0.00136604042056     0.01013470111297     0.06236994379311     0.02165472516102     0.93602671449659
   49     0.00002586443717     0.00015832831249     0.00024948350673     0.00007287823435     0.00168113019839
   50     0.00000293449052     0.00001878180669     0.00006457509257     0.00001743502266     0.00028851802555
   51     0.00000212046070     0.00001346694177     0.00002997053685     0.00000857395961     0.00019886815224
   52     0.00004969137883     0.00034303211519     0.00141373077619     0.00057044298303     0.01493051725332
   53     0.00000045116493     0.00000241760627     0.00001072826807     0.00000224500842     0.00005652484031
   54     0.00000052311253     0.00000360021301     0.00000656527397     0.00000276018313     0.00004380863194
   55     0.00000006585158     0.00000037867783     0.00000091133363     0.00000045653105     0.00000694309677
   56     0.00000009572327     0.00000066572589     0.00000270517466     0.00000110684907     0.00000690135432
   57     0.00000003744546     0.00000016995464     0.00000062558596     0.00000024663205     0.00000195013684
   58     0.00000063113716     0.00000409657176     0.00000741814766     0.00000446005374     0.00003006134270
   59     0.00000001327965     0.00000008500186     0.00000023679167     0.00000008928826     0.00000040597695
   60     0.00000001355291     0.00000002156458     0.00000013276173     0.00000004449447     0.00000028162130
   61     0.00000000454360     0.00000004108988     0.00000006265341     0.00000003604310     0.00000032244805
   62     0.00000002634785     0.00000029761157     0.00000039358984     0.00000021423027     0.00000201230724
   63     0.00000053219883     0.00000239381712     0.00000655178106     0.00000317379165     0.00005254526089
   64     0.00000010823432     0.00000092577369     0.00000132260411     0.00000087639499     0.00000753173545
   65     0.00000006395220     0.00000036769299     0.00000069404256     0.00000026110821     0.00000506324173
   66     0.01562451863908     0.00127096862459     0.00308162793422     0.00120685091254     0.00038015683837
   67     0.01461233194147     0.00125551716859     0.00266121192583     0.00126366841537     0.00031339111612
   68     0.02373730510380     0.00189238800995     0.00056471398995     0.00108740471607     0.00008516054803

                21                  22                  23                  24                  25

    1     0.00001255283931     0.00004955594613     0.00000983349696     0.00000936859915     0.00001788089955
    2     0.00001355149347     0.00003742295370     0.00000506279665     0.00000497449263     0.00001470043877
    3     0.00005407561688     0.00004673364244     0.00001256980861     0.00001273537760     0.00001822849849
    4     0.00040858334209     0.00059175715272     0.00018202255767     0.00019659907148     0.00010990830250
    5     0.00020138334168     0.00146145834422     0.00051242849908     0.00046892837252     0.00050662006467
    6     0.00002363721059     0.00014408755667     0.00013052556663     0.00012268025749     0.00021532975518
    7     0.00002269133148     0.00000781860804     0.00000237100873     0.00000162678913     0.00000292786122
    8     0.00000821612797     0.00000264332780     0.00000103660888     0.00000075370581     0.00000216483340
    9     0.00000470376791     0.00000123624538     0.00000041141054     0.00000016383525     0.00000038035606
   10     0.00001523283279     0.00000375653483     0.00000092224507     0.00000023660502     0.00000052917762
   11     0.00006227450197     0.00001172320406     0.00000324768068     0.00000067824726     0.00000080440281
   12     0.00013776266101     0.00002669985343     0.00000443358289     0.00000144400819     0.00000284152098
   13     0.00030583503142     0.00005567484233     0.00001308939345     0.00000216303964     0.00000201451630
   14     0.00277662614406     0.00035557131563     0.00009710896346     0.00001695768797     0.00002327459000
   15     0.00575002364433     0.00031851048788     0.00029996564947     0.00003168183369     0.00015135271186
   16     0.00275798424916     0.00035132617902     0.00010098160750     0.00002124452401     0.00002523687672
   17     0.03114918659351     0.00325379989687     0.00087304333937     0.00013124312291     0.00025541838811
   18     0.08638046966742     0.01459964435641     0.00232142454205     0.00048611815827     0.00044155449321
   19     0.02260339223438     0.00207581919589     0.00065759505150     0.00009988680679     0.00021629481707
   20     1.31499396859367     0.10455739933978     0.01785050486657     0.00246465416274     0.00342446244343
   21     0.00000000000000     0.97252861215133     0.11126322845437     0.01477261226035     0.01108336861078
   22     0.97252861215133     0.00000000000000     1.38496593500475     0.12693028585828     0.12399303732851
   23     0.11126322845437     1.38496593500475     0.00000000000000     1.47022358450527     0.12665588200973
   24     0.01477261226035     0.12693028585828     1.47022358450527     0.00000000000000     1.39509627945742
   25     0.01108336861078     0.12399303732851     0.12665588200973     1.39509627945742     0.00000000000000
   26     0.01447497662077     0.12737588243476     0.13101821482061     0.12568434340314     1.40442136462406
   27     0.10495144812895     1.40153095812581     0.12409650694938     0.12956253938623     0.12652417844013
   28     0.00073535035856     0.00912720518271     0.01442270907894     0.10889606142570     1.01705616499357
   29     0.00039268864562     0.00439404134607     0.00195672791382     0.02129974767392     0.08739692995790
   30     0.00009481888225     0.00104096651485     0.00191888459333     0.01488450229651     0.02051259429374
   31     0.00007756939400     0.00167159488340     0.00973217322665     0.02392855125222     0.01959219488429
   32     0.00005970208107     0.00069763849389     0.00107187224388     0.00272036663458     0.00410876427748
   33     0.00000914706394     0.00011306343722     0.00026362743364     0.00070644460316     0.00114884898689
   34     0.00007607195387     0.00177480109886     0.00208032151691     0.00510044601962     0.01973846831955
   35     0.00009234594193     0.00106126132481     0.00094730136404     0.00461232076782     0.02097626713739
   36     2.17699702178661     0.13701532810136     0.05524537483184     0.00422969514378     0.00610412217755
[...]
   15     0.00000045458651     0.00000008463745     0.00000122089783     0.00000003541953     0.00000001650015
   16     0.00000009572327     0.00000003744546     0.00000063113716     0.00000001327965     0.00000001355291
   17     0.00000066572589     0.00000016995464     0.00000409657176     0.00000008500186     0.00000002156458
   18     0.00000270517466     0.00000062558596     0.00000741814766     0.00000023679167     0.00000013276173
   19     0.00000110684907     0.00000024663205     0.00000446005374     0.00000008928826     0.00000004449447
   20     0.00000690135432     0.00000195013684     0.00003006134270     0.00000040597695     0.00000028162130
   21     0.00003357822363     0.00000815210765     0.00008538483726     0.00000208817000     0.00000106055112
   22     0.00026562602034     0.00010065085804     0.00192520832789     0.00001245360525     0.00001108220046
   23     0.00043764335805     0.00027206609903     0.00864237376054     0.00002555075334     0.00003607937650
   24     0.00093417378359     0.00078898692916     0.02222899015317     0.00008947593376     0.00007236307905
   25     0.00150151293067     0.00067193962447     0.01293820135516     0.00018092376376     0.00010008187331
   26     0.00055265195693     0.00021870671787     0.00407734406785     0.00008805767986     0.00004513901142
   27     0.00017315549445     0.00011130875186     0.00205555588706     0.00002517894527     0.00002667140927
   28     0.01224739449412     0.00105782869465     0.00633447818098     0.00069039239386     0.00012145312207
   29     0.06606050787175     0.01170743249244     0.01190674610544     0.00330795228871     0.00069346795892
   30     0.77069378610330     0.05784096001324     0.04405934880994     0.01280133752026     0.00400059635259
   31     0.05015125164916     0.85193757570233     0.78239477106214     0.01641047175769     0.02010408342539
   32     0.01405303176446     0.05316520781372     0.05858693913096     0.06764103322843     0.06271942076600
   33     0.01617498009511     0.02189169927636     0.01213757762211     0.91086598168109     0.91959089344084
   34     0.00835582549459     0.01442280709474     0.02013346984764     0.01631209566883     0.01262694119840
   35     0.02294351716816     0.00209652274736     0.00735306500364     0.01281077939008     0.00177870487850
   36     0.00001266226479     0.00000271167047     0.00004373993347     0.00000061552768     0.00000062815783
   37     0.00000006740991     0.00000001890761     0.00000009691645     0.00000000710110     0.00000000778356
   38     0.00000001088068     0.00000000281249     0.00000005464699     0.00000000500912     0.00000000541177
   39     0.00000000419979     0.00000001300399     0.00000003983619     0.00000000192202     0.00000000100554
   40     0.00000045943100     0.00000012600174     0.00000190290514     0.00000005022797     0.00000002633380
   41     0.00000475150356     0.00000012505154     0.00000503551619     0.00000055777570     0.00000010755863
   42     0.00000000077733     0.00000000038420     0.00000000659533     0.00000000067764     0.00000000042083
   43     0.00000000012811     0.00000000059523     0.00000000140896     0.00000000015873     0.00000000006815
   44     0.00000000213298     0.00000000042911     0.00000000783233     0.00000000050793     0.00000000007696
   45     0.00000002510507     0.00000000825716     0.00000006071871     0.00000000224304     0.00000000148097
   46     0.00000010462499     0.00000002615033     0.00000174796829     0.00000000973265     0.00000000349627
   47     0.00000025170649     0.00000011776405     0.00000085544487     0.00000003248262     0.00000001121135
   48     0.00000149024496     0.00000091557417     0.00001631188515     0.00000032873095     0.00000010093222
   49     0.00005770678592     0.00002799406431     0.00071277646967     0.00000263463218     0.00000313841374
   50     0.00010877673455     0.00016451119719     0.00393840659560     0.00003708093921     0.00001807350678
   51     0.00014278473464     0.00002041283262     0.00026402961836     0.00003690501683     0.00000812463567
   52     0.00001105618483     0.00000302431941     0.00005833104991     0.00000238272469     0.00000109746903
   53     0.00121877620980     0.00010125400160     0.00092194585792     0.00006566598201     0.00002061814680
   54     0.00050471343456     0.00034380474923     0.00036327021953     0.00006730953866     0.00002187346089
   55     0.02414053796336     0.00581290717247     0.00835207547834     0.00056667978685     0.00015576291188
   56     0.00000000000000     0.01010151967251     0.02286073938586     0.00822071178321     0.00177690085910
   57     0.01010151967251     0.00000000000000     0.01875100044790     0.00308303705078     0.00701320394902
   58     0.02286073938586     0.01875100044790     0.00000000000000     0.00099095164913     0.00104829222745
   59     0.00822071178321     0.00308303705078     0.00099095164913     0.00000000000000     0.03490449757695
   60     0.00177690085910     0.00701320394902     0.00104829222745     0.03490449757695     0.00000000000000
   61     0.00068769783311     0.00115179463389     0.00065888394458     0.03492589457472     0.03775003509573
   62     0.00045816790586     0.00125247780259     0.00092224760646     0.00298182545764     0.00113610818391
   63     0.00090469377218     0.00097554013529     0.00518181782114     0.00097829119818     0.00066136490467
   64     0.00603086381547     0.00043397682606     0.00090321519603     0.00812413223714     0.00067953712900
   65     0.00088060623771     0.00036770728077     0.00045450011358     0.00054181782901     0.00022431816524
   66     0.00000001846698     0.00000000267728     0.00000003971793     0.00000000127221     0.00000000022683
   67     0.00000002167156     0.00000000379869     0.00000008195738     0.00000000145988     0.00000000058713
   68     0.00000000098044     0.00000000029639     0.00000000898802     0.00000000049695     0.00000000031558

                61                  62                  63                  64                  65

    1     0.00000004079287     0.00000064611632     0.00000271865215     0.00000021765086     0.00001200691262
    2     0.00000002283755     0.00000050045538     0.00000266208619     0.00000006363945     0.00000417055847
    3     0.00000007334368     0.00000051126216     0.00000266242528     0.00000015105526     0.00000178745616
    4     0.00000008849801     0.00000067934163     0.00000935202580     0.00000121248256     0.00000201684881
    5     0.00000027338242     0.00000462895102     0.00004869466312     0.00000310424038     0.00001534434505
    6     0.00000014218615     0.00000258603085     0.00003100502973     0.00000505975161     0.00002153904242
    7     0.00000001365330     0.00000005511485     0.00000039949743     0.00000005956635     0.00000059324407
    8     0.00000000192399     0.00000005183905     0.00000018157203     0.00000001868617     0.00000012551390
    9     0.00000000118426     0.00000000754514     0.00000003933915     0.00000000745270     0.00000002442733
   10     0.00000000053493     0.00000002250669     0.00000009452895     0.00000000660346     0.00000005979518
   11     0.00000000435182     0.00000000730580     0.00000010125698     0.00000000945351     0.00000003485601
   12     0.00000001030917     0.00000003965029     0.00000065722134     0.00000003167465     0.00000010906149
   13     0.00000000140560     0.00000001021026     0.00000006750484     0.00000001295897     0.00000001474114
   14     0.00000000404554     0.00000003011979     0.00000030458158     0.00000011896493     0.00000003370172
   15     0.00000000736228     0.00000008296010     0.00000128703650     0.00000050408904     0.00000005900610
   16     0.00000000454360     0.00000002634785     0.00000053219883     0.00000010823432     0.00000006395220
   17     0.00000004108988     0.00000029761157     0.00000239381712     0.00000092577369     0.00000036769299
   18     0.00000006265341     0.00000039358984     0.00000655178106     0.00000132260411     0.00000069404256
   19     0.00000003604310     0.00000021423027     0.00000317379165     0.00000087639499     0.00000026110821
   20     0.00000032244805     0.00000201230724     0.00005254526089     0.00000753173545     0.00000506324173
   21     0.00000084659396     0.00000660100242     0.00008476640427     0.00002971392805     0.00002059838930
   22     0.00001197062804     0.00010902098083     0.00205141078468     0.00027189301664     0.00020146413586
   23     0.00002518584017     0.00010848021739     0.00210113652564     0.00017764344548     0.00018840385905
   24     0.00004369645591     0.00022222630217     0.00419471514672     0.00055190528809     0.00053343387184
   25     0.00009797560106     0.00070790775467     0.01309945834403     0.00146196642599     0.00565035931879
   26     0.00007121587611     0.00083420284302     0.02199111697822     0.00093825124199     0.00596839568260
   27     0.00003481834099     0.00028352990071     0.00892514871100     0.00041963591958     0.00046963669766
   28     0.00012118252828     0.00107925023131     0.00635411257118     0.01217231462440     0.01985368334177
   29     0.00067303012412     0.01111061045667     0.01200380552710     0.06579139291200     0.05788741154731
   30     0.00180064524540     0.00219804865729     0.00732229019605     0.02276611841150     0.01221209470334
   31     0.01275987288587     0.01398089070581     0.02013825657164     0.00828891235141     0.00259606314727
   32     0.06297269743942     0.05416324587308     0.05802035041720     0.01401489043372     0.01034404980331
   33     0.91968765719653     0.02109518604255     0.01208969132497     0.01602375650663     0.00165286078319
   34     0.01943268545640     0.86331924621872     0.78218815073017     0.04989970325619     0.06035152874379
   35     0.00392389040591     0.05825726057736     0.04403542617058     0.77358195557470     0.88855325040740
   36     0.00000049470377     0.00000376750277     0.00003468874576     0.00001506889761     0.00001248833783
   37     0.00000000100303     0.00000000593927     0.00000010583775     0.00000003288777     0.00000001067864
   38     0.00000000387632     0.00000003945810     0.00000017786589     0.00000003374465     0.00000030129267
   39     0.00000000108505     0.00000004217244     0.00000028862830     0.00000000813746     0.00000021998687
   40     0.00000000733725     0.00000006049771     0.00000147241259     0.00000011372590     0.00000022687786
   41     0.00000014987532     0.00000173908495     0.00001314273835     0.00000523023473     0.00000723251538
   42     0.00000000028587     0.00000000336415     0.00000001098141     0.00000000065412     0.00000001286775
   43     0.00000000006472     0.00000000038078     0.00000000844729     0.00000000057527     0.00000000090319
   44     0.00000000039907     0.00000000108835     0.00000000640141     0.00000000256510     0.00000000425237
   45     0.00000000037188     0.00000000218583     0.00000009978829     0.00000000607291     0.00000000861659
   46     0.00000000552414     0.00000004664576     0.00000089679160     0.00000014731874     0.00000014610311
   47     0.00000002618682     0.00000007555299     0.00000081847692     0.00000025500761     0.00000005417133
   48     0.00000024201709     0.00000089741846     0.00002401645026     0.00000165884659     0.00000293171738
   49     0.00000122834091     0.00000388615956     0.00005920494856     0.00001414151059     0.00002156721789
   50     0.00000851747288     0.00001863570110     0.00028875698229     0.00013613431775     0.00007589230345
   51     0.00001824332583     0.00017594295818     0.00388548542560     0.00011284264794     0.00268520253690
   52     0.00000334462842     0.00002811739137     0.00070208030360     0.00006078060066     0.00003029418741
   53     0.00002093932476     0.00031829614969     0.00036824259446     0.00051582995267     0.00107970563796
   54     0.00002059655868     0.00010612797817     0.00091868948502     0.00121576333289     0.00591738009617
   55     0.00022396085986     0.00033497393821     0.00047343787784     0.00088933125462     0.00112922598207
   56     0.00068769783311     0.00045816790586     0.00090469377218     0.00603086381547     0.00088060623771
   57     0.00115179463389     0.00125247780259     0.00097554013529     0.00043397682606     0.00036770728077
   58     0.00065888394458     0.00092224760646     0.00518181782114     0.00090321519603     0.00045450011358
   59     0.03492589457472     0.00298182545764     0.00097829119818     0.00812413223714     0.00054181782901
   60     0.03775003509573     0.00113610818391     0.00066136490467     0.00067953712900     0.00022431816524
   61     0.00000000000000     0.00665065814800     0.00102908399353     0.00175704166910     0.00014433023292
   62     0.00665065814800     0.00000000000000     0.01985381328783     0.00997494384134     0.00579691357383
   63     0.00102908399353     0.01985381328783     0.00000000000000     0.02256569580124     0.00847398747773
   64     0.00175704166910     0.00997494384134     0.02256569580124     0.00000000000000     0.02317281736753
   65     0.00014433023292     0.00579691357383     0.00847398747773     0.02317281736753     0.00000000000000
   66     0.00000000036430     0.00000000241406     0.00000004436456     0.00000002216968     0.00000000546870
   67     0.00000000039059     0.00000000230534     0.00000008780762     0.00000002013650     0.00000000278561
   68     0.00000000005353     0.00000000038292     0.00000000782135     0.00000000223469     0.00000000104619

                66                  67                  68

    1     0.00000071170556     0.00000115576607     0.00000026030034
    2     0.00000181596346     0.00000293672898     0.00000073505125
    3     0.00001059175744     0.00001065298411     0.00000391793234
    4     0.00000843228793     0.00000877392119     0.00000828015403
    5     0.00000058864481     0.00000075894025     0.00000048270657
    6     0.00000037082095     0.00000136019118     0.00000016963123
    7     0.00004065447592     0.00004827542416     0.00001420885826
    8     0.00007169851847     0.00011596705433     0.00000626454998
    9     0.00003941215983     0.00004423467303     0.00000449896031
   10     0.00022469498460     0.00034221539099     0.00003357769063
   11     0.00068528905078     0.00103234055854     0.00023419300277
   12     0.00024481478306     0.00031420933841     0.00006295754318
   13     0.00840021926976     0.01095779860980     0.00199437344640
   14     0.01643017906562     0.01672438408140     0.00897048985162
   15     0.05846394939756     0.05822296502711     0.05943878726267
   16     0.01562451863908     0.01461233194147     0.02373730510380
   17     0.00127096862459     0.00125551716859     0.00189238800995
   18     0.00308162793422     0.00266121192583     0.00056471398995
   19     0.00120685091254     0.00126366841537     0.00108740471607
   20     0.00038015683837     0.00031339111612     0.00008516054803
   21     0.00022275952534     0.00019282403564     0.00003176250228
   22     0.00001193184439     0.00001286806819     0.00000677657463
   23     0.00001167753174     0.00001145990131     0.00000160284612
   24     0.00000117014428     0.00000127737860     0.00000028861821
   25     0.00000667961448     0.00000569366000     0.00000035026249
   26     0.00000146147828     0.00000138529655     0.00000033526898
   27     0.00001453267643     0.00001213744666     0.00000278785946
   28     0.00000049017263     0.00000041724013     0.00000005223776
   29     0.00000045172400     0.00000035887164     0.00000001614802
   30     0.00000006397119     0.00000003394017     0.00000000721511
   31     0.00000002707510     0.00000002369141     0.00000000614228
   32     0.00000000460085     0.00000000981749     0.00000000462757
   33     0.00000000317488     0.00000000449897     0.00000000093344
   34     0.00000003679316     0.00000003167874     0.00000000789642
   35     0.00000006066679     0.00000003342228     0.00000001064542
   36     0.00012967464486     0.00011928321983     0.00001718163112
   37     0.91953774194366     0.91846713835222     0.92016100887598
   38     0.00000008291910     0.00000010120346     0.00000003897652
   39     0.00000024128665     0.00000032471507     0.00000010088440
   40     0.00000719438190     0.00000786788000     0.00000824146375
   41     0.00000005140754     0.00000007640695     0.00000004310030
   42     0.00000315828537     0.00000464171597     0.00000046748914
   43     0.00000252587675     0.00000323624255     0.00000061994427
   44     0.00438314898514     0.00464030131185     0.00102607537925
   45     0.00130066393285     0.00118396932834     0.00761070984686
   46     0.00020215694016     0.00022493495233     0.00012756849418
   47     0.00017968925293     0.00018518356128     0.00034732034829
   48     0.00003848623113     0.00004221558230     0.00003859927549
   49     0.00000084516611     0.00000073223553     0.00000046175249
   50     0.00000021832022     0.00000015229233     0.00000007520380
   51     0.00000006518010     0.00000009695469     0.00000004770752
   52     0.00000447568277     0.00000325298199     0.00000120455141
   53     0.00000003004553     0.00000001884221     0.00000000892401
   54     0.00000007330385     0.00000005308179     0.00000000886147
   55     0.00000000787886     0.00000000297774     0.00000000091408
   56     0.00000001846698     0.00000002167156     0.00000000098044
   57     0.00000000267728     0.00000000379869     0.00000000029639
   58     0.00000003971793     0.00000008195738     0.00000000898802
   59     0.00000000127221     0.00000000145988     0.00000000049695
   60     0.00000000022683     0.00000000058713     0.00000000031558
   61     0.00000000036430     0.00000000039059     0.00000000005353
   62     0.00000000241406     0.00000000230534     0.00000000038292
   63     0.00000004436456     0.00000008780762     0.00000000782135
   64     0.00000002216968     0.00000002013650     0.00000000223469
   65     0.00000000546870     0.00000000278561     0.00000000104619
   66     0.00000000000000     0.03494109654595     0.03830134460229
   67     0.03494109654595     0.00000000000000     0.03857927002181
   68     0.03830134460229     0.03857927002181     0.00000000000000



  Atomic Valences: 

 #  #
 Irrep: 1
      1:  4.3918581
      2:  4.4228654
      3:  4.6022085
      4:  4.5816349
      5:  3.9166122
      6:  4.5452075
      7:  4.7424184
      8:  4.3683457
      9:  4.5238127
     10:  3.8631158
     11:  4.9997560
     12:  3.9627679
     13:  4.0348516
     14:  4.6648499
     15:  4.6249388
     16:  4.4374025
     17:  4.4018145
     18:  4.6684011
     19:  4.4270456
     20:  4.0813337
     21:  5.0022096
     22:  4.6192743
     23:  4.4362389
     24:  4.4768050
     25:  4.7200468
     26:  4.4873050
     27:  4.4645678
     28:  4.4984529
     29:  4.2534987
     30:  4.5587463
     31:  4.5726010
     32:  4.2260084
     33:  4.2873681
     34:  4.5718342
     35:  4.5569534
     36:  2.7602410
     37:  4.1505253
     38:  1.0979694
     39:  1.1014592
     40:  1.1147748
     41:  1.0917391
     42:  1.1092787
     43:  1.0860089
     44:  1.1752033
     45:  1.0997809
     46:  1.1067084
     47:  1.1363123
     48:  1.1845735
     49:  1.0980112
     50:  1.1068469
     51:  1.1104763
     52:  1.1147539
     53:  1.1071345
     54:  1.1078086
     55:  1.1264691
     56:  1.0427234
     57:  1.0659052
     58:  1.0613861
     59:  1.1367983
     60:  1.1073535
     61:  1.1067117
     62:  1.0775083
     63:  1.0621613
     64:  1.0430210
     65:  1.1175675
     66:  1.1054920
     67:  1.1065769
     68:  1.1044046


    Psi4 stopped on: Wednesday, 18 March 2020 03:06PM
    Psi4 wall time for execution: 0:59:23.91

*** Psi4 exiting successfully. Buy a developer a beer!
