
    -----------------------------------------------------------------------
          Psi4: An Open-Source Ab Initio Electronic Structure Package
                               Psi4 1.3.2 release

                         Git: Rev {HEAD} ecbda83 


    R. M. Parrish, L. A. Burns, D. G. A. Smith, A. C. Simmonett,
    A. E. DePrince III, E. G. Hohenstein, U. Bozkaya, A. Yu. Sokolov,
    R. Di Remigio, R. M. Richard, J. F. Gonthier, A. M. James,
    H. R. McAlexander, A. Kumar, M. Saitow, X. Wang, B. P. Pritchard,
    P. Verma, H. F. Schaefer III, K. Patkowski, R. A. King, E. F. Valeev,
    F. A. Evangelista, J. M. Turney, T. D. Crawford, and C. D. Sherrill,
    J. Chem. Theory Comput. 13(7) pp 3185--3197 (2017).
    (doi: 10.1021/acs.jctc.7b00174)


                         Additional Contributions by
    P. Kraus, H. Kruse, M. H. Lechner, M. C. Schieber, R. A. Shaw,
    A. Alenaizan, R. Galvelis, Z. L. Glick, S. Lehtola, and J. P. Misiewicz

    -----------------------------------------------------------------------


    Psi4 started on: Tuesday, 10 March 2020 01:37PM

    Process ID: 105861
    Host:       node42.bme.utexas.edu
    PSIDATADIR: /home/bdw2292/miniconda3/envs/p4env/share/psi4
    Memory:     500.0 MiB
    Threads:    1
    
  ==> Input File <==

--------------------------------------------------------------------------
molecule { 
0 1
 C   -1.400973    5.014842   -0.330504
 C   -2.713681    4.525176   -0.291451
 C   -2.946015    3.143056   -0.146711
 C   -1.787378    2.336396   -0.021666
 N   -0.525380    2.783523   -0.048591
 C   -0.345687    4.103563   -0.208309
 C   -4.324059    2.528743   -0.099258
 C   -5.537563    3.234902   -0.094025
 C   -6.694133    2.452136   -0.001263
 N   -6.701622    1.123344    0.061388
 C   -5.491908    0.526368    0.020913
 N   -4.330851    1.182795   -0.055670
 N   -5.505193   -0.860430    0.061004
 C   -4.461727   -1.854014    0.137365
 C   -4.779702   -3.181744    0.555033
 C   -3.719190   -4.101229    0.631269
 C   -2.389949   -3.789668    0.320274
 C   -2.098945   -2.492107   -0.112964
 C   -3.136190   -1.549951   -0.195407
 N   -0.807392   -1.995075   -0.480799
 C    0.445842   -2.549413   -0.370515
 C    1.631654   -1.659794   -0.692465
 C    2.742195   -2.242310   -1.325063
 C    3.845941   -1.461554   -1.676213
 C    3.885348   -0.080578   -1.404723
 C    2.767979    0.488777   -0.765449
 C    1.662520   -0.284344   -0.405401
 C    5.104452    0.766655   -1.771741
 N    6.198558    0.914771   -0.795995
 C    7.052690   -0.257845   -0.500594
 C    6.644993   -1.070369    0.755581
 N    6.469872   -0.258536    1.982146
 C    7.689788    0.066813    2.730580
 C    5.556740    0.868993    1.682242
 C    5.954126    1.700469    0.435103
 O    0.621015   -3.714303   -0.049486
 C   -6.181075   -3.625462    0.938127
 H   -1.199665    6.075029   -0.452763
 H   -3.530909    5.234562   -0.393493
 H   -1.888258    1.268574    0.138395
 H    0.688624    4.443400   -0.230763
 H   -5.612106    4.314984   -0.124229
 H   -7.675231    2.925502    0.029071
 H   -6.455175   -1.186188    0.158713
 H   -3.922336   -5.120583    0.957690
 H   -1.600104   -4.526925    0.398748
 H   -2.919446   -0.548801   -0.530713
 H   -0.816246   -1.053903   -0.848267
 H    2.720964   -3.308297   -1.537927
 H    4.692170   -1.944843   -2.163963
 H    2.754724    1.552916   -0.529999
 H    0.815058    0.184234    0.090126
 H    5.548033    0.354175   -2.690023
 H    4.758390    1.780720   -2.018953
 H    7.153547   -0.887725   -1.377661
 H    8.492889    0.299705   -0.180600
 H    7.538480   -2.005403    0.982519
 H    5.388474   -1.714724    0.491788
 H    8.348507    0.719455    2.146637
 H    8.234476   -0.850352    2.982295
 H    7.433517    0.571848    3.668932
 H    5.474366    1.610467    2.686341
 H    4.261719    0.308593    1.449637
 H    7.314225    2.389287    0.812193
 H    5.226318    2.519694    0.237979
 H   -6.863610   -3.582325    0.077681
 H   -6.603994   -2.988864    1.728049
 H   -6.216100   -4.656354    1.316743
}
memory 20GB
set_num_threads(6)
psi4_io.set_default_path("/scratch/bdw2292")
set freeze_core True
E, wfn = energy('mp2/6-311++G**',return_wfn=True)
oeprop(wfn,"WIBERG_LOWDIN_INDICES")
clean()
--------------------------------------------------------------------------

  Memory set to  18.626 GiB by Python driver.
  Threads set to 6 by Python driver.
    SCF Algorithm Type (re)set to DF.

*** tstart() called on node42.bme.utexas.edu
*** at Tue Mar 10 13:37:11 2020

   => Loading Basis Set <=

    Name: 6-311++G**
    Role: ORBITAL
    Keyword: BASIS
    atoms 1-4, 6-9, 11, 14-19, 21-28, 30-31, 33-35, 37 entry C          line   119 file /home/bdw2292/miniconda3/envs/p4env/share/psi4/basis/6-311ppgss.gbs 
    atoms 5, 10, 12-13, 20, 29, 32                     entry N          line   140 file /home/bdw2292/miniconda3/envs/p4env/share/psi4/basis/6-311ppgss.gbs 
    atoms 36                                           entry O          line   161 file /home/bdw2292/miniconda3/envs/p4env/share/psi4/basis/6-311ppgss.gbs 
    atoms 38-68                                        entry H          line    42 file /home/bdw2292/miniconda3/envs/p4env/share/psi4/basis/6-311ppgss.gbs 


         ---------------------------------------------------------
                                   SCF
               by Justin Turney, Rob Parrish, Andy Simmonett
                          and Daniel G. A. Smith
                              RHF Reference
                        6 Threads,  19073 MiB Core
         ---------------------------------------------------------

  ==> Geometry <==

    Molecular point group: c1
    Full point group: C1

    Geometry (in Angstrom), charge = 0, multiplicity = 1:

       Center              X                  Y                   Z               Mass       
    ------------   -----------------  -----------------  -----------------  -----------------
         C           -1.284742903705     5.010914251096    -0.310603188324    12.000000000000
         C           -2.597450903705     4.521248251096    -0.271550188324    12.000000000000
         C           -2.829784903705     3.139128251096    -0.126810188324    12.000000000000
         C           -1.671147903705     2.332468251096    -0.001765188324    12.000000000000
         N           -0.409149903705     2.779595251096    -0.028690188324    14.003074004430
         C           -0.229456903705     4.099635251096    -0.188408188324    12.000000000000
         C           -4.207828903705     2.524815251096    -0.079357188324    12.000000000000
         C           -5.421332903705     3.230974251096    -0.074124188324    12.000000000000
         C           -6.577902903705     2.448208251096     0.018637811676    12.000000000000
         N           -6.585391903705     1.119416251096     0.081288811676    14.003074004430
         C           -5.375677903705     0.522440251096     0.040813811676    12.000000000000
         N           -4.214620903705     1.178867251096    -0.035769188324    14.003074004430
         N           -5.388962903705    -0.864357748904     0.080904811676    14.003074004430
         C           -4.345496903705    -1.857941748904     0.157265811676    12.000000000000
         C           -4.663471903705    -3.185671748904     0.574933811676    12.000000000000
         C           -3.602959903705    -4.105156748904     0.651169811676    12.000000000000
         C           -2.273718903705    -3.793595748904     0.340174811676    12.000000000000
         C           -1.982714903705    -2.496034748904    -0.093063188324    12.000000000000
         C           -3.019959903705    -1.553878748904    -0.175506188324    12.000000000000
         N           -0.691161903705    -1.999002748904    -0.460898188324    14.003074004430
         C            0.562072096295    -2.553340748904    -0.350614188324    12.000000000000
         C            1.747884096295    -1.663721748904    -0.672564188324    12.000000000000
         C            2.858425096295    -2.246237748904    -1.305162188324    12.000000000000
         C            3.962171096295    -1.465481748904    -1.656312188324    12.000000000000
         C            4.001578096295    -0.084505748904    -1.384822188324    12.000000000000
         C            2.884209096295     0.484849251096    -0.745548188324    12.000000000000
         C            1.778750096295    -0.288271748904    -0.385500188324    12.000000000000
         C            5.220682096295     0.762727251096    -1.751840188324    12.000000000000
         N            6.314788096295     0.910843251096    -0.776094188324    14.003074004430
         C            7.168920096295    -0.261772748904    -0.480693188324    12.000000000000
         C            6.761223096295    -1.074296748904     0.775481811676    12.000000000000
         N            6.586102096295    -0.262463748904     2.002046811676    14.003074004430
         C            7.806018096295     0.062885251096     2.750480811676    12.000000000000
         C            5.672970096295     0.865065251096     1.702142811676    12.000000000000
         C            6.070356096295     1.696541251096     0.455003811676    12.000000000000
         O            0.737245096295    -3.718230748904    -0.029585188324    15.994914619570
         C           -6.064844903705    -3.629389748904     0.958027811676    12.000000000000
         H           -1.083434903705     6.071101251096    -0.432862188324     1.007825032230
         H           -3.414678903705     5.230634251096    -0.373592188324     1.007825032230
         H           -1.772027903705     1.264646251096     0.158295811676     1.007825032230
         H            0.804854096295     4.439472251096    -0.210862188324     1.007825032230
         H           -5.495875903705     4.311056251096    -0.104328188324     1.007825032230
         H           -7.559000903705     2.921574251096     0.048971811676     1.007825032230
         H           -6.338944903705    -1.190115748904     0.178613811676     1.007825032230
         H           -3.806105903705    -5.124510748904     0.977590811676     1.007825032230
         H           -1.483873903705    -4.530852748904     0.418648811676     1.007825032230
         H           -2.803215903705    -0.552728748904    -0.510812188324     1.007825032230
         H           -0.700015903705    -1.057830748904    -0.828366188324     1.007825032230
         H            2.837194096295    -3.312224748904    -1.518026188324     1.007825032230
         H            4.808400096295    -1.948770748904    -2.144062188324     1.007825032230
         H            2.870954096295     1.548988251096    -0.510098188324     1.007825032230
         H            0.931288096295     0.180306251096     0.110026811676     1.007825032230
         H            5.664263096295     0.350247251096    -2.670122188324     1.007825032230
         H            4.874620096295     1.776792251096    -1.999052188324     1.007825032230
         H            7.269777096295    -0.891652748904    -1.357760188324     1.007825032230
         H            8.609119096295     0.295777251096    -0.160699188324     1.007825032230
         H            7.654710096295    -2.009330748904     1.002419811676     1.007825032230
         H            5.504704096295    -1.718651748904     0.511688811676     1.007825032230
         H            8.464737096295     0.715527251096     2.166537811676     1.007825032230
         H            8.350706096295    -0.854279748904     3.002195811676     1.007825032230
         H            7.549747096295     0.567920251096     3.688832811676     1.007825032230
         H            5.590596096295     1.606539251096     2.706241811676     1.007825032230
         H            4.377949096295     0.304665251096     1.469537811676     1.007825032230
         H            7.430455096295     2.385359251096     0.832093811676     1.007825032230
         H            5.342548096295     2.515766251096     0.257879811676     1.007825032230
         H           -6.747379903705    -3.586252748904     0.097581811676     1.007825032230
         H           -6.487763903705    -2.992791748904     1.747949811676     1.007825032230
         H           -6.099869903705    -4.660281748904     1.336643811676     1.007825032230

  Running in c1 symmetry.

  Rotational constants: A =      0.00496  B =      0.00161  C =      0.00129 [cm^-1]
  Rotational constants: A =    148.79564  B =     48.16867  C =     38.74477 [MHz]
  Nuclear repulsion = 3695.094852696274756

  Charge       = 0
  Multiplicity = 1
  Electrons    = 262
  Nalpha       = 131
  Nbeta        = 131

  ==> Algorithm <==

  SCF Algorithm Type is DF.
  DIIS enabled.
  MOM disabled.
  Fractional occupation disabled.
  Guess Type is SAD.
  Energy threshold   = 1.00e-08
  Density threshold  = 1.00e-08
  Integral threshold = 0.00e+00

  ==> Primary Basis <==

  Basis Set: 6-311++G**
    Blend: 6-311++G**
    Number of shells: 525
    Number of basis function: 1031
    Number of Cartesian functions: 1068
    Spherical Harmonics?: true
    Max angular momentum: 2

   => Loading Basis Set <=

    Name: (6-311++G** AUX)
    Role: JKFIT
    Keyword: DF_BASIS_SCF
    atoms 1-4, 6-9, 11, 14-19, 21-28, 30-31, 33-35, 37 entry C          line   162 file /home/bdw2292/miniconda3/envs/p4env/share/psi4/basis/aug-cc-pvtz-jkfit.gbs 
    atoms 5, 10, 12-13, 20, 29, 32                     entry N          line   224 file /home/bdw2292/miniconda3/envs/p4env/share/psi4/basis/aug-cc-pvtz-jkfit.gbs 
    atoms 36                                           entry O          line   286 file /home/bdw2292/miniconda3/envs/p4env/share/psi4/basis/aug-cc-pvtz-jkfit.gbs 
    atoms 38-68                                        entry H          line    70 file /home/bdw2292/miniconda3/envs/p4env/share/psi4/basis/aug-cc-pvtz-jkfit.gbs 

  ==> Pre-Iterations <==

   -------------------------------------------------------
    Irrep   Nso     Nmo     Nalpha   Nbeta   Ndocc  Nsocc
   -------------------------------------------------------
     A       1031    1031       0       0       0       0
   -------------------------------------------------------
    Total    1031    1031     131     131     131       0
   -------------------------------------------------------

  ==> Integral Setup <==

  ==> DiskDFJK: Density-Fitted J/K Matrices <==

    J tasked:                  Yes
    K tasked:                  Yes
    wK tasked:                  No
    OpenMP threads:              6
    Integrals threads:           6
    Memory [MiB]:            14305
    Algorithm:                Core
    Integral Cache:           NONE
    Schwarz Cutoff:          1E-12
    Fitting Condition:       1E-10

   => Auxiliary Basis Set <=

  Basis Set: (6-311++G** AUX)
    Blend: AUG-CC-PVTZ-JKFIT
    Number of shells: 1544
    Number of basis function: 5274
    Number of Cartesian functions: 6552
    Spherical Harmonics?: true
    Max angular momentum: 4

  Minimum eigenvalue in the overlap matrix is 1.1534708963E-07.
  Using Symmetric Orthogonalization.

  SCF Guess: Superposition of Atomic Densities via on-the-fly atomic UHF.

  ==> Iterations <==

                           Total Energy        Delta E     RMS |[F,P]|

   @DF-RHF iter SAD: -1571.20529844320686   -1.57121e+03   0.00000e+00 
   @DF-RHF iter   1: -1571.34674887270353   -1.41450e-01   1.21152e-03 DIIS
   @DF-RHF iter   2: -1572.11204107128242   -7.65292e-01   6.40642e-04 DIIS
   @DF-RHF iter   3: -1572.30526069769076   -1.93220e-01   1.66767e-04 DIIS
   @DF-RHF iter   4: -1572.32271305512222   -1.74524e-02   6.67371e-05 DIIS
   @DF-RHF iter   5: -1572.32540011804076   -2.68706e-03   1.37954e-05 DIIS
   @DF-RHF iter   6: -1572.32556217643742   -1.62058e-04   6.02648e-06 DIIS
   @DF-RHF iter   7: -1572.32559933036350   -3.71539e-05   1.99016e-06 DIIS
   @DF-RHF iter   8: -1572.32560499996976   -5.66961e-06   7.78036e-07 DIIS
   @DF-RHF iter   9: -1572.32560590625894   -9.06289e-07   3.19949e-07 DIIS
   @DF-RHF iter  10: -1572.32560608579047   -1.79532e-07   1.44785e-07 DIIS
   @DF-RHF iter  11: -1572.32560612340831   -3.76178e-08   6.81079e-08 DIIS
   @DF-RHF iter  12: -1572.32560613360010   -1.01918e-08   2.75892e-08 DIIS
   @DF-RHF iter  13: -1572.32560613533951   -1.73941e-09   1.16588e-08 DIIS
   @DF-RHF iter  14: -1572.32560613571468   -3.75167e-10   5.53738e-09 DIIS
  Energy and wave function converged.


  ==> Post-Iterations <==

    Orbital Energies [Eh]
    ---------------------

    Doubly Occupied:                                                      

       1A    -20.521046     2A    -15.604526     3A    -15.602250  
       4A    -15.588386     5A    -15.575167     6A    -15.571673  
       7A    -15.569817     8A    -15.554118     9A    -11.376264  
      10A    -11.363981    11A    -11.335351    12A    -11.315050  
      13A    -11.309697    14A    -11.309455    15A    -11.306517  
      16A    -11.304583    17A    -11.302501    18A    -11.301779  
      19A    -11.301670    20A    -11.293098    21A    -11.290276  
      22A    -11.281485    23A    -11.280027    24A    -11.266662  
      25A    -11.257387    26A    -11.257149    27A    -11.253371  
      28A    -11.253184    29A    -11.250008    30A    -11.247674  
      31A    -11.246244    32A    -11.246057    33A    -11.243502  
      34A    -11.240302    35A    -11.235718    36A    -11.231147  
      37A    -11.225429    38A     -1.386621    39A     -1.345268  
      40A     -1.279672    41A     -1.251562    42A     -1.244978  
      43A     -1.241862    44A     -1.210609    45A     -1.199256  
      46A     -1.162005    47A     -1.140071    48A     -1.116781  
      49A     -1.076200    50A     -1.060044    51A     -1.049398  
      52A     -1.038196    53A     -1.023965    54A     -1.008333  
      55A     -0.994954    56A     -0.976397    57A     -0.946237  
      58A     -0.927459    59A     -0.926374    60A     -0.901546  
      61A     -0.873614    62A     -0.866325    63A     -0.858855  
      64A     -0.842586    65A     -0.837508    66A     -0.830265  
      67A     -0.825441    68A     -0.806070    69A     -0.778615  
      70A     -0.754829    71A     -0.739825    72A     -0.731699  
      73A     -0.722644    74A     -0.700014    75A     -0.695128  
      76A     -0.683738    77A     -0.677974    78A     -0.668592  
      79A     -0.659986    80A     -0.657645    81A     -0.652355  
      82A     -0.645668    83A     -0.638049    84A     -0.629664  
      85A     -0.623750    86A     -0.618924    87A     -0.612845  
      88A     -0.607440    89A     -0.603131    90A     -0.601404  
      91A     -0.599500    92A     -0.596342    93A     -0.592373  
      94A     -0.591123    95A     -0.587681    96A     -0.581320  
      97A     -0.579196    98A     -0.570756    99A     -0.563472  
     100A     -0.562464   101A     -0.548228   102A     -0.545336  
     103A     -0.538151   104A     -0.526004   105A     -0.524110  
     106A     -0.521901   107A     -0.513639   108A     -0.509386  
     109A     -0.507193   110A     -0.499102   111A     -0.498629  
     112A     -0.492277   113A     -0.485479   114A     -0.481462  
     115A     -0.461338   116A     -0.452960   117A     -0.444087  
     118A     -0.429734   119A     -0.426953   120A     -0.424246  
     121A     -0.415474   122A     -0.401277   123A     -0.387974  
     124A     -0.378568   125A     -0.374424   126A     -0.347217  
     127A     -0.345677   128A     -0.341075   129A     -0.315353  
     130A     -0.309039   131A     -0.290842  

    Virtual:                                                              

     132A      0.025671   133A      0.033765   134A      0.040636  
     135A      0.041101   136A      0.044285   137A      0.046720  
     138A      0.050288   139A      0.055992   140A      0.057504  
     141A      0.060937   142A      0.063530   143A      0.066557  
     144A      0.067894   145A      0.068579   146A      0.071754  
     147A      0.073637   148A      0.077113   149A      0.081364  
     150A      0.082472   151A      0.085552   152A      0.088853  
     153A      0.089417   154A      0.091443   155A      0.096149  
     156A      0.097623   157A      0.099199   158A      0.101668  
     159A      0.102105   160A      0.108569   161A      0.110170  
     162A      0.112416   163A      0.113701   164A      0.115105  
     165A      0.116627   166A      0.119199   167A      0.121629  
     168A      0.122724   169A      0.125400   170A      0.127243  
     171A      0.132684   172A      0.137010   173A      0.141608  
     174A      0.143426   175A      0.147186   176A      0.147353  
     177A      0.148518   178A      0.149271   179A      0.152243  
     180A      0.154398   181A      0.158082   182A      0.159739  
     183A      0.162257   184A      0.165149   185A      0.165824  
     186A      0.168062   187A      0.168329   188A      0.170631  
     189A      0.173378   190A      0.174492   191A      0.175614  
     192A      0.178619   193A      0.179835   194A      0.181273  
     195A      0.183993   196A      0.184670   197A      0.186366  
     198A      0.187557   199A      0.190593   200A      0.192376  
     201A      0.192796   202A      0.196539   203A      0.199064  
     204A      0.200644   205A      0.203183   206A      0.205792  
     207A      0.206596   208A      0.208190   209A      0.209728  
     210A      0.210566   211A      0.211005   212A      0.213866  
     213A      0.214978   214A      0.216597   215A      0.217736  
     216A      0.220037   217A      0.223219   218A      0.223956  
     219A      0.225834   220A      0.226448   221A      0.226723  
     222A      0.227449   223A      0.231459   224A      0.235030  
     225A      0.235767   226A      0.237787   227A      0.239322  
     228A      0.240580   229A      0.243496   230A      0.244226  
     231A      0.246519   232A      0.252207   233A      0.253617  
     234A      0.255433   235A      0.257743   236A      0.259707  
     237A      0.261382   238A      0.263579   239A      0.267946  
     240A      0.268288   241A      0.270881   242A      0.274826  
     243A      0.276019   244A      0.277962   245A      0.278936  
     246A      0.280174   247A      0.282056   248A      0.285472  
     249A      0.288954   250A      0.291639   251A      0.293905  
     252A      0.296030   253A      0.298733   254A      0.300860  
     255A      0.304506   256A      0.308677   257A      0.309419  
     258A      0.310376   259A      0.312743   260A      0.314891  
     261A      0.319371   262A      0.321253   263A      0.323847  
     264A      0.327391   265A      0.328625   266A      0.329851  
     267A      0.332749   268A      0.333910   269A      0.334615  
     270A      0.338083   271A      0.340258   272A      0.340888  
     273A      0.343057   274A      0.346625   275A      0.347133  
     276A      0.348963   277A      0.353320   278A      0.354150  
     279A      0.357360   280A      0.359466   281A      0.360641  
     282A      0.361767   283A      0.364045   284A      0.365737  
     285A      0.367974   286A      0.369138   287A      0.371732  
     288A      0.373694   289A      0.375087   290A      0.377904  
     291A      0.379825   292A      0.380910   293A      0.382075  
     294A      0.385695   295A      0.386940   296A      0.387439  
     297A      0.389629   298A      0.390510   299A      0.392842  
     300A      0.393262   301A      0.395787   302A      0.397571  
     303A      0.400308   304A      0.403073   305A      0.404503  
     306A      0.406182   307A      0.408083   308A      0.409302  
     309A      0.410280   310A      0.412517   311A      0.413951  
     312A      0.417478   313A      0.417796   314A      0.420510  
     315A      0.421556   316A      0.422496   317A      0.427732  
     318A      0.430652   319A      0.431084   320A      0.433889  
     321A      0.434261   322A      0.434425   323A      0.438323  
     324A      0.439347   325A      0.441543   326A      0.443847  
     327A      0.446563   328A      0.447316   329A      0.448809  
     330A      0.450436   331A      0.452257   332A      0.454692  
     333A      0.460124   334A      0.463108   335A      0.463533  
     336A      0.464323   337A      0.469549   338A      0.472276  
     339A      0.473039   340A      0.474831   341A      0.476073  
     342A      0.482036   343A      0.483987   344A      0.487301  
     345A      0.488635   346A      0.491171   347A      0.492516  
     348A      0.497546   349A      0.499222   350A      0.502821  
     351A      0.505120   352A      0.505908   353A      0.510565  
     354A      0.513726   355A      0.516649   356A      0.518516  
     357A      0.519710   358A      0.521927   359A      0.525026  
     360A      0.528622   361A      0.530411   362A      0.536536  
     363A      0.540894   364A      0.544818   365A      0.548100  
     366A      0.550528   367A      0.553414   368A      0.560929  
     369A      0.561311   370A      0.565321   371A      0.569902  
     372A      0.580335   373A      0.581587   374A      0.586228  
     375A      0.590456   376A      0.594034   377A      0.601734  
     378A      0.605838   379A      0.608776   380A      0.614996  
     381A      0.617744   382A      0.620851   383A      0.624538  
     384A      0.630807   385A      0.635367   386A      0.645928  
     387A      0.656157   388A      0.658797   389A      0.668735  
     390A      0.686102   391A      0.687859   392A      0.691157  
     393A      0.703105   394A      0.704416   395A      0.709463  
     396A      0.716231   397A      0.719796   398A      0.723928  
     399A      0.729873   400A      0.731627   401A      0.739550  
     402A      0.745011   403A      0.747438   404A      0.751490  
     405A      0.758651   406A      0.759094   407A      0.763708  
     408A      0.765045   409A      0.767505   410A      0.770908  
     411A      0.772572   412A      0.774951   413A      0.782464  
     414A      0.786467   415A      0.790848   416A      0.794558  
     417A      0.798233   418A      0.802354   419A      0.805405  
     420A      0.808540   421A      0.812205   422A      0.814386  
     423A      0.816465   424A      0.822258   425A      0.825420  
     426A      0.826768   427A      0.831876   428A      0.833964  
     429A      0.839385   430A      0.845603   431A      0.847464  
     432A      0.850959   433A      0.853316   434A      0.859174  
     435A      0.862529   436A      0.869155   437A      0.871804  
     438A      0.874217   439A      0.875384   440A      0.877617  
     441A      0.879674   442A      0.884421   443A      0.889273  
     444A      0.890508   445A      0.892413   446A      0.897021  
     447A      0.901413   448A      0.906478   449A      0.907878  
     450A      0.909444   451A      0.912560   452A      0.921557  
     453A      0.923493   454A      0.923994   455A      0.926526  
     456A      0.929581   457A      0.931640   458A      0.935068  
     459A      0.939925   460A      0.943280   461A      0.944442  
     462A      0.945654   463A      0.946640   464A      0.952626  
     465A      0.953092   466A      0.959235   467A      0.964250  
     468A      0.968388   469A      0.970021   470A      0.975293  
     471A      0.977187   472A      0.980125   473A      0.981280  
     474A      0.984698   475A      0.989571   476A      0.992093  
     477A      0.995866   478A      1.002518   479A      1.005992  
     480A      1.009914   481A      1.015844   482A      1.018785  
     483A      1.025479   484A      1.029330   485A      1.032750  
     486A      1.036503   487A      1.037663   488A      1.041807  
     489A      1.049142   490A      1.050387   491A      1.053902  
     492A      1.060438   493A      1.064362   494A      1.069455  
     495A      1.073249   496A      1.075185   497A      1.081148  
     498A      1.085001   499A      1.088860   500A      1.095341  
     501A      1.098960   502A      1.102916   503A      1.104400  
     504A      1.106114   505A      1.119584   506A      1.121872  
     507A      1.131379   508A      1.135046   509A      1.137621  
     510A      1.140332   511A      1.146567   512A      1.151412  
     513A      1.155405   514A      1.158904   515A      1.160055  
     516A      1.166030   517A      1.169134   518A      1.174593  
     519A      1.176485   520A      1.179773   521A      1.182545  
     522A      1.187678   523A      1.190485   524A      1.193165  
     525A      1.198431   526A      1.203728   527A      1.208917  
     528A      1.209716   529A      1.216345   530A      1.216670  
     531A      1.219939   532A      1.224397   533A      1.230236  
     534A      1.235609   535A      1.240760   536A      1.244621  
     537A      1.247012   538A      1.250279   539A      1.256966  
     540A      1.258058   541A      1.258975   542A      1.265421  
     543A      1.273817   544A      1.275298   545A      1.278247  
     546A      1.280168   547A      1.282810   548A      1.284797  
     549A      1.292458   550A      1.296151   551A      1.297458  
     552A      1.313219   553A      1.316678   554A      1.318501  
     555A      1.323862   556A      1.331251   557A      1.336110  
     558A      1.340509   559A      1.345940   560A      1.352428  
     561A      1.360295   562A      1.370011   563A      1.375395  
     564A      1.377471   565A      1.388743   566A      1.391465  
     567A      1.393484   568A      1.406414   569A      1.411230  
     570A      1.417424   571A      1.420208   572A      1.430659  
     573A      1.441414   574A      1.447551   575A      1.451535  
     576A      1.454957   577A      1.463133   578A      1.465586  
     579A      1.467941   580A      1.475839   581A      1.485878  
     582A      1.495631   583A      1.498909   584A      1.503961  
     585A      1.515998   586A      1.528439   587A      1.531365  
     588A      1.539397   589A      1.549222   590A      1.557904  
     591A      1.569422   592A      1.571884   593A      1.595485  
     594A      1.599279   595A      1.604835   596A      1.619585  
     597A      1.625932   598A      1.628274   599A      1.630579  
     600A      1.634584   601A      1.652639   602A      1.673749  
     603A      1.675792   604A      1.686724   605A      1.692759  
     606A      1.700586   607A      1.707862   608A      1.709584  
     609A      1.719770   610A      1.728161   611A      1.732493  
     612A      1.744401   613A      1.749431   614A      1.757278  
     615A      1.761795   616A      1.765060   617A      1.772059  
     618A      1.777493   619A      1.781233   620A      1.783691  
     621A      1.789783   622A      1.794339   623A      1.799915  
     624A      1.806516   625A      1.808775   626A      1.812364  
     627A      1.817125   628A      1.819652   629A      1.822432  
     630A      1.823056   631A      1.824543   632A      1.829081  
     633A      1.838754   634A      1.839991   635A      1.841351  
     636A      1.849631   637A      1.850233   638A      1.855483  
     639A      1.860983   640A      1.862172   641A      1.865599  
     642A      1.867556   643A      1.876349   644A      1.879171  
     645A      1.887301   646A      1.896940   647A      1.901824  
     648A      1.908802   649A      1.912152   650A      1.920825  
     651A      1.927751   652A      1.930867   653A      1.933041  
     654A      1.940356   655A      1.944414   656A      1.951914  
     657A      1.957160   658A      1.961306   659A      1.964589  
     660A      1.968401   661A      1.970482   662A      1.972818  
     663A      1.983442   664A      1.985558   665A      1.990951  
     666A      1.992572   667A      1.995097   668A      1.998546  
     669A      2.000698   670A      2.007518   671A      2.009082  
     672A      2.013727   673A      2.021682   674A      2.029168  
     675A      2.033235   676A      2.043209   677A      2.044762  
     678A      2.049662   679A      2.051501   680A      2.057521  
     681A      2.064803   682A      2.067961   683A      2.070828  
     684A      2.076301   685A      2.083303   686A      2.086719  
     687A      2.090345   688A      2.103691   689A      2.105132  
     690A      2.109971   691A      2.121618   692A      2.122599  
     693A      2.129964   694A      2.140302   695A      2.146898  
     696A      2.158818   697A      2.158931   698A      2.170407  
     699A      2.175501   700A      2.179039   701A      2.182605  
     702A      2.185052   703A      2.194121   704A      2.195868  
     705A      2.202558   706A      2.211949   707A      2.219689  
     708A      2.225197   709A      2.228604   710A      2.236785  
     711A      2.244189   712A      2.249215   713A      2.253095  
     714A      2.255298   715A      2.259023   716A      2.261923  
     717A      2.265383   718A      2.268837   719A      2.272911  
     720A      2.276114   721A      2.280903   722A      2.287073  
     723A      2.294110   724A      2.297399   725A      2.299475  
     726A      2.306626   727A      2.311415   728A      2.316090  
     729A      2.320832   730A      2.333289   731A      2.339467  
     732A      2.340679   733A      2.350049   734A      2.352032  
     735A      2.360286   736A      2.368885   737A      2.377433  
     738A      2.382058   739A      2.387387   740A      2.394659  
     741A      2.402136   742A      2.405838   743A      2.411964  
     744A      2.426028   745A      2.427281   746A      2.433100  
     747A      2.443042   748A      2.448744   749A      2.454354  
     750A      2.456024   751A      2.461286   752A      2.477254  
     753A      2.492097   754A      2.496567   755A      2.513094  
     756A      2.525844   757A      2.528264   758A      2.534810  
     759A      2.548498   760A      2.548955   761A      2.553674  
     762A      2.562818   763A      2.573152   764A      2.576826  
     765A      2.580599   766A      2.591326   767A      2.605554  
     768A      2.622139   769A      2.634228   770A      2.650168  
     771A      2.651136   772A      2.655323   773A      2.660239  
     774A      2.678327   775A      2.683638   776A      2.697315  
     777A      2.698753   778A      2.707230   779A      2.722375  
     780A      2.730200   781A      2.735497   782A      2.746300  
     783A      2.766372   784A      2.780427   785A      2.783608  
     786A      2.791123   787A      2.798211   788A      2.807511  
     789A      2.812965   790A      2.818499   791A      2.827484  
     792A      2.829362   793A      2.834071   794A      2.848183  
     795A      2.854580   796A      2.863151   797A      2.866274  
     798A      2.876775   799A      2.878570   800A      2.893170  
     801A      2.894724   802A      2.898325   803A      2.906720  
     804A      2.918019   805A      2.933451   806A      2.940802  
     807A      2.943907   808A      2.949588   809A      2.954288  
     810A      2.960653   811A      2.965966   812A      2.976080  
     813A      2.977034   814A      2.978239   815A      2.990209  
     816A      2.996445   817A      2.999027   818A      3.006804  
     819A      3.012499   820A      3.019664   821A      3.024675  
     822A      3.030886   823A      3.038512   824A      3.047698  
     825A      3.054849   826A      3.056381   827A      3.057739  
     828A      3.061339   829A      3.070074   830A      3.075334  
     831A      3.081659   832A      3.088477   833A      3.092369  
     834A      3.094889   835A      3.104869   836A      3.106988  
     837A      3.113721   838A      3.116005   839A      3.121186  
     840A      3.122831   841A      3.126580   842A      3.130472  
     843A      3.137518   844A      3.144121   845A      3.148537  
     846A      3.150373   847A      3.163329   848A      3.167520  
     849A      3.173902   850A      3.181739   851A      3.194490  
     852A      3.196347   853A      3.206739   854A      3.209749  
     855A      3.218477   856A      3.226997   857A      3.235014  
     858A      3.239756   859A      3.245007   860A      3.246910  
     861A      3.255173   862A      3.265794   863A      3.272363  
     864A      3.275702   865A      3.285985   866A      3.295351  
     867A      3.299363   868A      3.301478   869A      3.311566  
     870A      3.314612   871A      3.318402   872A      3.325511  
     873A      3.327429   874A      3.327859   875A      3.331815  
     876A      3.335773   877A      3.341992   878A      3.350986  
     879A      3.353383   880A      3.357935   881A      3.362009  
     882A      3.364564   883A      3.386371   884A      3.389893  
     885A      3.392623   886A      3.395169   887A      3.405634  
     888A      3.409387   889A      3.426006   890A      3.428896  
     891A      3.437054   892A      3.460848   893A      3.469411  
     894A      3.506813   895A      3.520279   896A      3.528390  
     897A      3.572275   898A      3.578178   899A      3.602875  
     900A      3.605013   901A      3.612573   902A      3.629707  
     903A      3.633180   904A      3.649933   905A      3.661830  
     906A      3.673767   907A      3.678395   908A      3.680883  
     909A      3.720016   910A      3.763272   911A      3.776639  
     912A      3.783104   913A      3.794950   914A      3.805574  
     915A      3.815528   916A      3.839617   917A      3.857503  
     918A      3.865900   919A      3.873045   920A      3.882452  
     921A      3.900239   922A      3.907805   923A      3.917030  
     924A      3.925842   925A      3.927207   926A      3.937293  
     927A      3.954359   928A      3.960500   929A      3.975009  
     930A      3.992207   931A      4.006682   932A      4.012657  
     933A      4.042868   934A      4.060090   935A      4.074368  
     936A      4.088790   937A      4.093629   938A      4.101328  
     939A      4.120335   940A      4.125823   941A      4.142319  
     942A      4.155798   943A      4.181334   944A      4.187545  
     945A      4.194109   946A      4.202723   947A      4.203016  
     948A      4.207924   949A      4.254474   950A      4.309221  
     951A      4.355034   952A      4.363071   953A      4.379197  
     954A      4.402594   955A      4.413728   956A      4.416935  
     957A      4.425962   958A      4.428613   959A      4.433890  
     960A      4.437665   961A      4.450349   962A      4.461045  
     963A      4.518840   964A      4.544632   965A      4.551167  
     966A      4.582753   967A      4.585865   968A      4.602773  
     969A      4.627254   970A      4.674316   971A      4.709645  
     972A      4.767844   973A      4.770054   974A      4.792871  
     975A      4.907492   976A      4.940722   977A      5.010832  
     978A      5.048754   979A      5.229153   980A      5.247515  
     981A      5.269404   982A      5.283897   983A      5.293014  
     984A      5.336379   985A      5.352277   986A      5.382433  
     987A      5.413430   988A      5.607965   989A      5.686723  
     990A      5.697266   991A      5.798902   992A      5.851362  
     993A      5.879253   994A      6.393693   995A     24.770813  
     996A     24.772712   997A     24.818125   998A     24.839304  
     999A     24.841228  1000A     24.911923  1001A     24.936085  
    1002A     24.992465  1003A     25.012186  1004A     25.017335  
    1005A     25.042147  1006A     25.069266  1007A     25.070233  
    1008A     25.091240  1009A     25.100000  1010A     25.121139  
    1011A     25.126287  1012A     25.130097  1013A     25.136026  
    1014A     25.151086  1015A     25.170919  1016A     25.202201  
    1017A     25.210859  1018A     25.233791  1019A     25.245240  
    1020A     25.247359  1021A     25.252120  1022A     25.321293  
    1023A     25.327823  1024A     36.948928  1025A     36.984691  
    1026A     37.020944  1027A     37.069567  1028A     37.076163  
    1029A     37.132146  1030A     37.150934  1031A     51.761756  

    Final Occupation by Irrep:
              A 
    DOCC [   131 ]

  @DF-RHF Final Energy: -1572.32560613571468

   => Energetics <=

    Nuclear Repulsion Energy =           3695.0948526962747565
    One-Electron Energy =               -9488.3883639209543617
    Two-Electron Energy =                4220.9679050889653809
    Total Energy =                      -1572.3256061357142244

Computation Completed


Properties will be evaluated at   0.000000,   0.000000,   0.000000 [a0]

Properties computed using the SCF density matrix

  Nuclear Dipole Moment: [e a0]
     X:    42.3378      Y:     1.9013      Z:     7.3950

  Electronic Dipole Moment: [e a0]
     X:   -43.6832      Y:     0.6634      Z:    -7.9437

  Dipole Moment: [e a0]
     X:    -1.3454      Y:     2.5648      Z:    -0.5487     Total:     2.9477

  Dipole Moment: [D]
     X:    -3.4197      Y:     6.5190      Z:    -1.3945     Total:     7.4924


*** tstop() called on node42.bme.utexas.edu at Tue Mar 10 13:50:42 2020
Module time:
	user time   =    4656.45 seconds =      77.61 minutes
	system time =      21.85 seconds =       0.36 minutes
	total time  =        811 seconds =      13.52 minutes
Total time:
	user time   =    4656.45 seconds =      77.61 minutes
	system time =      21.85 seconds =       0.36 minutes
	total time  =        811 seconds =      13.52 minutes

*** tstart() called on node42.bme.utexas.edu
*** at Tue Mar 10 13:50:42 2020


  //>>>>>>>>>>>>>>>>>>>>>>>>>>>>>>>>>>>//
  //               DFMP2               //
  //<<<<<<<<<<<<<<<<<<<<<<<<<<<<<<<<<<<//

   => Loading Basis Set <=

    Name: (6-311++G** AUX)
    Role: RIFIT
    Keyword: DF_BASIS_MP2
    atoms 1-4, 6-9, 11, 14-19, 21-28, 30-31, 33-35, 37 entry C          line   148 file /home/bdw2292/miniconda3/envs/p4env/share/psi4/basis/aug-cc-pvtz-ri.gbs 
    atoms 5, 10, 12-13, 20, 29, 32                     entry N          line   206 file /home/bdw2292/miniconda3/envs/p4env/share/psi4/basis/aug-cc-pvtz-ri.gbs 
    atoms 36                                           entry O          line   264 file /home/bdw2292/miniconda3/envs/p4env/share/psi4/basis/aug-cc-pvtz-ri.gbs 
    atoms 38-68                                        entry H          line    30 file /home/bdw2292/miniconda3/envs/p4env/share/psi4/basis/aug-cc-pvtz-ri.gbs 

	 --------------------------------------------------------
	                          DF-MP2                         
	      2nd-Order Density-Fitted Moller-Plesset Theory     
	              RMP2 Wavefunction,   6 Threads             
	                                                         
	        Rob Parrish, Justin Turney, Andy Simmonett,      
	           Ed Hohenstein, and C. David Sherrill          
	 --------------------------------------------------------

   => Auxiliary Basis Set <=

  Basis Set: (6-311++G** AUX)
    Blend: AUG-CC-PVTZ-RI
    Number of shells: 1470
    Number of basis function: 5348
    Number of Cartesian functions: 6737
    Spherical Harmonics?: true
    Max angular momentum: 4

	 --------------------------------------------------------
	                 NBF =  1031, NAUX =  5348
	 --------------------------------------------------------
	   CLASS    FOCC     OCC    AOCC    AVIR     VIR    FVIR
	   PAIRS      37     131      94     900     900       0
	 --------------------------------------------------------

	-----------------------------------------------------------
	 ==================> DF-MP2 Energies <==================== 
	-----------------------------------------------------------
	 Reference Energy          =   -1572.3256061357146791 [Eh]
	 Singles Energy            =      -0.0000000000000000 [Eh]
	 Same-Spin Energy          =      -1.4714451042704684 [Eh]
	 Opposite-Spin Energy      =      -4.0498498853558269 [Eh]
	 Correlation Energy        =      -5.5212949896262948 [Eh]
	 Total Energy              =   -1577.8469011253409917 [Eh]
	-----------------------------------------------------------
	 ================> DF-SCS-MP2 Energies <================== 
	-----------------------------------------------------------
	 SCS Same-Spin Scale       =       0.3333333333333333 [-]
	 SCS Opposite-Spin Scale   =       1.2000000000000000 [-]
	 SCS Same-Spin Energy      =      -0.4904817014234895 [Eh]
	 SCS Opposite-Spin Energy  =      -4.8598198624269919 [Eh]
	 SCS Correlation Energy    =      -5.3503015638504809 [Eh]
	 SCS Total Energy          =   -1577.6759076995651867 [Eh]
	-----------------------------------------------------------


*** tstop() called on node42.bme.utexas.edu at Tue Mar 10 13:58:38 2020
Module time:
	user time   =    2679.29 seconds =      44.65 minutes
	system time =      17.37 seconds =       0.29 minutes
	total time  =        476 seconds =       7.93 minutes
Total time:
	user time   =    7335.74 seconds =     122.26 minutes
	system time =      39.22 seconds =       0.65 minutes
	total time  =       1287 seconds =      21.45 minutes


Properties will be evaluated at   0.000000,   0.000000,   0.000000 [a0]
OEProp: No title given, name of density matrix used for the following properties is 'SCF density'


  Wiberg Bond Indices using Orthogonal Lowdin Orbitals:

  Irrep: 1 Size: 68 x 68

                 1                   2                   3                   4                   5

    1     0.00000000000000     1.46405042054717     0.12494936545352     0.14046921911464     0.12365913338866
    2     1.46405042054717     0.00000000000000     1.40196396673685     0.12878141141447     0.12139789382667
    3     0.12494936545352     1.40196396673685     0.00000000000000     1.36083512363561     0.11832513583619
    4     0.14046921911464     0.12878141141447     1.36083512363561     0.00000000000000     1.66170459953721
    5     0.12365913338866     0.12139789382667     0.11832513583619     1.66170459953721     0.00000000000000
    6     1.46636079435639     0.13818951388465     0.13572218154135     0.15376686784386     1.62637094598813
    7     0.01457673903531     0.10298454131658     1.01958784925997     0.10315774156193     0.01381609910953
    8     0.00352865804331     0.04125909884840     0.09763436814317     0.02374127799516     0.00216571111449
    9     0.00036176406361     0.00464512236849     0.01473125758116     0.00407325416241     0.00067850850453
   10     0.00040593279552     0.00535246710324     0.00574619537757     0.00602365720467     0.00032143527765
   11     0.00088033222529     0.00336391445272     0.01810820844242     0.00686050179182     0.00042907595182
   12     0.00279695407689     0.02220657918802     0.11996847651789     0.06203532299669     0.00408575473131
   13     0.00016744298590     0.00048368942324     0.00163556611183     0.00094385293969     0.00008824418020
   14     0.00003128758254     0.00009479517631     0.00057729500936     0.00133562349486     0.00011627970561
   15     0.00001050237179     0.00002291461023     0.00006797471263     0.00015038714230     0.00001626297600
   16     0.00000211264825     0.00000586439988     0.00004150039257     0.00026593355347     0.00001320923454
   17     0.00001277592795     0.00001974644909     0.00005534079104     0.00028545090147     0.00004409732087
   18     0.00002649060326     0.00005525153046     0.00029581141702     0.00189754040757     0.00022550454711
   19     0.00016412027910     0.00025499325120     0.00207975731827     0.01095601617127     0.00063711130437
   20     0.00005579341201     0.00007494622296     0.00034578823894     0.00332135200375     0.00062604669163
   21     0.00001255283928     0.00001355149354     0.00005407561696     0.00040858334213     0.00020138334204
   22     0.00004955594623     0.00003742295382     0.00004673364219     0.00059175715227     0.00146145834157
   23     0.00000983349690     0.00000506279669     0.00001256980856     0.00018202255762     0.00051242849982
   24     0.00000936859920     0.00000497449259     0.00001273537744     0.00019659907138     0.00046892837242
   25     0.00001788089962     0.00001470043872     0.00001822849825     0.00010990830245     0.00050662006764
   26     0.00019640397603     0.00020824499403     0.00026517793638     0.00135571467116     0.01062878674320
   27     0.00047245367674     0.00030509322645     0.00039153408478     0.00631665407465     0.02151513672096
   28     0.00000555936693     0.00000220218331     0.00000265301566     0.00001703989453     0.00007095845723
   29     0.00000137013655     0.00000058057596     0.00000091212826     0.00000613400015     0.00001765306237
   30     0.00000075925222     0.00000025032202     0.00000033831429     0.00000297237977     0.00000629850182
   31     0.00000116131675     0.00000060761850     0.00000060448519     0.00000459432460     0.00001182802181
   32     0.00000109397545     0.00000090070262     0.00000101011933     0.00000402816156     0.00001150972772
   33     0.00000037096250     0.00000015079220     0.00000024789528     0.00000054575998     0.00000289202078
   34     0.00000381152910     0.00000228252098     0.00000278532641     0.00001303695617     0.00006504489871
   35     0.00000549472234     0.00000190470409     0.00000199343182     0.00000571733881     0.00004002736851
   36     0.00000203011401     0.00000265352982     0.00001388914509     0.00011823330597     0.00003860068859
   37     0.00000215969148     0.00000732669216     0.00003196759078     0.00003688284029     0.00000314085149
   38     0.88611967823486     0.07925927673359     0.01175183504246     0.00636125090997     0.01069420426643
   39     0.07765621014655     0.87056372941783     0.07274011035745     0.01177395467254     0.00394870753980
   40     0.00566751584444     0.01054560501696     0.06940113215194     0.84982974519204     0.08661846549148
   41     0.07728885573732     0.01178250871381     0.00602898076038     0.01590908716723     0.08764135829270
   42     0.00106374332363     0.01401270600827     0.01420831256525     0.00134741996755     0.00028603516132
   43     0.00004424288353     0.00028070675290     0.00144542958032     0.00031482566313     0.00007697662742
   44     0.00002475147444     0.00008327828097     0.00035107563285     0.00009134298922     0.00000773741442
   45     0.00000034349723     0.00000105586762     0.00000677813747     0.00001897701878     0.00000170044518
   46     0.00000091780224     0.00000173108467     0.00000740685096     0.00002648598885     0.00000820933768
   47     0.00012308476860     0.00021402723569     0.00211319794130     0.00825750965258     0.00061782109451
   48     0.00011164888405     0.00007794887133     0.00021859269919     0.00249976783345     0.00073228680952
   49     0.00000120505993     0.00000056699234     0.00000118122234     0.00000993985001     0.00003775174125
   50     0.00000074694810     0.00000049204915     0.00000135379341     0.00001410879260     0.00002627129444
   51     0.00008043504411     0.00007377168223     0.00011076545230     0.00030741628787     0.00287986599173
   52     0.00034974469660     0.00013676062288     0.00025960926170     0.00484281250173     0.01263848773044
   53     0.00000036348084     0.00000012064258     0.00000029647339     0.00000540276031     0.00000705936649
   54     0.00000386906738     0.00000248486508     0.00000274876515     0.00000368365603     0.00001760236905
   55     0.00000005473428     0.00000003232096     0.00000004169402     0.00000058955860     0.00000094495054
   56     0.00000018198020     0.00000005252409     0.00000006311797     0.00000066057071     0.00000109643012
   57     0.00000015107649     0.00000002677494     0.00000007028031     0.00000033373102     0.00000063736233
   58     0.00000078816668     0.00000051698021     0.00000051272178     0.00000498172949     0.00001022078834
   59     0.00000008402363     0.00000002580717     0.00000004350514     0.00000015236224     0.00000056721685
   60     0.00000002754691     0.00000001240587     0.00000001955886     0.00000009597827     0.00000054691604
   61     0.00000004079287     0.00000002283755     0.00000007334368     0.00000008849801     0.00000027338242
   62     0.00000064611632     0.00000050045538     0.00000051126217     0.00000067934162     0.00000462895101
   63     0.00000271865216     0.00000266208617     0.00000266242528     0.00000935202580     0.00004869466312
   64     0.00000021765085     0.00000006363945     0.00000015105527     0.00000121248250     0.00000310424037
   65     0.00001200691263     0.00000417055847     0.00000178745617     0.00000201684879     0.00001534434502
   66     0.00000071170556     0.00000181596343     0.00001059175754     0.00000843228794     0.00000058864481
   67     0.00000115576608     0.00000293672897     0.00001065298413     0.00000877392104     0.00000075894025
   68     0.00000026030034     0.00000073505123     0.00000391793233     0.00000828015403     0.00000048270655

                 6                   7                   8                   9                  10

    1     1.46636079435639     0.01457673903531     0.00352865804331     0.00036176406361     0.00040593279552
    2     0.13818951388465     0.10298454131658     0.04125909884840     0.00464512236849     0.00535246710324
    3     0.13572218154135     1.01958784925997     0.09763436814317     0.01473125758116     0.00574619537757
    4     0.15376686784386     0.10315774156193     0.02374127799516     0.00407325416241     0.00602365720467
    5     1.62637094598813     0.01381609910953     0.00216571111449     0.00067850850453     0.00032143527765
    6     0.00000000000000     0.00964764831096     0.00680499374780     0.00119157038513     0.00334324363495
    7     0.00964764831096     0.00000000000000     1.38938771714206     0.14703362438751     0.11211312796873
    8     0.00680499374780     1.38938771714206     0.00000000000000     1.43172872078671     0.13065978271196
    9     0.00119157038513     0.14703362438751     1.43172872078671     0.00000000000000     1.66309817198991
   10     0.00334324363495     0.11211312796873     0.13065978271196     1.66309817198991     0.00000000000000
   11     0.00084879629995     0.14157497518921     0.11315412466487     0.15277679217363     1.50715264368291
   12     0.00602935422074     1.53082523539467     0.12619262908487     0.11105553820766     0.10991189884425
   13     0.00007415966687     0.01930511833908     0.02048665391621     0.02413981737565     0.15892882644731
   14     0.00004527824339     0.00291219666686     0.00247198132207     0.00325349332232     0.01678362221152
   15     0.00000582005965     0.00050396282888     0.00143486423134     0.00093309268258     0.00311389144657
   16     0.00000421178764     0.00016727689055     0.00019273764418     0.00016423559107     0.00047064025968
   17     0.00000775525781     0.00025095620904     0.00127951881502     0.00044206613783     0.00125205523429
   18     0.00004404999812     0.00056664640190     0.00026504195730     0.00014283258253     0.00040880302109
   19     0.00019881153397     0.00582853709375     0.00311061903982     0.00153988315793     0.00429724879371
   20     0.00007603189298     0.00013894322945     0.00003004405270     0.00001836014574     0.00005958929556
   21     0.00002363721062     0.00002269133159     0.00000821612796     0.00000470376792     0.00001523283275
   22     0.00014408755643     0.00000781860815     0.00000264332780     0.00000123624538     0.00000375653478
   23     0.00013052556667     0.00000237100870     0.00000103660886     0.00000041141053     0.00000092224509
   24     0.00012268025745     0.00000162678929     0.00000075370580     0.00000016383524     0.00000023660503
   25     0.00021532975555     0.00000292786144     0.00000216483343     0.00000038035605     0.00000052917764
   26     0.00213287677841     0.00002824673262     0.00001633555564     0.00000256731108     0.00000267031266
   27     0.00196992474739     0.00006366497290     0.00001502918617     0.00000402159377     0.00000310932205
   28     0.00004731392760     0.00000073494312     0.00000026859786     0.00000005068907     0.00000007128911
   29     0.00001477370640     0.00000026982181     0.00000006759694     0.00000001815774     0.00000002235309
   30     0.00000546018838     0.00000008420196     0.00000004313600     0.00000001224510     0.00000001840661
   31     0.00000824498909     0.00000011851513     0.00000004345423     0.00000001242332     0.00000001713104
   32     0.00000594682157     0.00000013071709     0.00000005309242     0.00000001664518     0.00000001749004
   33     0.00000233882609     0.00000005953848     0.00000001874123     0.00000000538988     0.00000000483606
   34     0.00003330746502     0.00000043402689     0.00000028990368     0.00000004838505     0.00000014917849
   35     0.00001893324104     0.00000061373998     0.00000023386980     0.00000005270392     0.00000005335475
   36     0.00000725943122     0.00001101290038     0.00000840790837     0.00000417956104     0.00001138624844
   37     0.00000189009596     0.00014331522533     0.00013640504727     0.00013337434116     0.00073000359385
   38     0.08243363453788     0.00128161252450     0.00024429012805     0.00003851032514     0.00002513489807
   39     0.01173542271635     0.01615647408238     0.01468238871316     0.00113322005131     0.00039411753881
   40     0.01472639232969     0.01556262766382     0.00166163161877     0.00039632803284     0.00060860262077
   41     0.87920961718410     0.00053935498537     0.00026405708814     0.00005176380389     0.00010399831213
   42     0.00047655625675     0.07576219105705     0.87629339930328     0.08042103608218     0.01040352877878
   43     0.00004327891533     0.01180549614025     0.07623920930926     0.87541151938251     0.08892116422510
   44     0.00001164520620     0.00206191031211     0.00200646946994     0.00361947146678     0.03094826909931
   45     0.00000041021810     0.00001853807480     0.00000852258502     0.00002332729640     0.00005276381951
   46     0.00000122043159     0.00002321100856     0.00004110943596     0.00001649670624     0.00005131596997
   47     0.00020569987743     0.00428600236326     0.00094408922010     0.00043907962070     0.00077069784649
   48     0.00009311442509     0.00009117774957     0.00002820989710     0.00001010190571     0.00002045244587
   49     0.00001052600563     0.00000040928063     0.00000015009209     0.00000006583804     0.00000015655115
   50     0.00000541017076     0.00000009434587     0.00000008501481     0.00000002075901     0.00000002994843
   51     0.00129265783642     0.00001126471610     0.00000510493451     0.00000080606204     0.00000082264724
   52     0.00124452322870     0.00004819352448     0.00001179110559     0.00000327604500     0.00000246022786
   53     0.00000208456003     0.00000006343950     0.00000001524101     0.00000000433969     0.00000000588407
   54     0.00002053078826     0.00000026683883     0.00000030322873     0.00000003924948     0.00000013401531
   55     0.00000081877869     0.00000001018807     0.00000000826942     0.00000000362781     0.00000000217295
   56     0.00000446642888     0.00000002185551     0.00000000915922     0.00000000293810     0.00000000313042
   57     0.00000066894660     0.00000001729327     0.00000000731650     0.00000000124573     0.00000000262828
   58     0.00000847027856     0.00000009854923     0.00000002381113     0.00000000680374     0.00000001805732
   59     0.00000126105079     0.00000001679932     0.00000000727505     0.00000000267771     0.00000000209181
   60     0.00000034757353     0.00000000522585     0.00000000193348     0.00000000059216     0.00000000057098
   61     0.00000014218615     0.00000001365330     0.00000000192399     0.00000000118426     0.00000000053493
   62     0.00000258603085     0.00000005511485     0.00000005183905     0.00000000754514     0.00000002250669
   63     0.00003100502973     0.00000039949744     0.00000018157204     0.00000003933915     0.00000009452895
   64     0.00000505975162     0.00000005956634     0.00000001868618     0.00000000745270     0.00000000660345
   65     0.00002153904243     0.00000059324412     0.00000012551390     0.00000002442732     0.00000005979518
   66     0.00000037082096     0.00004065447572     0.00007169851843     0.00003941215985     0.00022469498440
   67     0.00000136019119     0.00004827542415     0.00011596705434     0.00004423467304     0.00034221539135
   68     0.00000016963123     0.00001420885824     0.00000626455004     0.00000449896032     0.00003357769064

                11                  12                  13                  14                  15

    1     0.00088033222529     0.00279695407689     0.00016744298590     0.00003128758254     0.00001050237179
    2     0.00336391445272     0.02220657918802     0.00048368942324     0.00009479517631     0.00002291461023
    3     0.01810820844242     0.11996847651789     0.00163556611183     0.00057729500936     0.00006797471263
    4     0.00686050179182     0.06203532299669     0.00094385293969     0.00133562349486     0.00015038714230
    5     0.00042907595182     0.00408575473131     0.00008824418020     0.00011627970561     0.00001626297600
    6     0.00084879629995     0.00602935422074     0.00007415966687     0.00004527824339     0.00000582005965
    7     0.14157497518921     1.53082523539467     0.01930511833908     0.00291219666686     0.00050396282888
    8     0.11315412466487     0.12619262908487     0.02048665391621     0.00247198132207     0.00143486423134
    9     0.15277679217363     0.11105553820766     0.02413981737565     0.00325349332232     0.00093309268258
   10     1.50715264368291     0.10991189884425     0.15892882644731     0.01678362221152     0.00311389144657
   11     0.00000000000000     1.53261773064950     1.26937308086094     0.08239059326035     0.01788734506799
   12     1.53261773064950     0.00000000000000     0.14155254875873     0.02959092391379     0.00348923625408
   13     1.26937308086094     0.14155254875873     0.00000000000000     1.12534043121349     0.10557160747528
   14     0.08239059326035     0.02959092391379     1.12534043121349     0.00000000000000     1.31670484062273
   15     0.01788734506799     0.00348923625408     0.10557160747528     1.31670484062273     0.00000000000000
   16     0.00238833992418     0.00117661647089     0.01430671693173     0.12596339910994     1.44161807563195
   17     0.00413992337204     0.00248139333694     0.01182349386512     0.11951370963939     0.12409652373141
   18     0.00244902985619     0.00494605731525     0.01322614921411     0.12284134041466     0.12006425893988
   19     0.02864069241975     0.05601714189991     0.11078401583286     1.40323064405955     0.11931814329380
   20     0.00034921619508     0.00114422210705     0.00133472955165     0.01516114354287     0.01125659063134
   21     0.00006227450200     0.00013776266103     0.00030583503144     0.00277662614431     0.00575002364219
   22     0.00001172320407     0.00002669985371     0.00005567484244     0.00035557131565     0.00031851048946
   23     0.00000324768071     0.00000443358289     0.00001308939341     0.00009710896322     0.00029996564946
   24     0.00000067824727     0.00000144400822     0.00000216303964     0.00001695768803     0.00003168183392
   25     0.00000080440283     0.00000284152100     0.00000201451627     0.00002327458996     0.00015135271184
   26     0.00000215094123     0.00001171879023     0.00000257496853     0.00001239317536     0.00003528829858
   27     0.00001408913390     0.00011568838079     0.00001364526157     0.00011284159099     0.00034123967785
   28     0.00000013256619     0.00000047873094     0.00000024951114     0.00000222094314     0.00001112289486
   29     0.00000005869961     0.00000017649467     0.00000010723028     0.00000136575425     0.00001000023329
   30     0.00000003381926     0.00000008559731     0.00000003307915     0.00000030013153     0.00000141219974
   31     0.00000004096969     0.00000014620110     0.00000003204001     0.00000033971908     0.00000080205586
   32     0.00000004997625     0.00000023015869     0.00000001931248     0.00000021294983     0.00000012667288
   33     0.00000003008422     0.00000004698671     0.00000000579208     0.00000004259425     0.00000010640268
   34     0.00000009695744     0.00000030964347     0.00000003295207     0.00000034976462     0.00000108464971
   35     0.00000006578511     0.00000027745356     0.00000005436531     0.00000037130047     0.00000123195107
   36     0.00004058222404     0.00005592474450     0.00015203840966     0.00103948620175     0.00338227947148
   37     0.00363717277800     0.00078050927023     0.03772181435858     0.09657063138028     1.06083771971332
   38     0.00009017694430     0.00031376663902     0.00001627267808     0.00000692744887     0.00000081068260
   39     0.00028750170720     0.00109312592515     0.00006703654371     0.00002557930026     0.00000405952826
   40     0.00277359080968     0.02542627140706     0.00043575658701     0.00125121540017     0.00016480148464
   41     0.00004322832711     0.00025313994275     0.00000562723936     0.00000403833854     0.00000058254713
   42     0.00573378065193     0.01070091404508     0.00103631824739     0.00011991869678     0.00006457316763
   43     0.01580462816398     0.00400326541665     0.00133513317567     0.00038205225852     0.00006183738713
   44     0.07346368212597     0.01151842648436     0.93487988643283     0.05948296412153     0.01488091151263
   45     0.00036751573772     0.00006341179065     0.00115784151043     0.01143794453482     0.07477854154072
   46     0.00014769831013     0.00015677153498     0.00051035231675     0.00524596400994     0.01051244708217
   47     0.00979963360526     0.03859639000282     0.01603290712416     0.07326210334951     0.00964894083126
   48     0.00012310201510     0.00069877367520     0.00017784872663     0.00207811349468     0.00111949252495
   49     0.00000069175981     0.00000065413198     0.00000262958194     0.00001637022864     0.00001839728652
   50     0.00000007208094     0.00000014724733     0.00000050242875     0.00000279093192     0.00000388784165
   51     0.00000079789984     0.00000274351038     0.00000033169053     0.00000117447199     0.00000159497047
   52     0.00000925689391     0.00005448837421     0.00000491408869     0.00003703149437     0.00010594578322
   53     0.00000001215811     0.00000006570269     0.00000003884578     0.00000027793787     0.00000058241700
   54     0.00000003076829     0.00000016184543     0.00000006435786     0.00000029669226     0.00000151028044
   55     0.00000000580039     0.00000001250480     0.00000000792215     0.00000004935820     0.00000013647714
   56     0.00000001177206     0.00000002418185     0.00000001444856     0.00000013818327     0.00000045458651
   57     0.00000000614823     0.00000001195407     0.00000000422353     0.00000003734083     0.00000008463745
   58     0.00000001851266     0.00000008233133     0.00000008112701     0.00000042821725     0.00000122089784
   59     0.00000000771383     0.00000002209159     0.00000000294710     0.00000000948186     0.00000003541953
   60     0.00000000160630     0.00000000421644     0.00000000078290     0.00000000613498     0.00000001650015
   61     0.00000000435182     0.00000001030917     0.00000000140560     0.00000000404554     0.00000000736228
   62     0.00000000730580     0.00000003965029     0.00000001021026     0.00000003011979     0.00000008296010
   63     0.00000010125697     0.00000065722134     0.00000006750484     0.00000030458158     0.00000128703650
   64     0.00000000945351     0.00000003167465     0.00000001295897     0.00000011896493     0.00000050408904
   65     0.00000003485601     0.00000010906149     0.00000001474114     0.00000003370172     0.00000005900610
   66     0.00068528905113     0.00024481478318     0.00840021927006     0.01643017906394     0.05846394939920
   67     0.00103234055829     0.00031420933799     0.01095779861058     0.01672438408097     0.05822296502645
   68     0.00023419300263     0.00006295754316     0.00199437344659     0.00897048984877     0.05943878725773

                16                  17                  18                  19                  20

    1     0.00000211264825     0.00001277592795     0.00002649060326     0.00016412027910     0.00005579341201
    2     0.00000586439988     0.00001974644909     0.00005525153046     0.00025499325120     0.00007494622296
    3     0.00004150039257     0.00005534079104     0.00029581141702     0.00207975731827     0.00034578823894
    4     0.00026593355347     0.00028545090147     0.00189754040757     0.01095601617127     0.00332135200375
    5     0.00001320923454     0.00004409732087     0.00022550454711     0.00063711130437     0.00062604669163
    6     0.00000421178764     0.00000775525781     0.00004404999812     0.00019881153397     0.00007603189298
    7     0.00016727689055     0.00025095620904     0.00056664640190     0.00582853709375     0.00013894322945
    8     0.00019273764418     0.00127951881502     0.00026504195730     0.00311061903982     0.00003004405270
    9     0.00016423559107     0.00044206613783     0.00014283258253     0.00153988315793     0.00001836014574
   10     0.00047064025968     0.00125205523429     0.00040880302109     0.00429724879371     0.00005958929556
   11     0.00238833992418     0.00413992337204     0.00244902985619     0.02864069241975     0.00034921619508
   12     0.00117661647089     0.00248139333694     0.00494605731525     0.05601714189991     0.00114422210705
   13     0.01430671693173     0.01182349386512     0.01322614921411     0.11078401583286     0.00133472955165
   14     0.12596339910994     0.11951370963939     0.12284134041466     1.40323064405955     0.01516114354287
   15     1.44161807563195     0.12409652373141     0.12006425893988     0.11931814329380     0.01125659063134
   16     0.00000000000000     1.44427413222696     0.13314301536334     0.12570023114441     0.01362077705595
   17     1.44427413222696     0.00000000000000     1.39992851542418     0.12166365849601     0.10423777148572
   18     0.13314301536334     1.39992851542418     0.00000000000000     1.36197270104255     1.12545611548028
   19     0.12570023114441     0.12166365849601     1.36197270104255     0.00000000000000     0.12467108402783
   20     0.01362077705595     0.10423777148572     1.12545611548028     0.12467108402783     0.00000000000000
   21     0.00275798425054     0.03114918659173     0.08638046966694     0.02260339223490     1.31499396857508
   22     0.00035132617972     0.00325379990094     0.01459964435630     0.00207581919730     0.10455739935495
   23     0.00010098160734     0.00087304334087     0.00232142454078     0.00065759505048     0.01785050486755
   24     0.00002124452406     0.00013124312340     0.00048611815849     0.00009988680714     0.00246465416302
   25     0.00002523687661     0.00025541838816     0.00044155449275     0.00021629481672     0.00342446244311
   26     0.00002145836934     0.00016354950478     0.00040923187056     0.00012867651072     0.00359480228191
   27     0.00014052020790     0.00117325062060     0.00386827032390     0.00118404320818     0.04202412644406
   28     0.00000246788647     0.00002176315059     0.00003957202797     0.00001716289959     0.00026685139353
   29     0.00000147336644     0.00001471169363     0.00002028188909     0.00001259248654     0.00015208714321
   30     0.00000042068188     0.00000320781317     0.00000513452750     0.00000272096250     0.00002903201867
   31     0.00000036029599     0.00000351141668     0.00000753349227     0.00000285385465     0.00002726461752
   32     0.00000008393541     0.00000058461155     0.00000274096853     0.00000083828984     0.00000740644878
   33     0.00000005361659     0.00000020546437     0.00000095166628     0.00000028344819     0.00000145027247
   34     0.00000043383522     0.00000430496406     0.00000742069906     0.00000414127663     0.00003108584073
   35     0.00000041084503     0.00000307150782     0.00000505426056     0.00000242279290     0.00002779911294
   36     0.00350069211347     0.04922345154208     0.03205518371979     0.00524118098476     0.19264617311320
   37     0.11545638636590     0.01435876138647     0.00735778872492     0.01395496091618     0.00071655859036
   38     0.00000033192008     0.00000069543423     0.00000527868409     0.00002279211290     0.00000537608669
   39     0.00000168107760     0.00000191817156     0.00000644786689     0.00003859568510     0.00000786866659
   40     0.00022808340712     0.00024958404356     0.00193089178960     0.00901818394389     0.00238905581328
   41     0.00000045550745     0.00000076440664     0.00000287495351     0.00001435868798     0.00000606000804
   42     0.00001084703466     0.00004649787973     0.00003016109399     0.00020156097161     0.00000705938537
   43     0.00001576002242     0.00001189765125     0.00001521244658     0.00010730284587     0.00000174542314
   44     0.00151085266029     0.00107437627362     0.00130496963192     0.01048463699371     0.00024310088204
   45     0.87158053038240     0.07894703123475     0.01176912161053     0.00565347182436     0.00103160753109
   46     0.07707623344739     0.85978022540068     0.07563004498818     0.01122718695098     0.01451904661509
   47     0.00565379216388     0.01015689292884     0.07126900615357     0.83710932386672     0.02420984044478
   48     0.00136604042120     0.01013470110931     0.06236994378907     0.02165472516470     0.93602671449738
   49     0.00002586443704     0.00015832831344     0.00024948350664     0.00007287823392     0.00168113019791
   50     0.00000293449043     0.00001878180710     0.00006457509265     0.00001743502248     0.00028851802546
   51     0.00000212046069     0.00001346694220     0.00002997053679     0.00000857395963     0.00019886815217
   52     0.00004969137862     0.00034303211581     0.00141373077735     0.00057044298156     0.01493051725356
   53     0.00000045116494     0.00000241760634     0.00001072826812     0.00000224500837     0.00005652484026
   54     0.00000052311253     0.00000360021309     0.00000656527399     0.00000276018307     0.00004380863192
   55     0.00000006585158     0.00000037867783     0.00000091133362     0.00000045653104     0.00000694309677
   56     0.00000009572326     0.00000066572590     0.00000270517465     0.00000110684905     0.00000690135432
   57     0.00000003744546     0.00000016995464     0.00000062558595     0.00000024663205     0.00000195013683
   58     0.00000063113715     0.00000409657181     0.00000741814766     0.00000446005372     0.00003006134277
   59     0.00000001327966     0.00000008500186     0.00000023679166     0.00000008928826     0.00000040597695
   60     0.00000001355291     0.00000002156458     0.00000013276173     0.00000004449447     0.00000028162130
   61     0.00000000454360     0.00000004108988     0.00000006265341     0.00000003604310     0.00000032244805
   62     0.00000002634785     0.00000029761156     0.00000039358983     0.00000021423027     0.00000201230724
   63     0.00000053219883     0.00000239381714     0.00000655178106     0.00000317379164     0.00005254526085
   64     0.00000010823433     0.00000092577371     0.00000132260411     0.00000087639499     0.00000753173544
   65     0.00000006395221     0.00000036769300     0.00000069404257     0.00000026110821     0.00000506324173
   66     0.01562451864051     0.00127096862403     0.00308162793414     0.00120685091195     0.00038015683836
   67     0.01461233194097     0.00125551716906     0.00266121192559     0.00126366841696     0.00031339111602
   68     0.02373730511241     0.00189238800909     0.00056471399015     0.00108740471410     0.00008516054797

                21                  22                  23                  24                  25

    1     0.00001255283928     0.00004955594623     0.00000983349690     0.00000936859920     0.00001788089962
    2     0.00001355149354     0.00003742295382     0.00000506279669     0.00000497449259     0.00001470043872
    3     0.00005407561696     0.00004673364219     0.00001256980856     0.00001273537744     0.00001822849825
    4     0.00040858334213     0.00059175715227     0.00018202255762     0.00019659907138     0.00010990830245
    5     0.00020138334204     0.00146145834157     0.00051242849982     0.00046892837242     0.00050662006764
    6     0.00002363721062     0.00014408755643     0.00013052556667     0.00012268025745     0.00021532975555
    7     0.00002269133159     0.00000781860815     0.00000237100870     0.00000162678929     0.00000292786144
    8     0.00000821612796     0.00000264332780     0.00000103660886     0.00000075370580     0.00000216483343
    9     0.00000470376792     0.00000123624538     0.00000041141053     0.00000016383524     0.00000038035605
   10     0.00001523283275     0.00000375653478     0.00000092224509     0.00000023660503     0.00000052917764
   11     0.00006227450200     0.00001172320407     0.00000324768071     0.00000067824727     0.00000080440283
   12     0.00013776266103     0.00002669985371     0.00000443358289     0.00000144400822     0.00000284152100
   13     0.00030583503144     0.00005567484244     0.00001308939341     0.00000216303964     0.00000201451627
   14     0.00277662614431     0.00035557131565     0.00009710896322     0.00001695768803     0.00002327458996
   15     0.00575002364219     0.00031851048946     0.00029996564946     0.00003168183392     0.00015135271184
   16     0.00275798425054     0.00035132617972     0.00010098160734     0.00002124452406     0.00002523687661
   17     0.03114918659173     0.00325379990094     0.00087304334087     0.00013124312340     0.00025541838816
   18     0.08638046966694     0.01459964435630     0.00232142454078     0.00048611815849     0.00044155449275
   19     0.02260339223490     0.00207581919730     0.00065759505048     0.00009988680714     0.00021629481672
   20     1.31499396857508     0.10455739935495     0.01785050486755     0.00246465416302     0.00342446244311
   21     0.00000000000000     0.97252861217050     0.11126322846745     0.01477261225703     0.01108336860943
   22     0.97252861217050     0.00000000000000     1.38496593499323     0.12693028587241     0.12399303733313
   23     0.11126322846745     1.38496593499323     0.00000000000000     1.47022358449269     0.12665588200184
   24     0.01477261225703     0.12693028587241     1.47022358449269     0.00000000000000     1.39509627945378
   25     0.01108336860943     0.12399303733313     0.12665588200184     1.39509627945378     0.00000000000000
   26     0.01447497661169     0.12737588243378     0.13101821481924     0.12568434342351     1.40442136464516
   27     0.10495144812602     1.40153095814388     0.12409650695176     0.12956253938123     0.12652417844556
   28     0.00073535035953     0.00912720518556     0.01442270907422     0.10889606141848     1.01705616498491
   29     0.00039268864666     0.00439404134673     0.00195672791346     0.02129974767203     0.08739692995924
   30     0.00009481888264     0.00104096651438     0.00191888459312     0.01488450229794     0.02051259429213
   31     0.00007756939407     0.00167159488392     0.00973217322449     0.02392855125183     0.01959219488240
   32     0.00005970208029     0.00069763849545     0.00107187224274     0.00272036663432     0.00410876427367
   33     0.00000914706390     0.00011306343750     0.00026362743341     0.00070644460339     0.00114884898622
   34     0.00007607195375     0.00177480109876     0.00208032151638     0.00510044602004     0.01973846831260
   35     0.00009234594186     0.00106126132562     0.00094730136459     0.00461232076778     0.02097626713929
   36     2.17699702180070     0.13701532810843     0.05524537483460     0.00422969514561     0.00610412217720
[...]
   15     0.00000045458651     0.00000008463745     0.00000122089784     0.00000003541953     0.00000001650015
   16     0.00000009572326     0.00000003744546     0.00000063113715     0.00000001327966     0.00000001355291
   17     0.00000066572590     0.00000016995464     0.00000409657181     0.00000008500186     0.00000002156458
   18     0.00000270517465     0.00000062558595     0.00000741814766     0.00000023679166     0.00000013276173
   19     0.00000110684905     0.00000024663205     0.00000446005372     0.00000008928826     0.00000004449447
   20     0.00000690135432     0.00000195013683     0.00003006134277     0.00000040597695     0.00000028162130
   21     0.00003357822361     0.00000815210760     0.00008538483714     0.00000208816999     0.00000106055111
   22     0.00026562602038     0.00010065085803     0.00192520832757     0.00001245360537     0.00001108220050
   23     0.00043764335777     0.00027206609897     0.00864237375866     0.00002555075327     0.00003607937639
   24     0.00093417378348     0.00078898692929     0.02222899015329     0.00008947593388     0.00007236307914
   25     0.00150151293020     0.00067193962448     0.01293820135514     0.00018092376367     0.00010008187338
   26     0.00055265195845     0.00021870671820     0.00407734407062     0.00008805768038     0.00004513901151
   27     0.00017315549417     0.00011130875162     0.00205555588714     0.00002517894511     0.00002667140918
   28     0.01224739449298     0.00105782869457     0.00633447817844     0.00069039239381     0.00012145312204
   29     0.06606050787111     0.01170743249227     0.01190674610519     0.00330795228889     0.00069346795892
   30     0.77069378610314     0.05784096001426     0.04405934880821     0.01280133752091     0.00400059635244
   31     0.05015125164999     0.85193757570170     0.78239477106519     0.01641047175744     0.02010408342535
   32     0.01405303176438     0.05316520781355     0.05858693913148     0.06764103322721     0.06271942076670
   33     0.01617498009511     0.02189169927641     0.01213757762212     0.91086598168074     0.91959089344115
   34     0.00835582549500     0.01442280709452     0.02013346984808     0.01631209566804     0.01262694119856
   35     0.02294351716862     0.00209652274711     0.00735306500382     0.01281077938987     0.00177870487842
   36     0.00001266226480     0.00000271167047     0.00004373993340     0.00000061552768     0.00000062815783
   37     0.00000006740991     0.00000001890761     0.00000009691645     0.00000000710110     0.00000000778356
   38     0.00000001088068     0.00000000281249     0.00000005464699     0.00000000500912     0.00000000541177
   39     0.00000000419979     0.00000001300399     0.00000003983619     0.00000000192202     0.00000000100554
   40     0.00000045943099     0.00000012600174     0.00000190290513     0.00000005022797     0.00000002633380
   41     0.00000475150355     0.00000012505154     0.00000503551617     0.00000055777571     0.00000010755862
   42     0.00000000077733     0.00000000038420     0.00000000659533     0.00000000067764     0.00000000042083
   43     0.00000000012811     0.00000000059523     0.00000000140896     0.00000000015873     0.00000000006815
   44     0.00000000213298     0.00000000042911     0.00000000783233     0.00000000050793     0.00000000007696
   45     0.00000002510507     0.00000000825716     0.00000006071871     0.00000000224304     0.00000000148097
   46     0.00000010462499     0.00000002615033     0.00000174796830     0.00000000973265     0.00000000349627
   47     0.00000025170649     0.00000011776405     0.00000085544488     0.00000003248262     0.00000001121135
   48     0.00000149024496     0.00000091557417     0.00001631188515     0.00000032873095     0.00000010093222
   49     0.00005770678601     0.00002799406431     0.00071277646966     0.00000263463218     0.00000313841373
   50     0.00010877673461     0.00016451119721     0.00393840659603     0.00003708093924     0.00001807350678
   51     0.00014278473492     0.00002041283260     0.00026402961864     0.00003690501687     0.00000812463568
   52     0.00001105618479     0.00000302431941     0.00005833104986     0.00000238272467     0.00000109746902
   53     0.00121877620968     0.00010125400159     0.00092194585770     0.00006566598199     0.00002061814682
   54     0.00050471343444     0.00034380474920     0.00036327021929     0.00006730953863     0.00002187346088
   55     0.02414053796323     0.00581290717247     0.00835207547848     0.00056667978677     0.00015576291189
   56     0.00000000000000     0.01010151967235     0.02286073938610     0.00822071178361     0.00177690085890
   57     0.01010151967235     0.00000000000000     0.01875100044746     0.00308303705096     0.00701320394892
   58     0.02286073938610     0.01875100044746     0.00000000000000     0.00099095164916     0.00104829222743
   59     0.00822071178361     0.00308303705096     0.00099095164916     0.00000000000000     0.03490449757716
   60     0.00177690085890     0.00701320394892     0.00104829222743     0.03490449757716     0.00000000000000
   61     0.00068769783319     0.00115179463389     0.00065888394459     0.03492589457497     0.03775003509570
   62     0.00045816790587     0.00125247780257     0.00092224760647     0.00298182545760     0.00113610818397
   63     0.00090469377233     0.00097554013529     0.00518181782143     0.00097829119824     0.00066136490464
   64     0.00603086381521     0.00043397682599     0.00090321519595     0.00812413223768     0.00067953712886
   65     0.00088060623768     0.00036770728077     0.00045450011354     0.00054181782898     0.00022431816523
   66     0.00000001846698     0.00000000267728     0.00000003971793     0.00000000127221     0.00000000022683
   67     0.00000002167156     0.00000000379869     0.00000008195738     0.00000000145988     0.00000000058713
   68     0.00000000098044     0.00000000029639     0.00000000898802     0.00000000049695     0.00000000031558

                61                  62                  63                  64                  65

    1     0.00000004079287     0.00000064611632     0.00000271865216     0.00000021765085     0.00001200691263
    2     0.00000002283755     0.00000050045538     0.00000266208617     0.00000006363945     0.00000417055847
    3     0.00000007334368     0.00000051126217     0.00000266242528     0.00000015105527     0.00000178745617
    4     0.00000008849801     0.00000067934162     0.00000935202580     0.00000121248250     0.00000201684879
    5     0.00000027338242     0.00000462895101     0.00004869466312     0.00000310424037     0.00001534434502
    6     0.00000014218615     0.00000258603085     0.00003100502973     0.00000505975162     0.00002153904243
    7     0.00000001365330     0.00000005511485     0.00000039949744     0.00000005956634     0.00000059324412
    8     0.00000000192399     0.00000005183905     0.00000018157204     0.00000001868618     0.00000012551390
    9     0.00000000118426     0.00000000754514     0.00000003933915     0.00000000745270     0.00000002442732
   10     0.00000000053493     0.00000002250669     0.00000009452895     0.00000000660345     0.00000005979518
   11     0.00000000435182     0.00000000730580     0.00000010125697     0.00000000945351     0.00000003485601
   12     0.00000001030917     0.00000003965029     0.00000065722134     0.00000003167465     0.00000010906149
   13     0.00000000140560     0.00000001021026     0.00000006750484     0.00000001295897     0.00000001474114
   14     0.00000000404554     0.00000003011979     0.00000030458158     0.00000011896493     0.00000003370172
   15     0.00000000736228     0.00000008296010     0.00000128703650     0.00000050408904     0.00000005900610
   16     0.00000000454360     0.00000002634785     0.00000053219883     0.00000010823433     0.00000006395221
   17     0.00000004108988     0.00000029761156     0.00000239381714     0.00000092577371     0.00000036769300
   18     0.00000006265341     0.00000039358983     0.00000655178106     0.00000132260411     0.00000069404257
   19     0.00000003604310     0.00000021423027     0.00000317379164     0.00000087639499     0.00000026110821
   20     0.00000032244805     0.00000201230724     0.00005254526085     0.00000753173544     0.00000506324173
   21     0.00000084659395     0.00000660100230     0.00008476640421     0.00002971392759     0.00002059838938
   22     0.00001197062809     0.00010902098107     0.00205141078493     0.00027189301677     0.00020146413576
   23     0.00002518584014     0.00010848021732     0.00210113652496     0.00017764344527     0.00018840385892
   24     0.00004369645593     0.00022222630229     0.00419471514762     0.00055190528892     0.00053343387186
   25     0.00009797560094     0.00070790775409     0.01309945833615     0.00146196642515     0.00565035932040
   26     0.00007121587635     0.00083420284415     0.02199111698640     0.00093825124334     0.00596839568302
   27     0.00003481834087     0.00028352990026     0.00892514870954     0.00041963591923     0.00046963669771
   28     0.00012118252824     0.00107925023134     0.00635411256904     0.01217231462358     0.01985368334217
   29     0.00067303012428     0.01111061045636     0.01200380552719     0.06579139291184     0.05788741154718
   30     0.00180064524543     0.00219804865753     0.00732229019468     0.02276611840969     0.01221209470320
   31     0.01275987288587     0.01398089070571     0.02013825657301     0.00828891235209     0.00259606314750
   32     0.06297269743973     0.05416324587345     0.05802035041689     0.01401489043399     0.01034404980299
   33     0.91968765719666     0.02109518604206     0.01208969132493     0.01602375650634     0.00165286078320
   34     0.01943268545676     0.86331924621814     0.78218815073104     0.04989970325529     0.06035152874324
   35     0.00392389040583     0.05825726057636     0.04403542617270     0.77358195557740     0.88855325040690
   36     0.00000049470377     0.00000376750277     0.00003468874580     0.00001506889762     0.00001248833780
   37     0.00000000100303     0.00000000593927     0.00000010583775     0.00000003288777     0.00000001067864
   38     0.00000000387632     0.00000003945810     0.00000017786589     0.00000003374465     0.00000030129267
   39     0.00000000108505     0.00000004217244     0.00000028862830     0.00000000813746     0.00000021998687
   40     0.00000000733725     0.00000006049771     0.00000147241259     0.00000011372590     0.00000022687786
   41     0.00000014987532     0.00000173908495     0.00001314273840     0.00000523023473     0.00000723251538
   42     0.00000000028587     0.00000000336415     0.00000001098141     0.00000000065412     0.00000001286775
   43     0.00000000006472     0.00000000038078     0.00000000844729     0.00000000057527     0.00000000090319
   44     0.00000000039907     0.00000000108835     0.00000000640141     0.00000000256510     0.00000000425237
   45     0.00000000037188     0.00000000218583     0.00000009978829     0.00000000607291     0.00000000861659
   46     0.00000000552414     0.00000004664576     0.00000089679160     0.00000014731874     0.00000014610311
   47     0.00000002618682     0.00000007555299     0.00000081847692     0.00000025500760     0.00000005417133
   48     0.00000024201709     0.00000089741846     0.00002401645024     0.00000165884659     0.00000293171738
   49     0.00000122834091     0.00000388615956     0.00005920494852     0.00001414151058     0.00002156721790
   50     0.00000851747289     0.00001863570112     0.00028875698254     0.00013613431778     0.00007589230347
   51     0.00001824332588     0.00017594295811     0.00388548542816     0.00011284264818     0.00268520253641
   52     0.00000334462840     0.00002811739131     0.00070208030292     0.00006078060054     0.00003029418738
   53     0.00002093932477     0.00031829614963     0.00036824259437     0.00051582995262     0.00107970563783
   54     0.00002059655868     0.00010612797819     0.00091868948469     0.00121576333276     0.00591738009637
   55     0.00022396085987     0.00033497393820     0.00047343787791     0.00088933125463     0.00112922598203
   56     0.00068769783319     0.00045816790587     0.00090469377233     0.00603086381521     0.00088060623768
   57     0.00115179463389     0.00125247780257     0.00097554013529     0.00043397682599     0.00036770728077
   58     0.00065888394459     0.00092224760647     0.00518181782143     0.00090321519595     0.00045450011354
   59     0.03492589457497     0.00298182545760     0.00097829119824     0.00812413223768     0.00054181782898
   60     0.03775003509570     0.00113610818397     0.00066136490464     0.00067953712886     0.00022431816523
   61     0.00000000000000     0.00665065814802     0.00102908399370     0.00175704166891     0.00014433023291
   62     0.00665065814802     0.00000000000000     0.01985381328713     0.00997494384117     0.00579691357397
   63     0.00102908399370     0.01985381328713     0.00000000000000     0.02256569580079     0.00847398747745
   64     0.00175704166891     0.00997494384117     0.02256569580079     0.00000000000000     0.02317281736780
   65     0.00014433023291     0.00579691357397     0.00847398747745     0.02317281736780     0.00000000000000
   66     0.00000000036430     0.00000000241406     0.00000004436456     0.00000002216968     0.00000000546870
   67     0.00000000039059     0.00000000230534     0.00000008780762     0.00000002013650     0.00000000278561
   68     0.00000000005353     0.00000000038292     0.00000000782135     0.00000000223469     0.00000000104619

                66                  67                  68

    1     0.00000071170556     0.00000115576608     0.00000026030034
    2     0.00000181596343     0.00000293672897     0.00000073505123
    3     0.00001059175754     0.00001065298413     0.00000391793233
    4     0.00000843228794     0.00000877392104     0.00000828015403
    5     0.00000058864481     0.00000075894025     0.00000048270655
    6     0.00000037082096     0.00000136019119     0.00000016963123
    7     0.00004065447572     0.00004827542415     0.00001420885824
    8     0.00007169851843     0.00011596705434     0.00000626455004
    9     0.00003941215985     0.00004423467304     0.00000449896032
   10     0.00022469498440     0.00034221539135     0.00003357769064
   11     0.00068528905113     0.00103234055829     0.00023419300263
   12     0.00024481478318     0.00031420933799     0.00006295754316
   13     0.00840021927006     0.01095779861058     0.00199437344659
   14     0.01643017906394     0.01672438408097     0.00897048984877
   15     0.05846394939920     0.05822296502645     0.05943878725773
   16     0.01562451864051     0.01461233194097     0.02373730511241
   17     0.00127096862403     0.00125551716906     0.00189238800909
   18     0.00308162793414     0.00266121192559     0.00056471399015
   19     0.00120685091195     0.00126366841696     0.00108740471410
   20     0.00038015683836     0.00031339111602     0.00008516054797
   21     0.00022275952530     0.00019282403562     0.00003176250230
   22     0.00001193184436     0.00001286806820     0.00000677657468
   23     0.00001167753173     0.00001145990132     0.00000160284612
   24     0.00000117014428     0.00000127737861     0.00000028861821
   25     0.00000667961446     0.00000569366002     0.00000035026249
   26     0.00000146147828     0.00000138529655     0.00000033526899
   27     0.00001453267641     0.00001213744670     0.00000278785945
   28     0.00000049017263     0.00000041724013     0.00000005223776
   29     0.00000045172400     0.00000035887164     0.00000001614802
   30     0.00000006397119     0.00000003394017     0.00000000721511
   31     0.00000002707510     0.00000002369141     0.00000000614228
   32     0.00000000460085     0.00000000981749     0.00000000462757
   33     0.00000000317488     0.00000000449897     0.00000000093344
   34     0.00000003679316     0.00000003167874     0.00000000789642
   35     0.00000006066679     0.00000003342228     0.00000001064542
   36     0.00012967464494     0.00011928321965     0.00001718163111
   37     0.91953774194340     0.91846713834924     0.92016100887599
   38     0.00000008291910     0.00000010120346     0.00000003897652
   39     0.00000024128665     0.00000032471506     0.00000010088440
   40     0.00000719438193     0.00000786788001     0.00000824146371
   41     0.00000005140754     0.00000007640695     0.00000004310030
   42     0.00000315828537     0.00000464171597     0.00000046748914
   43     0.00000252587675     0.00000323624255     0.00000061994426
   44     0.00438314898471     0.00464030131175     0.00102607537897
   45     0.00130066393267     0.00118396932827     0.00761070984710
   46     0.00020215694012     0.00022493495231     0.00012756849411
   47     0.00017968925288     0.00018518356115     0.00034732034833
   48     0.00003848623113     0.00004221558234     0.00003859927546
   49     0.00000084516611     0.00000073223553     0.00000046175249
   50     0.00000021832023     0.00000015229233     0.00000007520380
   51     0.00000006518010     0.00000009695469     0.00000004770752
   52     0.00000447568276     0.00000325298196     0.00000120455142
   53     0.00000003004553     0.00000001884221     0.00000000892401
   54     0.00000007330385     0.00000005308179     0.00000000886147
   55     0.00000000787886     0.00000000297774     0.00000000091408
   56     0.00000001846698     0.00000002167156     0.00000000098044
   57     0.00000000267728     0.00000000379869     0.00000000029639
   58     0.00000003971793     0.00000008195738     0.00000000898802
   59     0.00000000127221     0.00000000145988     0.00000000049695
   60     0.00000000022683     0.00000000058713     0.00000000031558
   61     0.00000000036430     0.00000000039059     0.00000000005353
   62     0.00000000241406     0.00000000230534     0.00000000038292
   63     0.00000004436456     0.00000008780762     0.00000000782135
   64     0.00000002216968     0.00000002013650     0.00000000223469
   65     0.00000000546870     0.00000000278561     0.00000000104619
   66     0.00000000000000     0.03494109654663     0.03830134460194
   67     0.03494109654663     0.00000000000000     0.03857927002230
   68     0.03830134460194     0.03857927002230     0.00000000000000



  Atomic Valences: 

 #  #
 Irrep: 1
      1:  4.3918581
      2:  4.4228654
      3:  4.6022085
      4:  4.5816349
      5:  3.9166122
      6:  4.5452075
      7:  4.7424184
      8:  4.3683457
      9:  4.5238127
     10:  3.8631158
     11:  4.9997560
     12:  3.9627679
     13:  4.0348516
     14:  4.6648499
     15:  4.6249388
     16:  4.4374025
     17:  4.4018145
     18:  4.6684011
     19:  4.4270456
     20:  4.0813337
     21:  5.0022096
     22:  4.6192743
     23:  4.4362389
     24:  4.4768050
     25:  4.7200468
     26:  4.4873050
     27:  4.4645678
     28:  4.4984529
     29:  4.2534987
     30:  4.5587463
     31:  4.5726010
     32:  4.2260084
     33:  4.2873681
     34:  4.5718342
     35:  4.5569534
     36:  2.7602410
     37:  4.1505253
     38:  1.0979694
     39:  1.1014592
     40:  1.1147748
     41:  1.0917391
     42:  1.1092787
     43:  1.0860089
     44:  1.1752033
     45:  1.0997809
     46:  1.1067084
     47:  1.1363123
     48:  1.1845735
     49:  1.0980112
     50:  1.1068469
     51:  1.1104763
     52:  1.1147539
     53:  1.1071345
     54:  1.1078086
     55:  1.1264691
     56:  1.0427234
     57:  1.0659052
     58:  1.0613861
     59:  1.1367983
     60:  1.1073535
     61:  1.1067117
     62:  1.0775083
     63:  1.0621613
     64:  1.0430210
     65:  1.1175675
     66:  1.1054920
     67:  1.1065769
     68:  1.1044046


    Psi4 stopped on: Tuesday, 10 March 2020 01:58PM
    Psi4 wall time for execution: 0:21:27.63

*** Psi4 exiting successfully. Buy a developer a beer!
