 Entering Gaussian System, Link 0=g09
 Input=MOLECULE0-opt-29-28-25-24-337.com
 Output=MOLECULE0-opt-29-28-25-24-337.log
 Initial command:
 /opt/g09gh/gaussian/g09/l1.exe /scratch/bdw2292/Gau-MOLECULE0/Gau-20654.inp -scrdir=/scratch/bdw2292/Gau-MOLECULE0/
 Entering Link 1 = /opt/g09gh/gaussian/g09/l1.exe PID=     20655.
  
 Copyright (c) 1988,1990,1992,1993,1995,1998,2003,2009, Gaussian, Inc.
                  All Rights Reserved.
  
 This is part of the Gaussian(R) 09 program.  It is based on
 the Gaussian(R) 03 system (copyright 2003, Gaussian, Inc.),
 the Gaussian(R) 98 system (copyright 1998, Gaussian, Inc.),
 the Gaussian(R) 94 system (copyright 1995, Gaussian, Inc.),
 the Gaussian 92(TM) system (copyright 1992, Gaussian, Inc.),
 the Gaussian 90(TM) system (copyright 1990, Gaussian, Inc.),
 the Gaussian 88(TM) system (copyright 1988, Gaussian, Inc.),
 the Gaussian 86(TM) system (copyright 1986, Carnegie Mellon
 University), and the Gaussian 82(TM) system (copyright 1983,
 Carnegie Mellon University). Gaussian is a federally registered
 trademark of Gaussian, Inc.
  
 This software contains proprietary and confidential information,
 including trade secrets, belonging to Gaussian, Inc.
  
 This software is provided under written license and may be
 used, copied, transmitted, or stored only in accord with that
 written license.
  
 The following legend is applicable only to US Government
 contracts under FAR:
  
                    RESTRICTED RIGHTS LEGEND
  
 Use, reproduction and disclosure by the US Government is
 subject to restrictions as set forth in subparagraphs (a)
 and (c) of the Commercial Computer Software - Restricted
 Rights clause in FAR 52.227-19.
  
 Gaussian, Inc.
 340 Quinnipiac St., Bldg. 40, Wallingford CT 06492
  
  
 ---------------------------------------------------------------
 Warning -- This program may not be used in any manner that
 competes with the business of Gaussian, Inc. or will provide
 assistance to any competitor of Gaussian, Inc.  The licensee
 of this program is prohibited from giving any competitor of
 Gaussian, Inc. access to this program.  By using this program,
 the user acknowledges that Gaussian, Inc. is engaged in the
 business of creating and licensing software in the field of
 computational chemistry and represents and warrants to the
 licensee that it is not a competitor of Gaussian, Inc. and that
 it will not use this program in any manner prohibited above.
 ---------------------------------------------------------------
  

 Cite this work as:
 Gaussian 09, Revision A.02,
 M. J. Frisch, G. W. Trucks, H. B. Schlegel, G. E. Scuseria, 
 M. A. Robb, J. R. Cheeseman, G. Scalmani, V. Barone, B. Mennucci, 
 G. A. Petersson, H. Nakatsuji, M. Caricato, X. Li, H. P. Hratchian, 
 A. F. Izmaylov, J. Bloino, G. Zheng, J. L. Sonnenberg, M. Hada, 
 M. Ehara, K. Toyota, R. Fukuda, J. Hasegawa, M. Ishida, T. Nakajima, 
 Y. Honda, O. Kitao, H. Nakai, T. Vreven, J. A. Montgomery, Jr., 
 J. E. Peralta, F. Ogliaro, M. Bearpark, J. J. Heyd, E. Brothers, 
 K. N. Kudin, V. N. Staroverov, R. Kobayashi, J. Normand, 
 K. Raghavachari, A. Rendell, J. C. Burant, S. S. Iyengar, J. Tomasi, 
 M. Cossi, N. Rega, J. M. Millam, M. Klene, J. E. Knox, J. B. Cross, 
 V. Bakken, C. Adamo, J. Jaramillo, R. Gomperts, R. E. Stratmann, 
 O. Yazyev, A. J. Austin, R. Cammi, C. Pomelli, J. W. Ochterski, 
 R. L. Martin, K. Morokuma, V. G. Zakrzewski, G. A. Voth, 
 P. Salvador, J. J. Dannenberg, S. Dapprich, A. D. Daniels, 
 O. Farkas, J. B. Foresman, J. V. Ortiz, J. Cioslowski, 
 and D. J. Fox, Gaussian, Inc., Wallingford CT, 2009.
 
 ******************************************
 Gaussian 09:  EM64L-G09RevA.02 11-Jun-2009
                10-Mar-2020 
 ******************************************
 %RWF=/scratch/bdw2292/Gau-MOLECULE0/,100GB
 %Nosave
 %Chk=MOLECULE0-opt-29-28-25-24-337.chk
 %Mem=20GB
 %Nproc=6
 Will use up to    6 processors via shared memory.
 --------------------------------------------------
 #P opt=(,maxcycle=400) wB97XD/6-31G* MaxDisk=100GB
 --------------------------------------------------
 1/6=400,14=-1,18=20,19=15,26=3,38=1/1,3;
 2/9=110,12=2,17=6,18=5,40=1/2;
 3/5=1,6=6,7=1,11=2,16=1,25=1,30=1,71=1,74=-58/1,2,3;
 4//1;
 5/5=2,38=5/2;
 6/7=2,8=2,9=2,10=2,28=1/1;
 7//1,2,3,16;
 1/6=400,14=-1,18=20,19=15/3(2);
 2/9=110/2;
 99//99;
 2/9=110/2;
 3/5=1,6=6,7=1,11=2,16=1,25=1,30=1,71=1,74=-58/1,2,3;
 4/5=5,16=3/1;
 5/5=2,38=5/2;
 7//1,2,3,16;
 1/6=400,14=-1,18=20,19=15/3(-5);
 2/9=110/2;
 6/7=2,8=2,9=2,10=2,19=2,28=1/1;
 99/9=1/99;
 Leave Link    1 at Tue Mar 10 14:52:24 2020, MaxMem= 2684354560 cpu:       0.5
 (Enter /opt/g09gh/gaussian/g09/l101.exe)
 -----------------------------------------------------------------
 MOLECULE0 Rotatable Bond Optimization on g2-node38.bme.utexas.edu
 -----------------------------------------------------------------
 Symbolic Z-matrix:
 Charge =  0 Multiplicity = 1
 C                    -1.90404   1.57204   5.18528 
 C                    -0.73286   1.06948   5.76731 
 C                     0.0572    0.13591   5.06731 
 C                    -0.40333  -0.20177   3.77029 
 N                    -1.51662   0.26858   3.19231 
 C                    -2.25571   1.137     3.90286 
 C                     1.3089   -0.48854   5.63676 
 C                     1.8778   -0.17628   6.8824 
 C                     3.03535  -0.88685   7.21776 
 N                     3.59419  -1.81973   6.45256 
 C                     2.97332  -2.06725   5.28004 
 N                     1.87317  -1.43495   4.85957 
 N                     3.55902  -3.05505   4.49931 
 C                     3.27937  -3.57402   3.18338 
 C                     4.27493  -4.33519   2.49877 
 C                     3.95241  -4.80578   1.21403 
 C                     2.72957  -4.56367   0.57658 
 C                     1.76171  -3.82602   1.26525 
 C                     2.04786  -3.35441   2.55632 
 N                     0.47192  -3.45918   0.77142 
 C                    -0.09581  -3.57076  -0.47627 
 C                    -1.39902  -2.82628  -0.69587 
 C                    -1.66066  -1.58362  -0.09708 
 C                    -2.88428  -0.94413  -0.29321 
 C                    -3.8958   -1.49958  -1.09421 
 C                    -3.60525  -2.7378   -1.70839 
 C                    -2.3799   -3.38631  -1.52806 
 C                    -5.28213  -0.8783   -1.29729 
 N                    -5.98968   0.06342  -0.40593 
 C                    -5.60342   1.49342  -0.32263 
 C                    -4.72893   1.92475   0.88297 
 N                    -5.24492   1.48422   2.20057 
 C                    -6.28787   2.31137   2.82036 
 C                    -5.51101   0.02492   2.14126 
 C                    -6.38769  -0.41187   0.94049 
 O                     0.39269  -4.24769  -1.36701 
 C                     5.64455  -4.63754   3.08211 
 H                    -2.53786   2.27784   5.71367 
 H                    -0.47614   1.40113   6.77028 
 H                     0.17394  -0.88616   3.15803 
 H                    -3.1676    1.50037   3.43221 
 H                     1.48056   0.56723   7.56245 
 H                     3.54212  -0.69524   8.16327 
 H                     4.3959   -3.39119   4.95186 
 H                     4.69168  -5.38142   0.65844 
 H                     2.52791  -4.9252   -0.42447 
 H                     1.30657  -2.78503   3.09394 
 H                    -0.09837  -2.9682    1.44573 
 H                    -0.90795  -1.11678   0.5341 
 H                    -3.0189    0.01154   0.19546 
 H                    -4.35025  -3.21786  -2.34347 
 H                    -2.17304  -4.34072  -2.00566 
 H                    -5.2324   -0.3582   -2.26679 
 H                    -5.98144  -1.7248   -1.38552 
 H                    -5.23313   1.83693  -1.24385 
 H                    -7.00667   2.29543  -0.07452 
 H                    -4.7136    3.46638   0.863 
 H                    -3.85372   1.65185   0.81425 
 H                    -7.21071   2.28779   2.22997 
 H                    -5.94731   3.34968   2.9041 
 H                    -6.50713   1.94723   3.83083 
 H                    -5.92994  -0.31505   3.0928 
 H                    -4.19799  -0.64424   1.98796 
 H                    -7.81396   0.17183   1.22315 
 H                    -6.48517  -1.86026   0.95198 
 H                     5.56698  -5.25413   3.9888 
 H                     6.1784   -3.7158    3.35342 
 H                     6.29602  -5.18296   2.38536 
 
 NAtoms=     68 NQM=     68 NQMF=      0 NMic=      0 NMicF=      0 NTot=     68.
                    Isotopes and Nuclear Properties:
 (Nuclear quadrupole moments (NQMom) in fm**2, nuclear magnetic moments (NMagM)
  in nuclear magnetons)

  Atom         1           2           3           4           5           6           7           8           9          10
 IAtWgt=          12          12          12          12          14          12          12          12          12          14
 AtmWgt=  12.0000000  12.0000000  12.0000000  12.0000000  14.0030740  12.0000000  12.0000000  12.0000000  12.0000000  14.0030740
 NucSpn=           0           0           0           0           2           0           0           0           0           2
 AtZEff=   0.0000000   0.0000000   0.0000000   0.0000000   0.0000000   0.0000000   0.0000000   0.0000000   0.0000000   0.0000000
 NQMom=    0.0000000   0.0000000   0.0000000   0.0000000   2.0440000   0.0000000   0.0000000   0.0000000   0.0000000   2.0440000
 NMagM=    0.0000000   0.0000000   0.0000000   0.0000000   0.4037610   0.0000000   0.0000000   0.0000000   0.0000000   0.4037610

  Atom        11          12          13          14          15          16          17          18          19          20
 IAtWgt=          12          14          14          12          12          12          12          12          12          14
 AtmWgt=  12.0000000  14.0030740  14.0030740  12.0000000  12.0000000  12.0000000  12.0000000  12.0000000  12.0000000  14.0030740
 NucSpn=           0           2           2           0           0           0           0           0           0           2
 AtZEff=   0.0000000   0.0000000   0.0000000   0.0000000   0.0000000   0.0000000   0.0000000   0.0000000   0.0000000   0.0000000
 NQMom=    0.0000000   2.0440000   2.0440000   0.0000000   0.0000000   0.0000000   0.0000000   0.0000000   0.0000000   2.0440000
 NMagM=    0.0000000   0.4037610   0.4037610   0.0000000   0.0000000   0.0000000   0.0000000   0.0000000   0.0000000   0.4037610

  Atom        21          22          23          24          25          26          27          28          29          30
 IAtWgt=          12          12          12          12          12          12          12          12          14          12
 AtmWgt=  12.0000000  12.0000000  12.0000000  12.0000000  12.0000000  12.0000000  12.0000000  12.0000000  14.0030740  12.0000000
 NucSpn=           0           0           0           0           0           0           0           0           2           0
 AtZEff=   0.0000000   0.0000000   0.0000000   0.0000000   0.0000000   0.0000000   0.0000000   0.0000000   0.0000000   0.0000000
 NQMom=    0.0000000   0.0000000   0.0000000   0.0000000   0.0000000   0.0000000   0.0000000   0.0000000   2.0440000   0.0000000
 NMagM=    0.0000000   0.0000000   0.0000000   0.0000000   0.0000000   0.0000000   0.0000000   0.0000000   0.4037610   0.0000000

  Atom        31          32          33          34          35          36          37          38          39          40
 IAtWgt=          12          14          12          12          12          16          12           1           1           1
 AtmWgt=  12.0000000  14.0030740  12.0000000  12.0000000  12.0000000  15.9949146  12.0000000   1.0078250   1.0078250   1.0078250
 NucSpn=           0           2           0           0           0           0           0           1           1           1
 AtZEff=   0.0000000   0.0000000   0.0000000   0.0000000   0.0000000   0.0000000   0.0000000   0.0000000   0.0000000   0.0000000
 NQMom=    0.0000000   2.0440000   0.0000000   0.0000000   0.0000000   0.0000000   0.0000000   0.0000000   0.0000000   0.0000000
 NMagM=    0.0000000   0.4037610   0.0000000   0.0000000   0.0000000   0.0000000   0.0000000   2.7928460   2.7928460   2.7928460

  Atom        41          42          43          44          45          46          47          48          49          50
 IAtWgt=           1           1           1           1           1           1           1           1           1           1
 AtmWgt=   1.0078250   1.0078250   1.0078250   1.0078250   1.0078250   1.0078250   1.0078250   1.0078250   1.0078250   1.0078250
 NucSpn=           1           1           1           1           1           1           1           1           1           1
 AtZEff=   0.0000000   0.0000000   0.0000000   0.0000000   0.0000000   0.0000000   0.0000000   0.0000000   0.0000000   0.0000000
 NQMom=    0.0000000   0.0000000   0.0000000   0.0000000   0.0000000   0.0000000   0.0000000   0.0000000   0.0000000   0.0000000
 NMagM=    2.7928460   2.7928460   2.7928460   2.7928460   2.7928460   2.7928460   2.7928460   2.7928460   2.7928460   2.7928460

  Atom        51          52          53          54          55          56          57          58          59          60
 IAtWgt=           1           1           1           1           1           1           1           1           1           1
 AtmWgt=   1.0078250   1.0078250   1.0078250   1.0078250   1.0078250   1.0078250   1.0078250   1.0078250   1.0078250   1.0078250
 NucSpn=           1           1           1           1           1           1           1           1           1           1
 AtZEff=   0.0000000   0.0000000   0.0000000   0.0000000   0.0000000   0.0000000   0.0000000   0.0000000   0.0000000   0.0000000
 NQMom=    0.0000000   0.0000000   0.0000000   0.0000000   0.0000000   0.0000000   0.0000000   0.0000000   0.0000000   0.0000000
 NMagM=    2.7928460   2.7928460   2.7928460   2.7928460   2.7928460   2.7928460   2.7928460   2.7928460   2.7928460   2.7928460

  Atom        61          62          63          64          65          66          67          68
 IAtWgt=           1           1           1           1           1           1           1           1
 AtmWgt=   1.0078250   1.0078250   1.0078250   1.0078250   1.0078250   1.0078250   1.0078250   1.0078250
 NucSpn=           1           1           1           1           1           1           1           1
 AtZEff=   0.0000000   0.0000000   0.0000000   0.0000000   0.0000000   0.0000000   0.0000000   0.0000000
 NQMom=    0.0000000   0.0000000   0.0000000   0.0000000   0.0000000   0.0000000   0.0000000   0.0000000
 NMagM=    2.7928460   2.7928460   2.7928460   2.7928460   2.7928460   2.7928460   2.7928460   2.7928460
 Leave Link  101 at Tue Mar 10 14:52:24 2020, MaxMem= 2684354560 cpu:       1.2
 (Enter /opt/g09gh/gaussian/g09/l103.exe)

 GradGradGradGradGradGradGradGradGradGradGradGradGradGradGradGradGradGrad
 Berny optimization.
 Initialization pass.
                           ----------------------------
                           !    Initial Parameters    !
                           ! (Angstroms and Degrees)  !
 --------------------------                            --------------------------
 ! Name  Definition              Value          Derivative Info.                !
 --------------------------------------------------------------------------------
 ! R1    R(1,2)                  1.4011         estimate D2E/DX2                !
 ! R2    R(1,6)                  1.3991         estimate D2E/DX2                !
 ! R3    R(1,38)                 1.0859         estimate D2E/DX2                !
 ! R4    R(2,3)                  1.4092         estimate D2E/DX2                !
 ! R5    R(2,39)                 1.0871         estimate D2E/DX2                !
 ! R6    R(3,4)                  1.4172         estimate D2E/DX2                !
 ! R7    R(3,7)                  1.5103         estimate D2E/DX2                !
 ! R8    R(4,5)                  1.3397         estimate D2E/DX2                !
 ! R9    R(4,40)                 1.0847         estimate D2E/DX2                !
 ! R10   R(5,6)                  1.3436         estimate D2E/DX2                !
 ! R11   R(6,41)                 1.0886         estimate D2E/DX2                !
 ! R12   R(7,8)                  1.4046         estimate D2E/DX2                !
 ! R13   R(7,12)                 1.3484         estimate D2E/DX2                !
 ! R14   R(8,9)                  1.399          estimate D2E/DX2                !
 ! R15   R(8,42)                 1.0831         estimate D2E/DX2                !
 ! R16   R(9,10)                 1.3297         estimate D2E/DX2                !
 ! R17   R(9,43)                 1.0897         estimate D2E/DX2                !
 ! R18   R(10,11)                1.3496         estimate D2E/DX2                !
 ! R19   R(11,12)                1.3368         estimate D2E/DX2                !
 ! R20   R(11,13)                1.3887         estimate D2E/DX2                !
 ! R21   R(13,14)                1.4419         estimate D2E/DX2                !
 ! R22   R(13,44)                1.009          estimate D2E/DX2                !
 ! R23   R(14,15)                1.428          estimate D2E/DX2                !
 ! R24   R(14,19)                1.3993         estimate D2E/DX2                !
 ! R25   R(15,16)                1.4057         estimate D2E/DX2                !
 ! R26   R(15,37)                1.5191         estimate D2E/DX2                !
 ! R27   R(16,17)                1.4001         estimate D2E/DX2                !
 ! R28   R(16,45)                1.0893         estimate D2E/DX2                !
 ! R29   R(17,18)                1.3983         estimate D2E/DX2                !
 ! R30   R(17,46)                1.0833         estimate D2E/DX2                !
 ! R31   R(18,19)                1.404          estimate D2E/DX2                !
 ! R32   R(18,20)                1.429          estimate D2E/DX2                !
 ! R33   R(19,47)                1.0783         estimate D2E/DX2                !
 ! R34   R(20,21)                1.3753         estimate D2E/DX2                !
 ! R35   R(20,48)                1.0104         estimate D2E/DX2                !
 ! R36   R(21,22)                1.5168         estimate D2E/DX2                !
 ! R37   R(21,36)                1.2208         estimate D2E/DX2                !
 ! R38   R(22,23)                1.404          estimate D2E/DX2                !
 ! R39   R(22,27)                1.403          estimate D2E/DX2                !
 ! R40   R(23,24)                1.3945         estimate D2E/DX2                !
 ! R41   R(23,49)                1.0876         estimate D2E/DX2                !
 ! R42   R(24,25)                1.4047         estimate D2E/DX2                !
 ! R43   R(24,50)                1.0818         estimate D2E/DX2                !
 ! R44   R(25,26)                1.4124         estimate D2E/DX2                !
 ! R45   R(25,28)                1.5327         estimate D2E/DX2                !
 ! R46   R(26,27)                1.3981         estimate D2E/DX2                !
 ! R47   R(26,51)                1.0903         estimate D2E/DX2                !
 ! R48   R(27,52)                1.0871         estimate D2E/DX2                !
 ! R49   R(28,29)                1.4772         estimate D2E/DX2                !
 ! R50   R(28,53)                1.1013         estimate D2E/DX2                !
 ! R51   R(28,54)                1.1015         estimate D2E/DX2                !
 ! R52   R(29,30)                1.4836         estimate D2E/DX2                !
 ! R53   R(29,35)                1.4823         estimate D2E/DX2                !
 ! R54   R(30,31)                1.5506         estimate D2E/DX2                !
 ! R55   R(30,55)                1.0506         estimate D2E/DX2                !
 ! R56   R(30,56)                1.6352         estimate D2E/DX2                !
 ! R57   R(31,32)                1.482          estimate D2E/DX2                !
 ! R58   R(31,57)                1.5418         estimate D2E/DX2                !
 ! R59   R(31,58)                0.9193         estimate D2E/DX2                !
 ! R60   R(32,33)                1.4684         estimate D2E/DX2                !
 ! R61   R(32,34)                1.4845         estimate D2E/DX2                !
 ! R62   R(33,59)                1.0958         estimate D2E/DX2                !
 ! R63   R(33,60)                1.0959         estimate D2E/DX2                !
 ! R64   R(33,61)                1.0962         estimate D2E/DX2                !
 ! R65   R(34,35)                1.5496         estimate D2E/DX2                !
 ! R66   R(34,62)                1.0938         estimate D2E/DX2                !
 ! R67   R(34,63)                1.4817         estimate D2E/DX2                !
 ! R68   R(35,64)                1.5668         estimate D2E/DX2                !
 ! R69   R(35,65)                1.4517         estimate D2E/DX2                !
 ! R70   R(37,66)                1.0992         estimate D2E/DX2                !
 ! R71   R(37,67)                1.0992         estimate D2E/DX2                !
 ! R72   R(37,68)                1.0988         estimate D2E/DX2                !
 ! A1    A(2,1,6)              118.6427         estimate D2E/DX2                !
 ! A2    A(2,1,38)             121.2614         estimate D2E/DX2                !
 ! A3    A(6,1,38)             120.0934         estimate D2E/DX2                !
 ! A4    A(1,2,3)              119.9963         estimate D2E/DX2                !
 ! A5    A(1,2,39)             118.1139         estimate D2E/DX2                !
 ! A6    A(3,2,39)             121.871          estimate D2E/DX2                !
 ! A7    A(2,3,4)              115.4864         estimate D2E/DX2                !
 ! A8    A(2,3,7)              123.4553         estimate D2E/DX2                !
 ! A9    A(4,3,7)              121.0567         estimate D2E/DX2                !
 ! A10   A(3,4,5)              125.5385         estimate D2E/DX2                !
 ! A11   A(3,4,40)             119.6045         estimate D2E/DX2                !
 ! A12   A(5,4,40)             114.8521         estimate D2E/DX2                !
 ! A13   A(4,5,6)              117.1226         estimate D2E/DX2                !
 ! A14   A(1,6,5)              123.191          estimate D2E/DX2                !
 ! A15   A(1,6,41)             120.2011         estimate D2E/DX2                !
 ! A16   A(5,6,41)             116.6078         estimate D2E/DX2                !
 ! A17   A(3,7,8)              125.3208         estimate D2E/DX2                !
 ! A18   A(3,7,12)             114.816          estimate D2E/DX2                !
 ! A19   A(8,7,12)             119.8497         estimate D2E/DX2                !
 ! A20   A(7,8,9)              115.7722         estimate D2E/DX2                !
 ! A21   A(7,8,42)             124.1184         estimate D2E/DX2                !
 ! A22   A(9,8,42)             120.1067         estimate D2E/DX2                !
 ! A23   A(8,9,10)             124.4797         estimate D2E/DX2                !
 ! A24   A(8,9,43)             120.2287         estimate D2E/DX2                !
 ! A25   A(10,9,43)            115.2912         estimate D2E/DX2                !
 ! A26   A(9,10,11)            115.8026         estimate D2E/DX2                !
 ! A27   A(10,11,12)           124.4105         estimate D2E/DX2                !
 ! A28   A(10,11,13)           115.1423         estimate D2E/DX2                !
 ! A29   A(12,11,13)           120.4472         estimate D2E/DX2                !
 ! A30   A(7,12,11)            119.6765         estimate D2E/DX2                !
 ! A31   A(11,13,14)           133.4176         estimate D2E/DX2                !
 ! A32   A(11,13,44)           109.5495         estimate D2E/DX2                !
 ! A33   A(14,13,44)           116.7603         estimate D2E/DX2                !
 ! A34   A(13,14,15)           119.6137         estimate D2E/DX2                !
 ! A35   A(13,14,19)           121.5445         estimate D2E/DX2                !
 ! A36   A(15,14,19)           118.8414         estimate D2E/DX2                !
 ! A37   A(14,15,16)           117.1709         estimate D2E/DX2                !
 ! A38   A(14,15,37)           123.4062         estimate D2E/DX2                !
 ! A39   A(16,15,37)           119.4191         estimate D2E/DX2                !
 ! A40   A(15,16,17)           123.9595         estimate D2E/DX2                !
 ! A41   A(15,16,45)           119.167          estimate D2E/DX2                !
 ! A42   A(17,16,45)           116.8655         estimate D2E/DX2                !
 ! A43   A(16,17,18)           118.1336         estimate D2E/DX2                !
 ! A44   A(16,17,46)           121.7096         estimate D2E/DX2                !
 ! A45   A(18,17,46)           120.1552         estimate D2E/DX2                !
 ! A46   A(17,18,19)           119.2777         estimate D2E/DX2                !
 ! A47   A(17,18,20)           126.1558         estimate D2E/DX2                !
 ! A48   A(19,18,20)           114.5517         estimate D2E/DX2                !
 ! A49   A(14,19,18)           122.5977         estimate D2E/DX2                !
 ! A50   A(14,19,47)           117.6761         estimate D2E/DX2                !
 ! A51   A(18,19,47)           119.7186         estimate D2E/DX2                !
 ! A52   A(18,20,21)           131.7033         estimate D2E/DX2                !
 ! A53   A(18,20,48)           113.7996         estimate D2E/DX2                !
 ! A54   A(21,20,48)           114.3213         estimate D2E/DX2                !
 ! A55   A(20,21,22)           116.4988         estimate D2E/DX2                !
 ! A56   A(20,21,36)           122.8022         estimate D2E/DX2                !
 ! A57   A(22,21,36)           120.6855         estimate D2E/DX2                !
 ! A58   A(21,22,23)           122.1926         estimate D2E/DX2                !
 ! A59   A(21,22,27)           119.3826         estimate D2E/DX2                !
 ! A60   A(23,22,27)           118.4241         estimate D2E/DX2                !
 ! A61   A(22,23,24)           120.6247         estimate D2E/DX2                !
 ! A62   A(22,23,49)           119.8975         estimate D2E/DX2                !
 ! A63   A(24,23,49)           119.4751         estimate D2E/DX2                !
 ! A64   A(23,24,25)           122.0534         estimate D2E/DX2                !
 ! A65   A(23,24,50)           116.7939         estimate D2E/DX2                !
 ! A66   A(25,24,50)           121.1504         estimate D2E/DX2                !
 ! A67   A(24,25,26)           116.5179         estimate D2E/DX2                !
 ! A68   A(24,25,28)           124.5129         estimate D2E/DX2                !
 ! A69   A(26,25,28)           118.9351         estimate D2E/DX2                !
 ! A70   A(25,26,27)           122.0645         estimate D2E/DX2                !
 ! A71   A(25,26,51)           119.9157         estimate D2E/DX2                !
 ! A72   A(27,26,51)           118.0195         estimate D2E/DX2                !
 ! A73   A(22,27,26)           120.2738         estimate D2E/DX2                !
 ! A74   A(22,27,52)           118.5556         estimate D2E/DX2                !
 ! A75   A(26,27,52)           121.1548         estimate D2E/DX2                !
 ! A76   A(25,28,29)           127.7138         estimate D2E/DX2                !
 ! A77   A(25,28,53)           105.4991         estimate D2E/DX2                !
 ! A78   A(25,28,54)           105.863          estimate D2E/DX2                !
 ! A79   A(29,28,53)           104.5824         estimate D2E/DX2                !
 ! A80   A(29,28,54)           103.542          estimate D2E/DX2                !
 ! A81   A(53,28,54)           108.7276         estimate D2E/DX2                !
 ! A82   A(28,29,30)           121.5784         estimate D2E/DX2                !
 ! A83   A(28,29,35)           118.1853         estimate D2E/DX2                !
 ! A84   A(30,29,35)           109.1455         estimate D2E/DX2                !
 ! A85   A(29,30,31)           117.2981         estimate D2E/DX2                !
 ! A86   A(29,30,55)           110.9578         estimate D2E/DX2                !
 ! A87   A(29,30,56)           104.942          estimate D2E/DX2                !
 ! A88   A(31,30,55)           113.0816         estimate D2E/DX2                !
 ! A89   A(31,30,56)           103.2722         estimate D2E/DX2                !
 ! A90   A(55,30,56)           105.9703         estimate D2E/DX2                !
 ! A91   A(30,31,32)           114.3437         estimate D2E/DX2                !
 ! A92   A(30,31,57)           105.8832         estimate D2E/DX2                !
 ! A93   A(30,31,58)           113.3414         estimate D2E/DX2                !
 ! A94   A(32,31,57)           108.1914         estimate D2E/DX2                !
 ! A95   A(32,31,58)           108.0396         estimate D2E/DX2                !
 ! A96   A(57,31,58)           106.6411         estimate D2E/DX2                !
 ! A97   A(31,32,33)           117.0725         estimate D2E/DX2                !
 ! A98   A(31,32,34)           108.6078         estimate D2E/DX2                !
 ! A99   A(33,32,34)           116.3139         estimate D2E/DX2                !
 ! A100  A(32,33,59)           111.0166         estimate D2E/DX2                !
 ! A101  A(32,33,60)           110.1962         estimate D2E/DX2                !
 ! A102  A(32,33,61)           110.1226         estimate D2E/DX2                !
 ! A103  A(59,33,60)           108.8597         estimate D2E/DX2                !
 ! A104  A(59,33,61)           108.7252         estimate D2E/DX2                !
 ! A105  A(60,33,61)           107.8443         estimate D2E/DX2                !
 ! A106  A(32,34,35)           114.1699         estimate D2E/DX2                !
 ! A107  A(32,34,62)           109.8405         estimate D2E/DX2                !
 ! A108  A(32,34,63)           106.8121         estimate D2E/DX2                !
 ! A109  A(35,34,62)           111.7038         estimate D2E/DX2                !
 ! A110  A(35,34,63)           107.0909         estimate D2E/DX2                !
 ! A111  A(62,34,63)           106.8004         estimate D2E/DX2                !
 ! A112  A(29,35,34)           117.4894         estimate D2E/DX2                !
 ! A113  A(29,35,64)           106.7891         estimate D2E/DX2                !
 ! A114  A(29,35,65)           110.1895         estimate D2E/DX2                !
 ! A115  A(34,35,64)           105.6764         estimate D2E/DX2                !
 ! A116  A(34,35,65)           108.2451         estimate D2E/DX2                !
 ! A117  A(64,35,65)           108.0073         estimate D2E/DX2                !
 ! A118  A(15,37,66)           111.3938         estimate D2E/DX2                !
 ! A119  A(15,37,67)           111.4555         estimate D2E/DX2                !
 ! A120  A(15,37,68)           112.9459         estimate D2E/DX2                !
 ! A121  A(66,37,67)           107.5206         estimate D2E/DX2                !
 ! A122  A(66,37,68)           106.6452         estimate D2E/DX2                !
 ! A123  A(67,37,68)           106.5472         estimate D2E/DX2                !
 ! D1    D(6,1,2,3)             -0.5863         estimate D2E/DX2                !
 ! D2    D(6,1,2,39)          -179.0414         estimate D2E/DX2                !
 ! D3    D(38,1,2,3)           178.8402         estimate D2E/DX2                !
 ! D4    D(38,1,2,39)            0.3852         estimate D2E/DX2                !
 ! D5    D(2,1,6,5)             -0.7265         estimate D2E/DX2                !
 ! D6    D(2,1,6,41)           179.1424         estimate D2E/DX2                !
 ! D7    D(38,1,6,5)           179.8401         estimate D2E/DX2                !
 ! D8    D(38,1,6,41)           -0.2911         estimate D2E/DX2                !
 ! D9    D(1,2,3,4)              1.5402         estimate D2E/DX2                !
 ! D10   D(1,2,3,7)           -178.0014         estimate D2E/DX2                !
 ! D11   D(39,2,3,4)           179.9356         estimate D2E/DX2                !
 ! D12   D(39,2,3,7)             0.3939         estimate D2E/DX2                !
 ! D13   D(2,3,4,5)             -1.4165         estimate D2E/DX2                !
 ! D14   D(2,3,4,40)           177.7349         estimate D2E/DX2                !
 ! D15   D(7,3,4,5)            178.1371         estimate D2E/DX2                !
 ! D16   D(7,3,4,40)            -2.7115         estimate D2E/DX2                !
 ! D17   D(2,3,7,8)             -3.4974         estimate D2E/DX2                !
 ! D18   D(2,3,7,12)           175.1529         estimate D2E/DX2                !
 ! D19   D(4,3,7,8)            176.9855         estimate D2E/DX2                !
 ! D20   D(4,3,7,12)            -4.3641         estimate D2E/DX2                !
 ! D21   D(3,4,5,6)              0.2056         estimate D2E/DX2                !
 ! D22   D(40,4,5,6)          -178.9813         estimate D2E/DX2                !
 ! D23   D(4,5,6,1)              0.9163         estimate D2E/DX2                !
 ! D24   D(4,5,6,41)          -178.9569         estimate D2E/DX2                !
 ! D25   D(3,7,8,9)            179.4297         estimate D2E/DX2                !
 ! D26   D(3,7,8,42)            -1.1583         estimate D2E/DX2                !
 ! D27   D(12,7,8,9)             0.8421         estimate D2E/DX2                !
 ! D28   D(12,7,8,42)         -179.7458         estimate D2E/DX2                !
 ! D29   D(3,7,12,11)         -178.895          estimate D2E/DX2                !
 ! D30   D(8,7,12,11)           -0.1646         estimate D2E/DX2                !
 ! D31   D(7,8,9,10)            -0.8282         estimate D2E/DX2                !
 ! D32   D(7,8,9,43)           179.4025         estimate D2E/DX2                !
 ! D33   D(42,8,9,10)          179.7345         estimate D2E/DX2                !
 ! D34   D(42,8,9,43)           -0.0348         estimate D2E/DX2                !
 ! D35   D(8,9,10,11)            0.0943         estimate D2E/DX2                !
 ! D36   D(43,9,10,11)         179.8739         estimate D2E/DX2                !
 ! D37   D(9,10,11,12)           0.6894         estimate D2E/DX2                !
 ! D38   D(9,10,11,13)        -179.2479         estimate D2E/DX2                !
 ! D39   D(10,11,12,7)          -0.6596         estimate D2E/DX2                !
 ! D40   D(13,11,12,7)         179.2746         estimate D2E/DX2                !
 ! D41   D(10,11,13,14)       -176.1271         estimate D2E/DX2                !
 ! D42   D(10,11,13,44)         -2.5092         estimate D2E/DX2                !
 ! D43   D(12,11,13,14)          3.9328         estimate D2E/DX2                !
 ! D44   D(12,11,13,44)        177.5508         estimate D2E/DX2                !
 ! D45   D(11,13,14,15)        162.762          estimate D2E/DX2                !
 ! D46   D(11,13,14,19)        -17.474          estimate D2E/DX2                !
 ! D47   D(44,13,14,15)        -10.5009         estimate D2E/DX2                !
 ! D48   D(44,13,14,19)        169.2631         estimate D2E/DX2                !
 ! D49   D(13,14,15,16)       -179.4325         estimate D2E/DX2                !
 ! D50   D(13,14,15,37)         -0.1441         estimate D2E/DX2                !
 ! D51   D(19,14,15,16)          0.7971         estimate D2E/DX2                !
 ! D52   D(19,14,15,37)       -179.9145         estimate D2E/DX2                !
 ! D53   D(13,14,19,18)        178.6748         estimate D2E/DX2                !
 ! D54   D(13,14,19,47)         -0.3204         estimate D2E/DX2                !
 ! D55   D(15,14,19,18)         -1.5594         estimate D2E/DX2                !
 ! D56   D(15,14,19,47)        179.4453         estimate D2E/DX2                !
 ! D57   D(14,15,16,17)          0.4535         estimate D2E/DX2                !
 ! D58   D(14,15,16,45)        179.3898         estimate D2E/DX2                !
 ! D59   D(37,15,16,17)       -178.8645         estimate D2E/DX2                !
 ! D60   D(37,15,16,45)          0.0719         estimate D2E/DX2                !
 ! D61   D(14,15,37,66)         63.5271         estimate D2E/DX2                !
 ! D62   D(14,15,37,67)        -56.5637         estimate D2E/DX2                !
 ! D63   D(14,15,37,68)       -176.4771         estimate D2E/DX2                !
 ! D64   D(16,15,37,66)       -117.1997         estimate D2E/DX2                !
 ! D65   D(16,15,37,67)        122.7094         estimate D2E/DX2                !
 ! D66   D(16,15,37,68)          2.796          estimate D2E/DX2                !
 ! D67   D(15,16,17,18)         -0.9754         estimate D2E/DX2                !
 ! D68   D(15,16,17,46)        178.5767         estimate D2E/DX2                !
 ! D69   D(45,16,17,18)       -179.9343         estimate D2E/DX2                !
 ! D70   D(45,16,17,46)         -0.3821         estimate D2E/DX2                !
 ! D71   D(16,17,18,19)          0.2264         estimate D2E/DX2                !
 ! D72   D(16,17,18,20)        178.7503         estimate D2E/DX2                !
 ! D73   D(46,17,18,19)       -179.3329         estimate D2E/DX2                !
 ! D74   D(46,17,18,20)         -0.8091         estimate D2E/DX2                !
 ! D75   D(17,18,19,14)          1.0386         estimate D2E/DX2                !
 ! D76   D(17,18,19,47)       -179.986          estimate D2E/DX2                !
 ! D77   D(20,18,19,14)       -177.6511         estimate D2E/DX2                !
 ! D78   D(20,18,19,47)          1.3243         estimate D2E/DX2                !
 ! D79   D(17,18,20,21)         -8.3795         estimate D2E/DX2                !
 ! D80   D(17,18,20,48)        176.804          estimate D2E/DX2                !
 ! D81   D(19,18,20,21)        170.2049         estimate D2E/DX2                !
 ! D82   D(19,18,20,48)         -4.6116         estimate D2E/DX2                !
 ! D83   D(18,20,21,22)       -168.4627         estimate D2E/DX2                !
 ! D84   D(18,20,21,36)         12.871          estimate D2E/DX2                !
 ! D85   D(48,20,21,22)          6.3327         estimate D2E/DX2                !
 ! D86   D(48,20,21,36)       -172.3336         estimate D2E/DX2                !
 ! D87   D(20,21,22,23)         35.1174         estimate D2E/DX2                !
 ! D88   D(20,21,22,27)       -145.1812         estimate D2E/DX2                !
 ! D89   D(36,21,22,23)       -146.1862         estimate D2E/DX2                !
 ! D90   D(36,21,22,27)         33.5153         estimate D2E/DX2                !
 ! D91   D(21,22,23,24)       -178.299          estimate D2E/DX2                !
 ! D92   D(21,22,23,49)          1.1075         estimate D2E/DX2                !
 ! D93   D(27,22,23,24)          1.9968         estimate D2E/DX2                !
 ! D94   D(27,22,23,49)       -178.5966         estimate D2E/DX2                !
 ! D95   D(21,22,27,26)        177.8773         estimate D2E/DX2                !
 ! D96   D(21,22,27,52)         -0.693          estimate D2E/DX2                !
 ! D97   D(23,22,27,26)         -2.41           estimate D2E/DX2                !
 ! D98   D(23,22,27,52)        179.0197         estimate D2E/DX2                !
 ! D99   D(22,23,24,25)         -0.4173         estimate D2E/DX2                !
 ! D100  D(22,23,24,50)       -179.8724         estimate D2E/DX2                !
 ! D101  D(49,23,24,25)       -179.8263         estimate D2E/DX2                !
 ! D102  D(49,23,24,50)          0.7186         estimate D2E/DX2                !
 ! D103  D(23,24,25,26)         -0.7439         estimate D2E/DX2                !
 ! D104  D(23,24,25,28)        177.1003         estimate D2E/DX2                !
 ! D105  D(50,24,25,26)        178.6877         estimate D2E/DX2                !
 ! D106  D(50,24,25,28)         -3.4681         estimate D2E/DX2                !
 ! D107  D(24,25,26,27)          0.3128         estimate D2E/DX2                !
 ! D108  D(24,25,26,51)       -179.8908         estimate D2E/DX2                !
 ! D109  D(28,25,26,27)       -177.6575         estimate D2E/DX2                !
 ! D110  D(28,25,26,51)          2.1389         estimate D2E/DX2                !
 ! D111  D(24,25,28,29)        -23.486          estimate D2E/DX2                !
 ! D112  D(24,25,28,53)         99.5189         estimate D2E/DX2                !
 ! D113  D(24,25,28,54)       -145.3194         estimate D2E/DX2                !
 ! D114  D(26,25,28,29)        154.3098         estimate D2E/DX2                !
 ! D115  D(26,25,28,53)        -82.6853         estimate D2E/DX2                !
 ! D116  D(26,25,28,54)         32.4764         estimate D2E/DX2                !
 ! D117  D(25,26,27,22)          1.2811         estimate D2E/DX2                !
 ! D118  D(25,26,27,52)        179.8136         estimate D2E/DX2                !
 ! D119  D(51,26,27,22)       -178.5191         estimate D2E/DX2                !
 ! D120  D(51,26,27,52)          0.0135         estimate D2E/DX2                !
 ! D121  D(25,28,29,30)         75.1644         estimate D2E/DX2                !
 ! D122  D(25,28,29,35)        -64.845          estimate D2E/DX2                !
 ! D123  D(53,28,29,30)        -48.2169         estimate D2E/DX2                !
 ! D124  D(53,28,29,35)        171.7736         estimate D2E/DX2                !
 ! D125  D(54,28,29,30)       -162.0392         estimate D2E/DX2                !
 ! D126  D(54,28,29,35)         57.9513         estimate D2E/DX2                !
 ! D127  D(28,29,30,31)       -100.3658         estimate D2E/DX2                !
 ! D128  D(28,29,30,55)         31.7093         estimate D2E/DX2                !
 ! D129  D(28,29,30,56)        145.7356         estimate D2E/DX2                !
 ! D130  D(35,29,30,31)         42.7913         estimate D2E/DX2                !
 ! D131  D(35,29,30,55)        174.8664         estimate D2E/DX2                !
 ! D132  D(35,29,30,56)        -71.1073         estimate D2E/DX2                !
 ! D133  D(28,29,35,34)        101.6796         estimate D2E/DX2                !
 ! D134  D(28,29,35,64)       -139.9516         estimate D2E/DX2                !
 ! D135  D(28,29,35,65)        -22.8876         estimate D2E/DX2                !
 ! D136  D(30,29,35,34)        -42.9012         estimate D2E/DX2                !
 ! D137  D(30,29,35,64)         75.4676         estimate D2E/DX2                !
 ! D138  D(30,29,35,65)       -167.4684         estimate D2E/DX2                !
 ! D139  D(29,30,31,32)        -50.3797         estimate D2E/DX2                !
 ! D140  D(29,30,31,57)       -169.3919         estimate D2E/DX2                !
 ! D141  D(29,30,31,58)         74.0523         estimate D2E/DX2                !
 ! D142  D(55,30,31,32)        178.5131         estimate D2E/DX2                !
 ! D143  D(55,30,31,57)         59.5009         estimate D2E/DX2                !
 ! D144  D(55,30,31,58)        -57.0549         estimate D2E/DX2                !
 ! D145  D(56,30,31,32)         64.4457         estimate D2E/DX2                !
 ! D146  D(56,30,31,57)        -54.5665         estimate D2E/DX2                !
 ! D147  D(56,30,31,58)       -171.1223         estimate D2E/DX2                !
 ! D148  D(30,31,32,33)        -82.6847         estimate D2E/DX2                !
 ! D149  D(30,31,32,34)         51.5329         estimate D2E/DX2                !
 ! D150  D(57,31,32,33)         35.0168         estimate D2E/DX2                !
 ! D151  D(57,31,32,34)        169.2344         estimate D2E/DX2                !
 ! D152  D(58,31,32,33)        150.1075         estimate D2E/DX2                !
 ! D153  D(58,31,32,34)        -75.6749         estimate D2E/DX2                !
 ! D154  D(31,32,33,59)         65.6573         estimate D2E/DX2                !
 ! D155  D(31,32,33,60)        -55.0266         estimate D2E/DX2                !
 ! D156  D(31,32,33,61)       -173.8762         estimate D2E/DX2                !
 ! D157  D(34,32,33,59)        -65.0764         estimate D2E/DX2                !
 ! D158  D(34,32,33,60)        174.2397         estimate D2E/DX2                !
 ! D159  D(34,32,33,61)         55.39           estimate D2E/DX2                !
 ! D160  D(31,32,34,35)        -51.4526         estimate D2E/DX2                !
 ! D161  D(31,32,34,62)       -177.8124         estimate D2E/DX2                !
 ! D162  D(31,32,34,63)         66.7187         estimate D2E/DX2                !
 ! D163  D(33,32,34,35)         83.1543         estimate D2E/DX2                !
 ! D164  D(33,32,34,62)        -43.2055         estimate D2E/DX2                !
 ! D165  D(33,32,34,63)       -158.6743         estimate D2E/DX2                !
 ! D166  D(32,34,35,29)         50.3875         estimate D2E/DX2                !
 ! D167  D(32,34,35,64)        -68.5739         estimate D2E/DX2                !
 ! D168  D(32,34,35,65)        175.9209         estimate D2E/DX2                !
 ! D169  D(62,34,35,29)        175.7698         estimate D2E/DX2                !
 ! D170  D(62,34,35,64)         56.8084         estimate D2E/DX2                !
 ! D171  D(62,34,35,65)        -58.6968         estimate D2E/DX2                !
 ! D172  D(63,34,35,29)        -67.6247         estimate D2E/DX2                !
 ! D173  D(63,34,35,64)        173.4139         estimate D2E/DX2                !
 ! D174  D(63,34,35,65)         57.9087         estimate D2E/DX2                !
 --------------------------------------------------------------------------------
 Trust Radius=3.00D-01 FncErr=1.00D-07 GrdErr=1.00D-06
 Number of steps in this run= 400 maximum allowed number of steps= 408.
 GradGradGradGradGradGradGradGradGradGradGradGradGradGradGradGradGradGrad

 Leave Link  103 at Tue Mar 10 14:52:24 2020, MaxMem= 2684354560 cpu:       0.3
 (Enter /opt/g09gh/gaussian/g09/l202.exe)
 Stoichiometry    C29H31N7O
 Framework group  C1[X(C29H31N7O)]
 Deg. of freedom   198
 Full point group                 C1      NOp   1
 Largest Abelian subgroup         C1      NOp   1
 Largest concise Abelian subgroup C1      NOp   1
                         Standard orientation:                         
 ---------------------------------------------------------------------
 Center     Atomic      Atomic             Coordinates (Angstroms)
 Number     Number       Type             X           Y           Z
 ---------------------------------------------------------------------
      1          6           0       -0.944428    4.231754   -0.188330
      2          6           0        0.451875    4.300092   -0.095320
      3          6           0        1.218800    3.118355   -0.128071
      4          6           0        0.483046    1.918233   -0.291659
      5          7           0       -0.850265    1.829084   -0.386694
      6          6           0       -1.546812    2.976406   -0.325366
      7          6           0        2.722644    3.097663    0.009754
      8          6           0        3.544100    4.232046    0.115353
      9          6           0        4.914058    3.980878    0.247358
     10          7           0        5.455975    2.767452    0.292573
     11          6           0        4.592278    1.734514    0.199851
     12          7           0        3.269763    1.866166    0.056470
     13          7           0        5.170999    0.473880    0.264963
     14          6           0        4.648587   -0.864165    0.138807
     15          6           0        5.541984   -1.949893   -0.110690
     16          6           0        4.976393   -3.230613   -0.236699
     17          6           0        3.604312   -3.492506   -0.141232
     18          6           0        2.744551   -2.419814    0.114276
     19          6           0        3.280167   -1.130215    0.259950
     20          7           0        1.321068   -2.486975    0.220082
     21          6           0        0.431693   -3.504769   -0.034100
     22          6           0       -1.037255   -3.127900   -0.065266
     23          6           0       -1.481935   -1.891466   -0.559932
     24          6           0       -2.837474   -1.564633   -0.540701
     25          6           0       -3.809988   -2.446633   -0.041122
     26          6           0       -3.346837   -3.695349    0.429035
     27          6           0       -1.992176   -4.040333    0.407907
     28          6           0       -5.304072   -2.121868    0.065598
     29          7           0       -5.935534   -0.788918    0.146084
     30          6           0       -6.055055    0.087342   -1.045107
     31          6           0       -5.020562    1.233011   -1.191814
     32          7           0       -4.867390    2.076326    0.017210
     33          6           0       -5.847046    3.153074    0.209444
     34          6           0       -4.624507    1.191525    1.184264
     35          6           0       -5.657390    0.046714    1.338354
     36          8           0        0.781730   -4.661890   -0.203882
     37          6           0        7.044270   -1.779836   -0.258272
     38          1           0       -1.556479    5.127705   -0.146565
     39          1           0        0.909882    5.278425    0.026882
     40          1           0        1.009391    0.972516   -0.362930
     41          1           0       -2.630526    2.892695   -0.385824
     42          1           0        3.178545    5.251265    0.090476
     43          1           0        5.618592    4.808586    0.325068
     44          1           0        6.173593    0.565689    0.332411
     45          1           0        5.627038   -4.080900   -0.437286
     46          1           0        3.205287   -4.491738   -0.266845
     47          1           0        2.623670   -0.297871    0.457347
     48          1           0        0.888001   -1.606095    0.459870
     49          1           0       -0.764328   -1.175378   -0.953816
     50          1           0       -3.111478   -0.596974   -0.939171
     51          1           0       -4.054553   -4.423033    0.827038
     52          1           0       -1.651583   -5.004701    0.776414
     53          1           0       -5.772024   -2.597938   -0.810346
     54          1           0       -5.658487   -2.630579    0.976081
     55          1           0       -6.165885   -0.482182   -1.920960
     56          1           0       -7.469647    0.882408   -0.843426
     57          1           0       -5.538166    2.124676   -2.338223
     58          1           0       -4.185864    0.940222   -1.442319
     59          1           0       -6.850112    2.746019    0.379492
     60          1           0       -5.873233    3.802718   -0.672799
     61          1           0       -5.566285    3.768854    1.071826
     62          1           0       -4.546964    1.791742    2.095433
     63          1           0       -3.301291    0.558818    0.974324
     64          1           0       -7.005966    0.742813    1.727733
     65          1           0       -5.246273   -0.789588    2.451482
     66          1           0        7.499000   -1.408649    0.671100
     67          1           0        7.291559   -1.065260   -1.056054
     68          1           0        7.559117   -2.717942   -0.507772
 ---------------------------------------------------------------------
 Rotational constants (GHZ):      0.1330163      0.0625777      0.0435098
 Leave Link  202 at Tue Mar 10 14:52:24 2020, MaxMem= 2684354560 cpu:       0.0
 (Enter /opt/g09gh/gaussian/g09/l301.exe)
 Standard basis: 6-31G(d) (6D, 7F)
 Ernie: Thresh=  0.10000D-02 Tol=  0.10000D-05 Strict=F.
 There are   617 symmetry adapted basis functions of A   symmetry.
 Integral buffers will be    131072 words long.
 Raffenetti 2 integral format.
 Two-electron integral symmetry is turned on.
   617 basis functions,  1160 primitive gaussians,   617 cartesian basis functions
   131 alpha electrons      131 beta electrons
       nuclear repulsion energy      3784.2504482288 Hartrees.
 IExCor= 4639 DFT=T Ex+Corr=wB97XD ExCW=0 ScaHFX=  1.000000
 ScaDFX=  1.000000  1.000000  1.000000  1.000000 ScalE2=  1.000000  1.000000
 IRadAn=      0 IRanWt=     -1 IRanGd=            0 ICorTp=0
  HFx wShort=  0.000000 wLong=  0.200000 cFull=  0.222036 cShort=  0.000000 cLong=  0.777964
  DFx wShort=  0.000000 wLong=  0.200000 cFull=  0.000000 cShort=  0.000000 cLong=  1.000000
 NAtoms=   68 NActive=   68 NUniq=   68 SFac= 7.50D-01 NAtFMM=   80 NAOKFM=F Big=T
 R6Disp: Dispersion energy =        -0.0594177832 Hartrees.
 Nuclear repulsion after empirical dispersion term =     3784.1910304455 Hartrees.
 Leave Link  301 at Tue Mar 10 14:52:25 2020, MaxMem= 2684354560 cpu:       0.8
 (Enter /opt/g09gh/gaussian/g09/l302.exe)
 NPDir=0 NMtPBC=     1 NCelOv=     1 NCel=       1 NClECP=     1 NCelD=      1
         NCelK=      1 NCelE2=     1 NClLst=     1 CellRange=     0.0.
 One-electron integrals computed using PRISM.
 NBasis=   617 RedAO= T  NBF=   617
 NBsUse=   617 1.00D-06 NBFU=   617
 Precomputing XC quadrature grid using
 IXCGrd= 2 IRadAn=           0 IRanWt=          -1 IRanGd=           0 AccXCQ= 1.00D-10.
 NRdTot=    4375 NPtTot=      558940 NUsed=      590462 NTot=      590494
 NSgBfM=   605   605   605   605   605 NAtAll=    68    68.
 Leave Link  302 at Tue Mar 10 14:52:28 2020, MaxMem= 2684354560 cpu:      20.6
 (Enter /opt/g09gh/gaussian/g09/l303.exe)
 DipDrv:  MaxL=1.
 Leave Link  303 at Tue Mar 10 14:52:28 2020, MaxMem= 2684354560 cpu:       1.9
 (Enter /opt/g09gh/gaussian/g09/l401.exe)
 Harris functional with IExCor= 4639 diagonalized for initial guess.
 ExpMin= 1.61D-01 ExpMax= 5.48D+03 ExpMxC= 8.25D+02 IAcc=1 IRadAn=         1 AccDes= 0.00D+00
 HarFok:  IExCor= 4639 AccDes= 0.00D+00 IRadAn=         1 IDoV= 1
 ScaDFX=  1.000000  1.000000  1.000000  1.000000
 FoFCou: FMM=F IPFlag=           0 FMFlag=      100000 FMFlg1=           1
         NFxFlg=           0 DoJE=T BraDBF=F KetDBF=T FulRan=T
         Omega=  0.000000  0.000000  1.000000  0.000000  0.000000 ICntrl=     500 IOpCl=  0
         NMat0=    1 NMatS0=    1 NMatT0=    0 NMatD0=    1 NMtDS0=    0 NMtDT0=    0
         I1Cent=           4 NGrid=           0.
 Petite list used in FoFCou.
 Harris En= -1512.32772288713    
 Initial guess orbital symmetries:
       Occupied  (A) (A) (A) (A) (A) (A) (A) (A) (A) (A) (A) (A)
                 (A) (A) (A) (A) (A) (A) (A) (A) (A) (A) (A) (A)
                 (A) (A) (A) (A) (A) (A) (A) (A) (A) (A) (A) (A)
                 (A) (A) (A) (A) (A) (A) (A) (A) (A) (A) (A) (A)
                 (A) (A) (A) (A) (A) (A) (A) (A) (A) (A) (A) (A)
                 (A) (A) (A) (A) (A) (A) (A) (A) (A) (A) (A) (A)
                 (A) (A) (A) (A) (A) (A) (A) (A) (A) (A) (A) (A)
                 (A) (A) (A) (A) (A) (A) (A) (A) (A) (A) (A) (A)
                 (A) (A) (A) (A) (A) (A) (A) (A) (A) (A) (A) (A)
                 (A) (A) (A) (A) (A) (A) (A) (A) (A) (A) (A) (A)
                 (A) (A) (A) (A) (A) (A) (A) (A) (A) (A) (A)
       Virtual   (A) (A) (A) (A) (A) (A) (A) (A) (A) (A) (A) (A)
                 (A) (A) (A) (A) (A) (A) (A) (A) (A) (A) (A) (A)
                 (A) (A) (A) (A) (A) (A) (A) (A) (A) (A) (A) (A)
                 (A) (A) (A) (A) (A) (A) (A) (A) (A) (A) (A) (A)
                 (A) (A) (A) (A) (A) (A) (A) (A) (A) (A) (A) (A)
                 (A) (A) (A) (A) (A) (A) (A) (A) (A) (A) (A) (A)
                 (A) (A) (A) (A) (A) (A) (A) (A) (A) (A) (A) (A)
                 (A) (A) (A) (A) (A) (A) (A) (A) (A) (A) (A) (A)
                 (A) (A) (A) (A) (A) (A) (A) (A) (A) (A) (A) (A)
                 (A) (A) (A) (A) (A) (A) (A) (A) (A) (A) (A) (A)
                 (A) (A) (A) (A) (A) (A) (A) (A) (A) (A) (A) (A)
                 (A) (A) (A) (A) (A) (A) (A) (A) (A) (A) (A) (A)
                 (A) (A) (A) (A) (A) (A) (A) (A) (A) (A) (A) (A)
                 (A) (A) (A) (A) (A) (A) (A) (A) (A) (A) (A) (A)
                 (A) (A) (A) (A) (A) (A) (A) (A) (A) (A) (A) (A)
                 (A) (A) (A) (A) (A) (A) (A) (A) (A) (A) (A) (A)
                 (A) (A) (A) (A) (A) (A) (A) (A) (A) (A) (A) (A)
                 (A) (A) (A) (A) (A) (A) (A) (A) (A) (A) (A) (A)
                 (A) (A) (A) (A) (A) (A) (A) (A) (A) (A) (A) (A)
                 (A) (A) (A) (A) (A) (A) (A) (A) (A) (A) (A) (A)
                 (A) (A) (A) (A) (A) (A) (A) (A) (A) (A) (A) (A)
                 (A) (A) (A) (A) (A) (A) (A) (A) (A) (A) (A) (A)
                 (A) (A) (A) (A) (A) (A) (A) (A) (A) (A) (A) (A)
                 (A) (A) (A) (A) (A) (A) (A) (A) (A) (A) (A) (A)
                 (A) (A) (A) (A) (A) (A) (A) (A) (A) (A) (A) (A)
                 (A) (A) (A) (A) (A) (A) (A) (A) (A) (A) (A) (A)
                 (A) (A) (A) (A) (A) (A) (A) (A) (A) (A) (A) (A)
                 (A) (A) (A) (A) (A) (A) (A) (A) (A) (A) (A) (A)
                 (A) (A) (A) (A) (A) (A) (A) (A) (A) (A) (A) (A)
                 (A) (A) (A) (A) (A) (A) (A) (A) (A) (A) (A) (A)
                 (A) (A) (A) (A) (A) (A) (A) (A) (A) (A) (A) (A)
                 (A) (A) (A) (A) (A) (A) (A) (A) (A) (A) (A) (A)
                 (A) (A) (A) (A) (A) (A) (A) (A) (A) (A) (A) (A)
                 (A) (A) (A) (A) (A) (A) (A) (A) (A) (A) (A) (A)
                 (A) (A) (A) (A) (A) (A) (A) (A) (A) (A) (A) (A)
                 (A) (A) (A) (A) (A) (A) (A) (A) (A) (A) (A) (A)
                 (A) (A) (A) (A) (A) (A) (A) (A) (A) (A) (A) (A)
                 (A) (A) (A) (A) (A) (A) (A) (A) (A) (A) (A) (A)
                 (A) (A) (A) (A) (A) (A) (A) (A) (A) (A) (A) (A)
                 (A) (A) (A) (A) (A) (A) (A) (A) (A) (A) (A) (A)
                 (A) (A) (A) (A) (A) (A)
 The electronic state of the initial guess is 1-A.
 Leave Link  401 at Tue Mar 10 14:52:36 2020, MaxMem= 2684354560 cpu:      42.9
 (Enter /opt/g09gh/gaussian/g09/l502.exe)
 Closed shell SCF:
 Requested convergence on RMS density matrix=1.00D-08 within 128 cycles.
 Requested convergence on MAX density matrix=1.00D-06.
 Requested convergence on             energy=1.00D-06.
 No special actions if energy rises.
 Using DIIS extrapolation, IDIIS=  1040.
 Integral symmetry usage will be decided dynamically.
       589837 words used for storage of precomputed grid.
 IEnd=     1758417 IEndB=     1758417 NGot=  2684354560 MDV=  2682994090
 LenX=  2682994090 LenY=  2682612784
 Fock matrices will be formed incrementally for  20 cycles.
 Integral accuracy reduced to 1.0D-05 until final iterations.

 Cycle   1  Pass 0  IDiag  1:
 FoFJK:  IHMeth= 1 ICntrl=     0 DoSepK=T KAlg= 1 I1Cent= 0 FoldK=F
 FoFCou: FMM=T IPFlag=           0 FMFlag=      100000 FMFlg1=           1
         NFxFlg=           0 DoJE=T BraDBF=F KetDBF=F FulRan=T
         Omega=  0.000000  0.000000  1.000000  0.000000  0.000000 ICntrl=     500 IOpCl=  0
         NMat0=    1 NMatS0=    1 NMatT0=    0 NMatD0=    1 NMtDS0=    0 NMtDT0=    0
         I1Cent=           0 NGrid=           0.
 Symmetry not used in FoFCou.
 FMM levels:  10  Number of levels for PrismC:   9
 E= -1581.06333840593    
 DIIS: error= 7.12D-02 at cycle   1 NSaved=   1.
 NSaved= 1 IEnMin= 1 EnMin= -1581.06333840593     IErMin= 1 ErrMin= 7.12D-02
 ErrMax= 7.12D-02 EMaxC= 1.00D-01 BMatC= 1.47D+00 BMatP= 1.47D+00
 IDIUse=3 WtCom= 2.88D-01 WtEn= 7.12D-01
 Coeff-Com:  0.100D+01
 Coeff-En:   0.100D+01
 Coeff:      0.100D+01
 Gap=     0.294 Goal=   None    Shift=    0.000
 GapD=    0.294 DampG=1.000 DampE=0.500 DampFc=0.5000 IDamp=-1.
 Damping current iteration by 5.00D-01
 RMSDP=1.94D-03 MaxDP=8.93D-02              OVMax= 1.70D-01

 Cycle   2  Pass 0  IDiag  1:
 RMSU=  6.86D-04    CP:  1.00D+00
 FoFJK:  IHMeth= 1 ICntrl=     0 DoSepK=T KAlg= 1 I1Cent= 0 FoldK=F
 E= -1581.24584816025     Delta-E=       -0.182509754318 Rises=F Damp=T
 DIIS: error= 3.58D-02 at cycle   2 NSaved=   2.
 NSaved= 2 IEnMin= 2 EnMin= -1581.24584816025     IErMin= 2 ErrMin= 3.58D-02
 ErrMax= 3.58D-02 EMaxC= 1.00D-01 BMatC= 3.22D-01 BMatP= 1.47D+00
 IDIUse=3 WtCom= 6.42D-01 WtEn= 3.58D-01
 Coeff-Com: -0.628D+00 0.163D+01
 Coeff-En:   0.000D+00 0.100D+01
 Coeff:     -0.403D+00 0.140D+01
 Gap=     0.281 Goal=   None    Shift=    0.000
 RMSDP=8.73D-04 MaxDP=3.87D-02 DE=-1.83D-01 OVMax= 1.16D-01

 Cycle   3  Pass 0  IDiag  1:
 RMSU=  5.64D-04    CP:  1.00D+00  1.37D+00
 FoFJK:  IHMeth= 1 ICntrl=     0 DoSepK=T KAlg= 1 I1Cent= 0 FoldK=F
 E= -1581.38905811034     Delta-E=       -0.143209950098 Rises=F Damp=F
 DIIS: error= 6.05D-03 at cycle   3 NSaved=   3.
 NSaved= 3 IEnMin= 3 EnMin= -1581.38905811034     IErMin= 3 ErrMin= 6.05D-03
 ErrMax= 6.05D-03 EMaxC= 1.00D-01 BMatC= 5.62D-02 BMatP= 3.22D-01
 IDIUse=3 WtCom= 9.40D-01 WtEn= 6.05D-02
 Coeff-Com: -0.338D+00 0.701D+00 0.637D+00
 Coeff-En:   0.000D+00 0.000D+00 0.100D+01
 Coeff:     -0.318D+00 0.659D+00 0.659D+00
 Gap=     0.280 Goal=   None    Shift=    0.000
 RMSDP=4.53D-04 MaxDP=2.86D-02 DE=-1.43D-01 OVMax= 5.58D-02

 Cycle   4  Pass 0  IDiag  1:
 RMSU=  1.45D-04    CP:  1.00D+00  1.64D+00  6.23D-01
 FoFJK:  IHMeth= 1 ICntrl=     0 DoSepK=T KAlg= 1 I1Cent= 0 FoldK=F
 E= -1581.43905596551     Delta-E=       -0.049997855162 Rises=F Damp=F
 DIIS: error= 1.50D-03 at cycle   4 NSaved=   4.
 NSaved= 4 IEnMin= 4 EnMin= -1581.43905596551     IErMin= 4 ErrMin= 1.50D-03
 ErrMax= 1.50D-03 EMaxC= 1.00D-01 BMatC= 3.35D-03 BMatP= 5.62D-02
 IDIUse=3 WtCom= 9.85D-01 WtEn= 1.50D-02
 Coeff-Com: -0.152D+00 0.310D+00 0.350D+00 0.492D+00
 Coeff-En:   0.000D+00 0.000D+00 0.000D+00 0.100D+01
 Coeff:     -0.150D+00 0.306D+00 0.345D+00 0.499D+00
 Gap=     0.271 Goal=   None    Shift=    0.000
 RMSDP=9.94D-05 MaxDP=8.61D-03 DE=-5.00D-02 OVMax= 9.80D-03

 Cycle   5  Pass 0  IDiag  1:
 RMSU=  4.64D-05    CP:  1.00D+00  1.63D+00  6.82D-01  7.25D-01
 FoFJK:  IHMeth= 1 ICntrl=     0 DoSepK=T KAlg= 1 I1Cent= 0 FoldK=F
 E= -1581.44199946566     Delta-E=       -0.002943500158 Rises=F Damp=F
 DIIS: error= 4.14D-04 at cycle   5 NSaved=   5.
 NSaved= 5 IEnMin= 5 EnMin= -1581.44199946566     IErMin= 5 ErrMin= 4.14D-04
 ErrMax= 4.14D-04 EMaxC= 1.00D-01 BMatC= 8.87D-05 BMatP= 3.35D-03
 IDIUse=3 WtCom= 9.96D-01 WtEn= 4.14D-03
 Coeff-Com: -0.157D-01 0.311D-01 0.562D-01 0.156D+00 0.772D+00
 Coeff-En:   0.000D+00 0.000D+00 0.000D+00 0.000D+00 0.100D+01
 Coeff:     -0.157D-01 0.309D-01 0.560D-01 0.156D+00 0.773D+00
 Gap=     0.270 Goal=   None    Shift=    0.000
 RMSDP=2.44D-05 MaxDP=2.47D-03 DE=-2.94D-03 OVMax= 2.68D-03

 Cycle   6  Pass 0  IDiag  1:
 RMSU=  1.33D-05    CP:  1.00D+00  1.64D+00  6.89D-01  7.90D-01  9.96D-01
 FoFJK:  IHMeth= 1 ICntrl=     0 DoSepK=T KAlg= 1 I1Cent= 0 FoldK=F
 E= -1581.44208825892     Delta-E=       -0.000088793253 Rises=F Damp=F
 DIIS: error= 2.52D-04 at cycle   6 NSaved=   6.
 NSaved= 6 IEnMin= 6 EnMin= -1581.44208825892     IErMin= 6 ErrMin= 2.52D-04
 ErrMax= 2.52D-04 EMaxC= 1.00D-01 BMatC= 2.63D-05 BMatP= 8.87D-05
 IDIUse=3 WtCom= 9.97D-01 WtEn= 2.52D-03
 Coeff-Com:  0.213D-01-0.441D-01-0.364D-01-0.183D-01 0.385D+00 0.692D+00
 Coeff-En:   0.000D+00 0.000D+00 0.000D+00 0.000D+00 0.000D+00 0.100D+01
 Coeff:      0.212D-01-0.440D-01-0.363D-01-0.182D-01 0.384D+00 0.693D+00
 Gap=     0.271 Goal=   None    Shift=    0.000
 RMSDP=1.34D-05 MaxDP=8.27D-04 DE=-8.88D-05 OVMax= 1.61D-03

 Cycle   7  Pass 0  IDiag  1:
 RMSU=  5.76D-06    CP:  1.00D+00  1.64D+00  6.93D-01  8.16D-01  1.12D+00
                    CP:  9.02D-01
 FoFJK:  IHMeth= 1 ICntrl=     0 DoSepK=T KAlg= 1 I1Cent= 0 FoldK=F
 E= -1581.44211834730     Delta-E=       -0.000030088378 Rises=F Damp=F
 DIIS: error= 4.72D-05 at cycle   7 NSaved=   7.
 NSaved= 7 IEnMin= 7 EnMin= -1581.44211834730     IErMin= 7 ErrMin= 4.72D-05
 ErrMax= 4.72D-05 EMaxC= 1.00D-01 BMatC= 1.83D-06 BMatP= 2.63D-05
 IDIUse=1 WtCom= 1.00D+00 WtEn= 0.00D+00
 Coeff-Com:  0.923D-02-0.189D-01-0.178D-01-0.217D-01 0.618D-01 0.247D+00
 Coeff-Com:  0.741D+00
 Coeff:      0.923D-02-0.189D-01-0.178D-01-0.217D-01 0.618D-01 0.247D+00
 Coeff:      0.741D+00
 Gap=     0.271 Goal=   None    Shift=    0.000
 RMSDP=4.10D-06 MaxDP=2.71D-04 DE=-3.01D-05 OVMax= 6.40D-04

 Initial convergence to 1.0D-05 achieved.  Increase integral accuracy.
 Cycle   8  Pass 1  IDiag  1:
 FoFJK:  IHMeth= 1 ICntrl=     0 DoSepK=T KAlg= 1 I1Cent= 0 FoldK=F
 E= -1581.44040842500     Delta-E=        0.001709922295 Rises=F Damp=F
 DIIS: error= 8.36D-05 at cycle   1 NSaved=   1.
 NSaved= 1 IEnMin= 1 EnMin= -1581.44040842500     IErMin= 1 ErrMin= 8.36D-05
 ErrMax= 8.36D-05 EMaxC= 1.00D-01 BMatC= 1.34D-05 BMatP= 1.34D-05
 IDIUse=1 WtCom= 1.00D+00 WtEn= 0.00D+00
 Coeff-Com:  0.100D+01
 Coeff:      0.100D+01
 Gap=     0.271 Goal=   None    Shift=    0.000
 RMSDP=4.10D-06 MaxDP=2.71D-04 DE= 1.71D-03 OVMax= 3.64D-04

 Cycle   9  Pass 1  IDiag  1:
 RMSU=  1.95D-05    CP:  1.00D+00
 FoFJK:  IHMeth= 1 ICntrl=     0 DoSepK=T KAlg= 1 I1Cent= 0 FoldK=F
 E= -1581.44041920708     Delta-E=       -0.000010782082 Rises=F Damp=F
 DIIS: error= 2.78D-05 at cycle   2 NSaved=   2.
 NSaved= 2 IEnMin= 2 EnMin= -1581.44041920708     IErMin= 2 ErrMin= 2.78D-05
 ErrMax= 2.78D-05 EMaxC= 1.00D-01 BMatC= 8.46D-07 BMatP= 1.34D-05
 IDIUse=1 WtCom= 1.00D+00 WtEn= 0.00D+00
 Coeff-Com:  0.416D-01 0.958D+00
 Coeff:      0.416D-01 0.958D+00
 Gap=     0.271 Goal=   None    Shift=    0.000
 RMSDP=3.33D-06 MaxDP=2.61D-04 DE=-1.08D-05 OVMax= 3.17D-04

 Cycle  10  Pass 1  IDiag  1:
 RMSU=  2.19D-06    CP:  1.00D+00  1.05D+00
 FoFJK:  IHMeth= 1 ICntrl=     0 DoSepK=T KAlg= 1 I1Cent= 0 FoldK=F
 E= -1581.44041922739     Delta-E=       -0.000000020311 Rises=F Damp=F
 DIIS: error= 3.63D-05 at cycle   3 NSaved=   3.
 NSaved= 3 IEnMin= 3 EnMin= -1581.44041922739     IErMin= 2 ErrMin= 2.78D-05
 ErrMax= 3.63D-05 EMaxC= 1.00D-01 BMatC= 1.07D-06 BMatP= 8.46D-07
 IDIUse=1 WtCom= 1.00D+00 WtEn= 0.00D+00
 Coeff-Com: -0.397D-01 0.547D+00 0.493D+00
 Coeff:     -0.397D-01 0.547D+00 0.493D+00
 Gap=     0.271 Goal=   None    Shift=    0.000
 RMSDP=1.67D-06 MaxDP=1.64D-04 DE=-2.03D-08 OVMax= 1.54D-04

 Cycle  11  Pass 1  IDiag  1:
 RMSU=  6.83D-07    CP:  1.00D+00  1.06D+00  5.72D-01
 FoFJK:  IHMeth= 1 ICntrl=     0 DoSepK=T KAlg= 1 I1Cent= 0 FoldK=F
 E= -1581.44042013493     Delta-E=       -0.000000907534 Rises=F Damp=F
 DIIS: error= 6.56D-06 at cycle   4 NSaved=   4.
 NSaved= 4 IEnMin= 4 EnMin= -1581.44042013493     IErMin= 4 ErrMin= 6.56D-06
 ErrMax= 6.56D-06 EMaxC= 1.00D-01 BMatC= 2.17D-08 BMatP= 8.46D-07
 IDIUse=1 WtCom= 1.00D+00 WtEn= 0.00D+00
 Coeff-Com: -0.168D-01 0.131D+00 0.165D+00 0.720D+00
 Coeff:     -0.168D-01 0.131D+00 0.165D+00 0.720D+00
 Gap=     0.271 Goal=   None    Shift=    0.000
 RMSDP=3.49D-07 MaxDP=3.45D-05 DE=-9.08D-07 OVMax= 4.11D-05

 Cycle  12  Pass 1  IDiag  1:
 RMSU=  2.28D-07    CP:  1.00D+00  1.06D+00  6.13D-01  1.04D+00
 FoFJK:  IHMeth= 1 ICntrl=     0 DoSepK=T KAlg= 1 I1Cent= 0 FoldK=F
 E= -1581.44042015636     Delta-E=       -0.000000021432 Rises=F Damp=F
 DIIS: error= 2.71D-06 at cycle   5 NSaved=   5.
 NSaved= 5 IEnMin= 5 EnMin= -1581.44042015636     IErMin= 5 ErrMin= 2.71D-06
 ErrMax= 2.71D-06 EMaxC= 1.00D-01 BMatC= 5.28D-09 BMatP= 2.17D-08
 IDIUse=1 WtCom= 1.00D+00 WtEn= 0.00D+00
 Coeff-Com: -0.167D-03-0.377D-01-0.158D-01 0.323D+00 0.730D+00
 Coeff:     -0.167D-03-0.377D-01-0.158D-01 0.323D+00 0.730D+00
 Gap=     0.271 Goal=   None    Shift=    0.000
 RMSDP=1.92D-07 MaxDP=1.20D-05 DE=-2.14D-08 OVMax= 2.49D-05

 Cycle  13  Pass 1  IDiag  1:
 RMSU=  8.84D-08    CP:  1.00D+00  1.06D+00  6.28D-01  1.18D+00  9.40D-01
 FoFJK:  IHMeth= 1 ICntrl=     0 DoSepK=T KAlg= 1 I1Cent= 0 FoldK=F
 E= -1581.44042016343     Delta-E=       -0.000000007069 Rises=F Damp=F
 DIIS: error= 6.94D-07 at cycle   6 NSaved=   6.
 NSaved= 6 IEnMin= 6 EnMin= -1581.44042016343     IErMin= 6 ErrMin= 6.94D-07
 ErrMax= 6.94D-07 EMaxC= 1.00D-01 BMatC= 5.16D-10 BMatP= 5.28D-09
 IDIUse=1 WtCom= 1.00D+00 WtEn= 0.00D+00
 Coeff-Com:  0.193D-02-0.284D-01-0.263D-01 0.258D-01 0.252D+00 0.775D+00
 Coeff:      0.193D-02-0.284D-01-0.263D-01 0.258D-01 0.252D+00 0.775D+00
 Gap=     0.271 Goal=   None    Shift=    0.000
 RMSDP=8.19D-08 MaxDP=3.22D-06 DE=-7.07D-09 OVMax= 1.45D-05

 Cycle  14  Pass 1  IDiag  1:
 RMSU=  3.72D-08    CP:  1.00D+00  1.06D+00  6.31D-01  1.23D+00  1.07D+00
                    CP:  1.08D+00
 FoFJK:  IHMeth= 1 ICntrl=     0 DoSepK=T KAlg= 1 I1Cent= 0 FoldK=F
 E= -1581.44042016439     Delta-E=       -0.000000000959 Rises=F Damp=F
 DIIS: error= 3.49D-07 at cycle   7 NSaved=   7.
 NSaved= 7 IEnMin= 7 EnMin= -1581.44042016439     IErMin= 7 ErrMin= 3.49D-07
 ErrMax= 3.49D-07 EMaxC= 1.00D-01 BMatC= 1.11D-10 BMatP= 5.16D-10
 IDIUse=1 WtCom= 1.00D+00 WtEn= 0.00D+00
 Coeff-Com:  0.733D-03-0.359D-02-0.773D-02-0.542D-01-0.413D-01 0.307D+00
 Coeff-Com:  0.800D+00
 Coeff:      0.733D-03-0.359D-02-0.773D-02-0.542D-01-0.413D-01 0.307D+00
 Coeff:      0.800D+00
 Gap=     0.271 Goal=   None    Shift=    0.000
 RMSDP=4.21D-08 MaxDP=1.91D-06 DE=-9.59D-10 OVMax= 7.43D-06

 Cycle  15  Pass 1  IDiag  1:
 RMSU=  1.51D-08    CP:  1.00D+00  1.06D+00  6.34D-01  1.25D+00  1.11D+00
                    CP:  1.28D+00  1.05D+00
 FoFJK:  IHMeth= 1 ICntrl=     0 DoSepK=T KAlg= 1 I1Cent= 0 FoldK=F
 E= -1581.44042016475     Delta-E=       -0.000000000360 Rises=F Damp=F
 DIIS: error= 1.33D-07 at cycle   8 NSaved=   8.
 NSaved= 8 IEnMin= 8 EnMin= -1581.44042016475     IErMin= 8 ErrMin= 1.33D-07
 ErrMax= 1.33D-07 EMaxC= 1.00D-01 BMatC= 1.75D-11 BMatP= 1.11D-10
 IDIUse=1 WtCom= 1.00D+00 WtEn= 0.00D+00
 Coeff-Com: -0.580D-04 0.366D-02 0.172D-02-0.241D-01-0.561D-01-0.190D-01
 Coeff-Com:  0.296D+00 0.798D+00
 Coeff:     -0.580D-04 0.366D-02 0.172D-02-0.241D-01-0.561D-01-0.190D-01
 Coeff:      0.296D+00 0.798D+00
 Gap=     0.271 Goal=   None    Shift=    0.000
 RMSDP=1.74D-08 MaxDP=7.81D-07 DE=-3.60D-10 OVMax= 3.94D-06

 Cycle  16  Pass 1  IDiag  1:
 RMSU=  6.29D-09    CP:  1.00D+00  1.06D+00  6.34D-01  1.26D+00  1.13D+00
                    CP:  1.35D+00  1.23D+00  1.08D+00
 FoFJK:  IHMeth= 1 ICntrl=     0 DoSepK=T KAlg= 1 I1Cent= 0 FoldK=F
 E= -1581.44042016479     Delta-E=       -0.000000000047 Rises=F Damp=F
 DIIS: error= 7.05D-08 at cycle   9 NSaved=   9.
 NSaved= 9 IEnMin= 9 EnMin= -1581.44042016479     IErMin= 9 ErrMin= 7.05D-08
 ErrMax= 7.05D-08 EMaxC= 1.00D-01 BMatC= 3.30D-12 BMatP= 1.75D-11
 IDIUse=1 WtCom= 1.00D+00 WtEn= 0.00D+00
 Coeff-Com: -0.164D-03 0.217D-02 0.219D-02 0.147D-03-0.155D-01-0.683D-01
 Coeff-Com: -0.355D-01 0.307D+00 0.808D+00
 Coeff:     -0.164D-03 0.217D-02 0.219D-02 0.147D-03-0.155D-01-0.683D-01
 Coeff:     -0.355D-01 0.307D+00 0.808D+00
 Gap=     0.271 Goal=   None    Shift=    0.000
 RMSDP=7.72D-09 MaxDP=3.45D-07 DE=-4.73D-11 OVMax= 1.65D-06

 SCF Done:  E(RwB97XD) =  -1581.44042016     A.U. after   16 cycles
             Convg  =    0.7716D-08             -V/T =  2.0108
 KE= 1.564510347823D+03 PE=-1.123660924005D+04 EE= 4.306467441617D+03
 Leave Link  502 at Tue Mar 10 14:59:17 2020, MaxMem= 2684354560 cpu:    2403.5
 (Enter /opt/g09gh/gaussian/g09/l601.exe)
 Copying SCF densities to generalized density rwf, IOpCl= 0 IROHF=0.

 **********************************************************************

            Population analysis using the SCF density.

 **********************************************************************

 Orbital symmetries:
       Occupied  (A) (A) (A) (A) (A) (A) (A) (A) (A) (A) (A) (A)
                 (A) (A) (A) (A) (A) (A) (A) (A) (A) (A) (A) (A)
                 (A) (A) (A) (A) (A) (A) (A) (A) (A) (A) (A) (A)
                 (A) (A) (A) (A) (A) (A) (A) (A) (A) (A) (A) (A)
                 (A) (A) (A) (A) (A) (A) (A) (A) (A) (A) (A) (A)
                 (A) (A) (A) (A) (A) (A) (A) (A) (A) (A) (A) (A)
                 (A) (A) (A) (A) (A) (A) (A) (A) (A) (A) (A) (A)
                 (A) (A) (A) (A) (A) (A) (A) (A) (A) (A) (A) (A)
                 (A) (A) (A) (A) (A) (A) (A) (A) (A) (A) (A) (A)
                 (A) (A) (A) (A) (A) (A) (A) (A) (A) (A) (A) (A)
                 (A) (A) (A) (A) (A) (A) (A) (A) (A) (A) (A)
       Virtual   (A) (A) (A) (A) (A) (A) (A) (A) (A) (A) (A) (A)
                 (A) (A) (A) (A) (A) (A) (A) (A) (A) (A) (A) (A)
                 (A) (A) (A) (A) (A) (A) (A) (A) (A) (A) (A) (A)
                 (A) (A) (A) (A) (A) (A) (A) (A) (A) (A) (A) (A)
                 (A) (A) (A) (A) (A) (A) (A) (A) (A) (A) (A) (A)
                 (A) (A) (A) (A) (A) (A) (A) (A) (A) (A) (A) (A)
                 (A) (A) (A) (A) (A) (A) (A) (A) (A) (A) (A) (A)
                 (A) (A) (A) (A) (A) (A) (A) (A) (A) (A) (A) (A)
                 (A) (A) (A) (A) (A) (A) (A) (A) (A) (A) (A) (A)
                 (A) (A) (A) (A) (A) (A) (A) (A) (A) (A) (A) (A)
                 (A) (A) (A) (A) (A) (A) (A) (A) (A) (A) (A) (A)
                 (A) (A) (A) (A) (A) (A) (A) (A) (A) (A) (A) (A)
                 (A) (A) (A) (A) (A) (A) (A) (A) (A) (A) (A) (A)
                 (A) (A) (A) (A) (A) (A) (A) (A) (A) (A) (A) (A)
                 (A) (A) (A) (A) (A) (A) (A) (A) (A) (A) (A) (A)
                 (A) (A) (A) (A) (A) (A) (A) (A) (A) (A) (A) (A)
                 (A) (A) (A) (A) (A) (A) (A) (A) (A) (A) (A) (A)
                 (A) (A) (A) (A) (A) (A) (A) (A) (A) (A) (A) (A)
                 (A) (A) (A) (A) (A) (A) (A) (A) (A) (A) (A) (A)
                 (A) (A) (A) (A) (A) (A) (A) (A) (A) (A) (A) (A)
                 (A) (A) (A) (A) (A) (A) (A) (A) (A) (A) (A) (A)
                 (A) (A) (A) (A) (A) (A) (A) (A) (A) (A) (A) (A)
                 (A) (A) (A) (A) (A) (A) (A) (A) (A) (A) (A) (A)
                 (A) (A) (A) (A) (A) (A) (A) (A) (A) (A) (A) (A)
                 (A) (A) (A) (A) (A) (A) (A) (A) (A) (A) (A) (A)
                 (A) (A) (A) (A) (A) (A) (A) (A) (A) (A) (A) (A)
                 (A) (A) (A) (A) (A) (A) (A) (A) (A) (A) (A) (A)
                 (A) (A) (A) (A) (A) (A) (A) (A) (A) (A) (A) (A)
                 (A) (A) (A) (A) (A) (A) (A) (A) (A) (A) (A) (A)
                 (A) (A) (A) (A) (A) (A) (A) (A) (A) (A) (A) (A)
                 (A) (A) (A) (A) (A) (A) (A) (A) (A) (A) (A) (A)
                 (A) (A) (A) (A) (A) (A) (A) (A) (A) (A) (A) (A)
                 (A) (A) (A) (A) (A) (A) (A) (A) (A) (A) (A) (A)
                 (A) (A) (A) (A) (A) (A) (A) (A) (A) (A) (A) (A)
                 (A) (A) (A) (A) (A) (A) (A) (A) (A) (A) (A) (A)
                 (A) (A) (A) (A) (A) (A) (A) (A) (A) (A) (A) (A)
                 (A) (A) (A) (A) (A) (A) (A) (A) (A) (A) (A) (A)
                 (A) (A) (A) (A) (A) (A) (A) (A) (A) (A) (A) (A)
                 (A) (A) (A) (A) (A) (A) (A) (A) (A) (A) (A) (A)
                 (A) (A) (A) (A) (A) (A) (A) (A) (A) (A) (A) (A)
                 (A) (A) (A) (A) (A) (A)
 The electronic state is 1-A.
 Alpha  occ. eigenvalues --  -19.23460 -14.49337 -14.48854 -14.48075 -14.46128
 Alpha  occ. eigenvalues --  -14.46050 -14.45951 -14.45646 -10.41932 -10.40541
 Alpha  occ. eigenvalues --  -10.39659 -10.38033 -10.37055 -10.36456 -10.36227
 Alpha  occ. eigenvalues --  -10.35677 -10.35338 -10.34917 -10.34761 -10.34702
 Alpha  occ. eigenvalues --  -10.34025 -10.33806 -10.33703 -10.32375 -10.32148
 Alpha  occ. eigenvalues --  -10.31990 -10.31963 -10.31610 -10.31319 -10.31164
 Alpha  occ. eigenvalues --  -10.31058 -10.30986 -10.30701 -10.30281 -10.30132
 Alpha  occ. eigenvalues --  -10.29586 -10.29103  -1.13506  -1.11356  -1.04942
 Alpha  occ. eigenvalues --   -1.04434  -1.03632  -1.02983  -1.00716  -0.99890
 Alpha  occ. eigenvalues --   -0.96147  -0.94444  -0.92039  -0.89069  -0.88190
 Alpha  occ. eigenvalues --   -0.86693  -0.86405  -0.85220  -0.84748  -0.83739
 Alpha  occ. eigenvalues --   -0.82725  -0.79991  -0.78454  -0.77475  -0.75786
 Alpha  occ. eigenvalues --   -0.73528  -0.72954  -0.72556  -0.72016  -0.71056
 Alpha  occ. eigenvalues --   -0.70563  -0.69670  -0.68480  -0.66331  -0.64450
 Alpha  occ. eigenvalues --   -0.63114  -0.62903  -0.62156  -0.61124  -0.59875
 Alpha  occ. eigenvalues --   -0.58275  -0.58145  -0.56744  -0.56481  -0.56141
 Alpha  occ. eigenvalues --   -0.55886  -0.55482  -0.55206  -0.54539  -0.54212
 Alpha  occ. eigenvalues --   -0.54077  -0.53485  -0.53025  -0.52331  -0.51798
 Alpha  occ. eigenvalues --   -0.51407  -0.51231  -0.51014  -0.50847  -0.50508
 Alpha  occ. eigenvalues --   -0.50020  -0.49777  -0.49625  -0.49266  -0.48842
 Alpha  occ. eigenvalues --   -0.48250  -0.47357  -0.46874  -0.46196  -0.45572
 Alpha  occ. eigenvalues --   -0.45143  -0.44729  -0.44513  -0.43825  -0.43803
 Alpha  occ. eigenvalues --   -0.43356  -0.42811  -0.42121  -0.41286  -0.40936
 Alpha  occ. eigenvalues --   -0.39942  -0.38009  -0.37846  -0.36931  -0.36368
 Alpha  occ. eigenvalues --   -0.35255  -0.34912  -0.33670  -0.33428  -0.32983
 Alpha  occ. eigenvalues --   -0.32848  -0.32250  -0.31754  -0.29316  -0.27503
 Alpha  occ. eigenvalues --   -0.27370
 Alpha virt. eigenvalues --   -0.00257   0.02984   0.03481   0.04807   0.05757
 Alpha virt. eigenvalues --    0.06581   0.07489   0.07856   0.08869   0.10163
 Alpha virt. eigenvalues --    0.10241   0.10757   0.13741   0.14011   0.15378
 Alpha virt. eigenvalues --    0.16248   0.17304   0.17976   0.18639   0.19003
 Alpha virt. eigenvalues --    0.19396   0.19901   0.20277   0.20833   0.21974
 Alpha virt. eigenvalues --    0.22244   0.22746   0.22823   0.23318   0.23503
 Alpha virt. eigenvalues --    0.23723   0.24326   0.24808   0.25210   0.25582
 Alpha virt. eigenvalues --    0.25741   0.25895   0.26558   0.26894   0.27488
 Alpha virt. eigenvalues --    0.27873   0.28148   0.28425   0.28477   0.28940
 Alpha virt. eigenvalues --    0.29105   0.29762   0.29949   0.30391   0.31025
 Alpha virt. eigenvalues --    0.31297   0.32033   0.32481   0.33330   0.33499
 Alpha virt. eigenvalues --    0.34692   0.35572   0.35968   0.36850   0.37191
 Alpha virt. eigenvalues --    0.38015   0.38504   0.39017   0.39468   0.40010
 Alpha virt. eigenvalues --    0.40653   0.41245   0.41424   0.42301   0.43744
 Alpha virt. eigenvalues --    0.45304   0.45487   0.46135   0.46690   0.48054
 Alpha virt. eigenvalues --    0.48387   0.49439   0.52180   0.52945   0.53874
 Alpha virt. eigenvalues --    0.55728   0.56187   0.56885   0.57494   0.58019
 Alpha virt. eigenvalues --    0.58270   0.58476   0.59068   0.59298   0.60026
 Alpha virt. eigenvalues --    0.60279   0.60775   0.61232   0.61602   0.62106
 Alpha virt. eigenvalues --    0.62382   0.62919   0.63202   0.63318   0.64072
 Alpha virt. eigenvalues --    0.64174   0.64296   0.64913   0.65170   0.65791
 Alpha virt. eigenvalues --    0.65887   0.66077   0.66431   0.66585   0.66932
 Alpha virt. eigenvalues --    0.67026   0.67412   0.67647   0.68317   0.68569
 Alpha virt. eigenvalues --    0.69005   0.69631   0.69755   0.70022   0.70568
 Alpha virt. eigenvalues --    0.70902   0.70990   0.71333   0.71758   0.72430
 Alpha virt. eigenvalues --    0.72938   0.73248   0.73685   0.74072   0.74737
 Alpha virt. eigenvalues --    0.75224   0.75507   0.76244   0.76404   0.76713
 Alpha virt. eigenvalues --    0.77441   0.77721   0.78188   0.78941   0.79789
 Alpha virt. eigenvalues --    0.80343   0.80852   0.81757   0.82092   0.82587
 Alpha virt. eigenvalues --    0.83060   0.83283   0.83598   0.83802   0.84803
 Alpha virt. eigenvalues --    0.85708   0.86220   0.86685   0.87079   0.87767
 Alpha virt. eigenvalues --    0.88270   0.88859   0.88962   0.89579   0.90077
 Alpha virt. eigenvalues --    0.91123   0.91781   0.92025   0.92180   0.92609
 Alpha virt. eigenvalues --    0.93043   0.93287   0.93508   0.94088   0.94427
 Alpha virt. eigenvalues --    0.94734   0.95114   0.95839   0.96238   0.96604
 Alpha virt. eigenvalues --    0.96871   0.97559   0.98202   0.98257   0.98774
 Alpha virt. eigenvalues --    0.99647   0.99815   1.00212   1.00628   1.01081
 Alpha virt. eigenvalues --    1.01851   1.02620   1.03437   1.03847   1.04115
 Alpha virt. eigenvalues --    1.04337   1.04996   1.05223   1.06314   1.07120
 Alpha virt. eigenvalues --    1.07330   1.07397   1.07829   1.08449   1.08986
[...]
                 (A) (A) (A) (A) (A) (A) (A) (A) (A) (A) (A) (A)
                 (A) (A) (A) (A) (A) (A) (A) (A) (A) (A) (A) (A)
                 (A) (A) (A) (A) (A) (A) (A) (A) (A) (A) (A) (A)
                 (A) (A) (A) (A) (A) (A) (A) (A) (A) (A) (A) (A)
                 (A) (A) (A) (A) (A) (A) (A) (A) (A) (A) (A) (A)
                 (A) (A) (A) (A) (A) (A) (A) (A) (A) (A) (A) (A)
                 (A) (A) (A) (A) (A) (A) (A) (A) (A) (A) (A) (A)
                 (A) (A) (A) (A) (A) (A) (A) (A) (A) (A) (A) (A)
                 (A) (A) (A) (A) (A) (A) (A) (A) (A) (A) (A) (A)
                 (A) (A) (A) (A) (A) (A) (A) (A) (A) (A) (A) (A)
                 (A) (A) (A) (A) (A) (A) (A) (A) (A) (A) (A) (A)
                 (A) (A) (A) (A) (A) (A) (A) (A) (A) (A) (A) (A)
                 (A) (A) (A) (A) (A) (A) (A) (A) (A) (A) (A) (A)
                 (A) (A) (A) (A) (A) (A) (A) (A) (A) (A) (A) (A)
                 (A) (A) (A) (A) (A) (A) (A) (A) (A) (A) (A) (A)
                 (A) (A) (A) (A) (A) (A) (A) (A) (A) (A) (A) (A)
                 (A) (A) (A) (A) (A) (A) (A) (A) (A) (A) (A) (A)
                 (A) (A) (A) (A) (A) (A) (A) (A) (A) (A) (A) (A)
                 (A) (A) (A) (A) (A) (A) (A) (A) (A) (A) (A) (A)
                 (A) (A) (A) (A) (A) (A) (A) (A) (A) (A) (A) (A)
                 (A) (A) (A) (A) (A) (A) (A) (A) (A) (A) (A) (A)
                 (A) (A) (A) (A) (A) (A) (A) (A) (A) (A) (A) (A)
                 (A) (A) (A) (A) (A) (A) (A) (A) (A) (A) (A) (A)
                 (A) (A) (A) (A) (A) (A) (A) (A) (A) (A) (A) (A)
                 (A) (A) (A) (A) (A) (A) (A) (A) (A) (A) (A) (A)
                 (A) (A) (A) (A) (A) (A) (A) (A) (A) (A) (A) (A)
                 (A) (A) (A) (A) (A) (A) (A) (A) (A) (A) (A) (A)
                 (A) (A) (A) (A) (A) (A) (A) (A) (A) (A) (A) (A)
                 (A) (A) (A) (A) (A) (A) (A) (A) (A) (A) (A) (A)
                 (A) (A) (A) (A) (A) (A) (A) (A) (A) (A) (A) (A)
                 (A) (A) (A) (A) (A) (A) (A) (A) (A) (A) (A) (A)
                 (A) (A) (A) (A) (A) (A)
 The electronic state is 1-A.
 Alpha  occ. eigenvalues --  -19.23379 -14.49005 -14.48314 -14.45787 -14.45761
 Alpha  occ. eigenvalues --  -14.45739 -14.44046 -14.44038 -10.41563 -10.40078
 Alpha  occ. eigenvalues --  -10.37271 -10.35974 -10.34539 -10.34468 -10.34129
 Alpha  occ. eigenvalues --  -10.33930 -10.33374 -10.32946 -10.32705 -10.31949
 Alpha  occ. eigenvalues --  -10.31827 -10.31519 -10.31417 -10.31192 -10.31169
 Alpha  occ. eigenvalues --  -10.30889 -10.30870 -10.30853 -10.30552 -10.30358
 Alpha  occ. eigenvalues --  -10.30264 -10.30172 -10.29913 -10.29680 -10.29391
 Alpha  occ. eigenvalues --  -10.28728 -10.28121  -1.13411  -1.11960  -1.05430
 Alpha  occ. eigenvalues --   -1.04713  -1.04331  -1.03543  -1.00405  -1.00331
 Alpha  occ. eigenvalues --   -0.96055  -0.94510  -0.92546  -0.89286  -0.88150
 Alpha  occ. eigenvalues --   -0.86857  -0.86312  -0.85718  -0.84569  -0.83574
 Alpha  occ. eigenvalues --   -0.82286  -0.79500  -0.77809  -0.77538  -0.76039
 Alpha  occ. eigenvalues --   -0.73618  -0.73236  -0.72805  -0.72143  -0.70826
 Alpha  occ. eigenvalues --   -0.70373  -0.69432  -0.67730  -0.66148  -0.64806
 Alpha  occ. eigenvalues --   -0.64094  -0.62991  -0.62042  -0.61192  -0.59917
 Alpha  occ. eigenvalues --   -0.58714  -0.58362  -0.57060  -0.56539  -0.56032
 Alpha  occ. eigenvalues --   -0.55569  -0.55525  -0.55397  -0.54701  -0.54417
 Alpha  occ. eigenvalues --   -0.53957  -0.53502  -0.52921  -0.52494  -0.51912
 Alpha  occ. eigenvalues --   -0.51754  -0.51328  -0.51010  -0.50940  -0.50287
 Alpha  occ. eigenvalues --   -0.50082  -0.49833  -0.49736  -0.49324  -0.48430
 Alpha  occ. eigenvalues --   -0.48083  -0.47143  -0.46986  -0.46461  -0.45819
 Alpha  occ. eigenvalues --   -0.45585  -0.45143  -0.44262  -0.43781  -0.43394
 Alpha  occ. eigenvalues --   -0.43154  -0.42820  -0.42357  -0.42022  -0.41731
 Alpha  occ. eigenvalues --   -0.41188  -0.40847  -0.39741  -0.37889  -0.37064
 Alpha  occ. eigenvalues --   -0.35091  -0.34920  -0.33547  -0.33444  -0.32987
 Alpha  occ. eigenvalues --   -0.32909  -0.31703  -0.30238  -0.28993  -0.27108
 Alpha  occ. eigenvalues --   -0.26733
 Alpha virt. eigenvalues --    0.00286   0.03456   0.03833   0.04756   0.06672
 Alpha virt. eigenvalues --    0.07760   0.08454   0.10854   0.14658   0.15123
 Alpha virt. eigenvalues --    0.15970   0.16623   0.17462   0.18130   0.18638
 Alpha virt. eigenvalues --    0.19645   0.19747   0.20256   0.20961   0.21466
 Alpha virt. eigenvalues --    0.21558   0.22044   0.22952   0.23048   0.23311
 Alpha virt. eigenvalues --    0.23581   0.23695   0.24299   0.24546   0.24812
 Alpha virt. eigenvalues --    0.25141   0.25322   0.25714   0.26175   0.26364
 Alpha virt. eigenvalues --    0.26662   0.27020   0.27481   0.28121   0.28676
 Alpha virt. eigenvalues --    0.28832   0.29118   0.29640   0.29845   0.30410
 Alpha virt. eigenvalues --    0.30477   0.30838   0.31436   0.31669   0.32466
 Alpha virt. eigenvalues --    0.32643   0.33098   0.33732   0.34338   0.34710
 Alpha virt. eigenvalues --    0.35337   0.35809   0.36478   0.36764   0.37572
 Alpha virt. eigenvalues --    0.37982   0.38259   0.38737   0.39418   0.40163
 Alpha virt. eigenvalues --    0.41019   0.41909   0.42275   0.42492   0.42730
 Alpha virt. eigenvalues --    0.44704   0.44872   0.46305   0.47380   0.47631
 Alpha virt. eigenvalues --    0.48553   0.50317   0.51379   0.53199   0.54726
 Alpha virt. eigenvalues --    0.55843   0.56508   0.57542   0.58363   0.58586
 Alpha virt. eigenvalues --    0.58934   0.59757   0.60175   0.60573   0.60778
 Alpha virt. eigenvalues --    0.61404   0.61915   0.61985   0.62524   0.62748
 Alpha virt. eigenvalues --    0.63394   0.63438   0.64156   0.64307   0.64504
 Alpha virt. eigenvalues --    0.65359   0.65529   0.65677   0.65872   0.65904
 Alpha virt. eigenvalues --    0.66481   0.66630   0.66750   0.67358   0.67801
 Alpha virt. eigenvalues --    0.68025   0.68127   0.68424   0.69401   0.69510
 Alpha virt. eigenvalues --    0.70004   0.70158   0.70490   0.70574   0.71066
 Alpha virt. eigenvalues --    0.71396   0.71723   0.72003   0.73184   0.73333
 Alpha virt. eigenvalues --    0.73666   0.74001   0.74409   0.74848   0.75041
 Alpha virt. eigenvalues --    0.75468   0.75883   0.76547   0.77167   0.77859
 Alpha virt. eigenvalues --    0.78119   0.78988   0.79563   0.80886   0.81157
 Alpha virt. eigenvalues --    0.82512   0.82860   0.83077   0.83700   0.83962
 Alpha virt. eigenvalues --    0.84496   0.84855   0.85641   0.86226   0.87707
 Alpha virt. eigenvalues --    0.88253   0.88873   0.89217   0.89382   0.90250
 Alpha virt. eigenvalues --    0.90414   0.90934   0.91572   0.91953   0.92433
 Alpha virt. eigenvalues --    0.92571   0.92885   0.93082   0.93637   0.93831
 Alpha virt. eigenvalues --    0.94034   0.94226   0.94470   0.94826   0.95287
 Alpha virt. eigenvalues --    0.95679   0.95901   0.96467   0.96628   0.97345
 Alpha virt. eigenvalues --    0.97966   0.98075   0.98577   0.98917   0.99461
 Alpha virt. eigenvalues --    1.00118   1.00438   1.00949   1.01568   1.01915
 Alpha virt. eigenvalues --    1.02195   1.02409   1.03409   1.03881   1.03934
 Alpha virt. eigenvalues --    1.04561   1.05335   1.05547   1.06122   1.06482
 Alpha virt. eigenvalues --    1.07249   1.07681   1.08217   1.08563   1.09352
 Alpha virt. eigenvalues --    1.09545   1.09628   1.10310   1.11219   1.12118
 Alpha virt. eigenvalues --    1.12956   1.13368   1.13657   1.14601   1.15989
 Alpha virt. eigenvalues --    1.16476   1.16794   1.17353   1.18537   1.19124
 Alpha virt. eigenvalues --    1.19536   1.20636   1.22292   1.23175   1.24026
 Alpha virt. eigenvalues --    1.24715   1.25828   1.26612   1.27316   1.27863
 Alpha virt. eigenvalues --    1.28802   1.29814   1.30747   1.31580   1.31733
 Alpha virt. eigenvalues --    1.32082   1.33457   1.33686   1.35723   1.35897
 Alpha virt. eigenvalues --    1.36674   1.36991   1.37686   1.38555   1.39430
 Alpha virt. eigenvalues --    1.40379   1.42438   1.42753   1.43233   1.44089
 Alpha virt. eigenvalues --    1.44450   1.46017   1.47300   1.48154   1.48516
 Alpha virt. eigenvalues --    1.48924   1.49364   1.49987   1.51612   1.52244
 Alpha virt. eigenvalues --    1.52618   1.52913   1.53978   1.54249   1.54593
 Alpha virt. eigenvalues --    1.55214   1.55703   1.56457   1.56575   1.57143
 Alpha virt. eigenvalues --    1.57583   1.57744   1.58675   1.59112   1.59723
 Alpha virt. eigenvalues --    1.60130   1.60406   1.61184   1.62512   1.63195
 Alpha virt. eigenvalues --    1.65326   1.65860   1.66385   1.68835   1.69536
 Alpha virt. eigenvalues --    1.69732   1.72593   1.73016   1.75040   1.76670
 Alpha virt. eigenvalues --    1.79482   1.81207   1.81789   1.82253   1.83507
 Alpha virt. eigenvalues --    1.84671   1.85215   1.86764   1.86872   1.88042
 Alpha virt. eigenvalues --    1.88398   1.89163   1.89563   1.90425   1.91357
 Alpha virt. eigenvalues --    1.91605   1.92456   1.93014   1.93644   1.93847
 Alpha virt. eigenvalues --    1.94487   1.94989   1.95500   1.96189   1.98390
 Alpha virt. eigenvalues --    1.98801   1.99291   1.99730   2.00638   2.01206
 Alpha virt. eigenvalues --    2.01712   2.02156   2.02514   2.02964   2.03846
 Alpha virt. eigenvalues --    2.04362   2.05088   2.06464   2.07403   2.07614
 Alpha virt. eigenvalues --    2.08338   2.08828   2.10514   2.11352   2.11950
 Alpha virt. eigenvalues --    2.12783   2.13075   2.13568   2.14111   2.15092
 Alpha virt. eigenvalues --    2.15773   2.16634   2.17476   2.18912   2.19387
 Alpha virt. eigenvalues --    2.20096   2.20908   2.22012   2.22458   2.23076
 Alpha virt. eigenvalues --    2.23293   2.23703   2.24316   2.24908   2.25061
 Alpha virt. eigenvalues --    2.25852   2.26076   2.26326   2.26763   2.27040
 Alpha virt. eigenvalues --    2.28840   2.29933   2.30780   2.31343   2.32590
 Alpha virt. eigenvalues --    2.32905   2.34410   2.35216   2.35413   2.37003
 Alpha virt. eigenvalues --    2.37620   2.38492   2.38696   2.39017   2.40312
 Alpha virt. eigenvalues --    2.40747   2.41246   2.41386   2.42276   2.42491
 Alpha virt. eigenvalues --    2.43269   2.43708   2.44388   2.44922   2.45231
 Alpha virt. eigenvalues --    2.45667   2.47092   2.47816   2.49414   2.50153
 Alpha virt. eigenvalues --    2.50894   2.51887   2.52531   2.54169   2.55882
 Alpha virt. eigenvalues --    2.57667   2.59179   2.61851   2.62653   2.64254
 Alpha virt. eigenvalues --    2.65359   2.65832   2.66011   2.66335   2.68318
 Alpha virt. eigenvalues --    2.68853   2.69895   2.70964   2.71359   2.71870
 Alpha virt. eigenvalues --    2.73293   2.74323   2.75220   2.75907   2.76824
 Alpha virt. eigenvalues --    2.77416   2.77546   2.79163   2.81321   2.81951
 Alpha virt. eigenvalues --    2.83072   2.83520   2.84358   2.84675   2.85389
 Alpha virt. eigenvalues --    2.86206   2.87237   2.87759   2.88656   2.89612
 Alpha virt. eigenvalues --    2.91197   2.92193   2.93314   2.94291   2.94789
 Alpha virt. eigenvalues --    2.95344   2.97016   2.98771   3.03613   3.04340
 Alpha virt. eigenvalues --    3.05743   3.06441   3.09680   3.10542   3.13392
 Alpha virt. eigenvalues --    3.19716   3.27463   3.29627   3.39571   3.41588
 Alpha virt. eigenvalues --    3.45878   3.53574   3.56688   3.58042   4.14421
 Alpha virt. eigenvalues --    4.14458   4.15946   4.18266   4.18605   4.19123
 Alpha virt. eigenvalues --    4.20134   4.20687   4.22164   4.22437   4.24841
 Alpha virt. eigenvalues --    4.25925   4.26530   4.28331   4.31192   4.32224
 Alpha virt. eigenvalues --    4.33040   4.35002   4.36761   4.40762   4.41483
 Alpha virt. eigenvalues --    4.41705   4.43839   4.45269   4.45648   4.50059
 Alpha virt. eigenvalues --    4.50534   4.52469   4.55310   4.58368   4.62656
 Alpha virt. eigenvalues --    4.63554   4.68383   4.69441   4.79418   4.84065
 Alpha virt. eigenvalues --    4.89832
          Condensed to atoms (all electrons):
 Mulliken atomic charges:
              1
     1  C   -0.199196
     2  C   -0.157911
     3  C    0.038253
     4  C    0.007384
     5  N   -0.434470
     6  C    0.021366
     7  C    0.288353
     8  C   -0.255809
     9  C    0.051348
    10  N   -0.498429
    11  C    0.718944
    12  N   -0.564882
    13  N   -0.813032
    14  C    0.297622
    15  C    0.117107
    16  C   -0.239798
    17  C   -0.193897
    18  C    0.361265
    19  C   -0.278833
    20  N   -0.763688
    21  C    0.586339
    22  C    0.020136
    23  C   -0.219160
    24  C   -0.174053
    25  C    0.111757
    26  C   -0.220667
    27  C   -0.184913
    28  C   -0.215657
    29  N   -0.410336
    30  C   -0.165826
    31  C   -0.174975
    32  N   -0.400895
    33  C   -0.348818
    34  C   -0.191210
    35  C   -0.170139
    36  O   -0.513545
    37  C   -0.610690
    38  H    0.184390
    39  H    0.183236
    40  H    0.188765
    41  H    0.206704
    42  H    0.180778
    43  H    0.188303
    44  H    0.370964
    45  H    0.160099
    46  H    0.214309
    47  H    0.206817
    48  H    0.361123
    49  H    0.177731
    50  H    0.183556
    51  H    0.165953
    52  H    0.194517
    53  H    0.174302
    54  H    0.142343
    55  H    0.159733
    56  H    0.130665
    57  H    0.155375
    58  H    0.171837
    59  H    0.140109
    60  H    0.167176
    61  H    0.167771
    62  H    0.154264
    63  H    0.192828
    64  H    0.128416
    65  H    0.175756
    66  H    0.181463
    67  H    0.181106
    68  H    0.190565
 Sum of Mulliken atomic charges =   0.00000
 Mulliken charges with hydrogens summed into heavy atoms:
              1
     1  C   -0.014807
     2  C    0.025325
     3  C    0.038253
     4  C    0.196149
     5  N   -0.434470
     6  C    0.228070
     7  C    0.288353
     8  C   -0.075031
     9  C    0.239651
    10  N   -0.498429
    11  C    0.718944
    12  N   -0.564882
    13  N   -0.442068
    14  C    0.297622
    15  C    0.117107
    16  C   -0.079700
    17  C    0.020412
    18  C    0.361265
    19  C   -0.072016
    20  N   -0.402566
    21  C    0.586339
    22  C    0.020136
    23  C   -0.041428
    24  C    0.009503
    25  C    0.111757
    26  C   -0.054714
    27  C    0.009604
    28  C    0.100988
    29  N   -0.410336
    30  C    0.124572
    31  C    0.152238
    32  N   -0.400895
    33  C    0.126238
    34  C    0.155882
    35  C    0.134033
    36  O   -0.513545
    37  C   -0.057556
 Sum of Mulliken charges with hydrogens summed into heavy atoms =   0.00000
 Electronic spatial extent (au):  <R**2>=          22658.6739
 Charge=              0.0000 electrons
 Dipole moment (field-independent basis, Debye):
    X=             -1.8060    Y=              5.9084    Z=              0.7066  Tot=              6.2186
 Quadrupole moment (field-independent basis, Debye-Ang):
   XX=           -182.7145   YY=           -211.6597   ZZ=           -215.9373
   XY=              8.0054   XZ=             -1.8979   YZ=              0.5601
 Traceless Quadrupole moment (field-independent basis, Debye-Ang):
   XX=             20.7227   YY=             -8.2225   ZZ=            -12.5001
   XY=              8.0054   XZ=             -1.8979   YZ=              0.5601
 Octapole moment (field-independent basis, Debye-Ang**2):
  XXX=            -26.8052  YYY=            236.0929  ZZZ=              1.2480  XYY=              8.0036
  XXY=            -26.1333  XXZ=              2.9738  XZZ=            -29.2497  YZZ=             -1.4398
  YYZ=             28.3300  XYZ=             -0.7442
 Hexadecapole moment (field-independent basis, Debye-Ang**3):
 XXXX=         -18511.6470 YYYY=          -9845.9459 ZZZZ=           -714.1024 XXXY=           -311.8547
 XXXZ=            108.8525 YYYX=            323.9845 YYYZ=            -18.6768 ZZZX=             -3.5929
 ZZZY=              9.4199 XXYY=          -4642.5402 XXZZ=          -3458.1729 YYZZ=          -1835.7193
 XXYZ=            -38.5604 YYXZ=            -75.1179 ZZXY=             -6.0173
 N-N= 3.823450229700D+03 E-N=-1.131879483991D+04  KE= 1.567157545767D+03
 No NMR shielding tensors so no spin-rotation constants.
 Leave Link  601 at Tue Mar 10 22:56:33 2020, MaxMem= 2684354560 cpu:       6.4
 (Enter /opt/g09gh/gaussian/g09/l9999.exe)
 1\1\GINC-NODE36\FOpt\RwB97XD\6-31G(d)\C29H31N7O1\BDW2292\10-Mar-2020\0
 \\#P opt=(,maxcycle=400) wB97XD/6-31G* MaxDisk=100GB\\MOLECULE0 Rotata
 ble Bond Optimization on g2-node38.bme.utexas.edu\\0,1\C,-1.9565734873
 ,1.5063998499,5.4992678952\C,-0.7841329438,0.9178801907,5.9522123961\C
 ,0.0718860685,0.3078000952,5.0337805681\C,-0.3155720503,0.324074766,3.
 6890041552\N,-1.4387053246,0.8830396785,3.2401094324\C,-2.2424771527,1
 .4631136582,4.138403768\C,1.3387864404,-0.3407741815,5.4542274853\C,2.
 0267073726,0.0643947755,6.5956127522\C,3.1875368417,-0.6399630391,6.90
 05478306\N,3.6484172894,-1.6382140479,6.1632853093\C,2.9228720315,-1.9
 375867923,5.0646945439\N,1.7925509376,-1.3370117647,4.6818193581\N,3.4
 546706881,-2.9661041242,4.3360013415\C,3.0666906916,-3.5766409149,3.13
 32315373\C,3.881906296,-4.6189969517,2.6421911904\C,3.510043604,-5.222
 9518238,1.4460590163\C,2.3848886769,-4.845171252,0.7187387972\C,1.5978
 846101,-3.8133333039,1.2218208284\C,1.9347423419,-3.188987533,2.425715
 9287\N,0.4534242558,-3.3115396184,0.5814591384\C,-0.1495807429,-3.7020
 62237,-0.5894445355\C,-1.3138235879,-2.8214178952,-0.9415568941\C,-1.3
 003474512,-1.4511254203,-0.6587616693\C,-2.4336252281,-0.6839161534,-0
 .8620132028\C,-3.6078531314,-1.2638037041,-1.3481626091\C,-3.598363624
 6,-2.6136189948,-1.693629717\C,-2.4556349699,-3.3884970101,-1.50219276
 48\C,-4.862873461,-0.4101094478,-1.3779575221\N,-4.9692357,0.288091612
 5,-0.1130948075\C,-5.7107233922,1.5318326932,-0.0750353649\C,-5.322819
 6839,2.2690382205,1.2160609139\N,-5.529934785,1.4865315826,2.432897860
 6\C,-6.921688331,1.4337505468,2.8500024159\C,-4.9175213196,0.165006209
 2,2.3000556715\C,-5.3041254532,-0.5650747639,1.0144097722\O,0.18815609
 58,-4.6650913608,-1.2567866354\C,5.1165479882,-5.0687525487,3.38181527
 64\H,-2.6475934511,1.979710415,6.1885238017\H,-0.551888377,0.910382755
 ,7.0132430371\H,0.3320738651,-0.1307567399,2.9433857145\H,-3.166078603
 ,1.8947049556,3.7545294067\H,1.6985898477,0.8957598689,7.206557717\H,3
 .776256407,-0.3856734658,7.7797565169\H,4.3010026075,-3.3126954673,4.7
 62317545\H,4.1304441017,-6.0279912295,1.0602698645\H,2.1188790994,-5.3
 333242557,-0.2083607676\H,1.3159540227,-2.3959004363,2.8231760035\H,-0
 .0251953655,-2.5856552443,1.0934151614\H,-0.4001281801,-0.9763288779,-
 0.2773011224\H,-2.4397634021,0.3643998218,-0.5826866834\H,-4.503750294
 2,-3.0776299376,-2.0776247803\H,-2.4536008151,-4.4471165783,-1.7423232
 015\H,-4.7860734715,0.3414672385,-2.1736517523\H,-5.7454472815,-1.0347
 807565,-1.611082955\H,-5.4286902485,2.1454542098,-0.9383676257\H,-6.80
 6774762,1.3761815866,-0.1248076228\H,-5.8777880296,3.2096649901,1.3043
 349162\H,-4.2542295991,2.5092596077,1.1494991277\H,-7.6025882691,0.936
 4578318,2.1378910134\H,-7.2897691456,2.4533591819,3.0067805069\H,-6.99
 03608759,0.9008840867,3.8042591773\H,-5.1759193688,-0.4319905755,3.181
 6675828\H,-3.8283915565,0.2877704079,2.2810259901\H,-6.3771471014,-0.8
 416051449,1.0099317993\H,-4.7279217221,-1.4929877025,0.9440720574\H,4.
 8848483296,-5.436181267,4.3905762106\H,5.8564679689,-4.2632884658,3.48
 17461681\H,5.6042842608,-5.8872608079,2.8465577327\\Version=EM64L-G09R
 evA.02\State=1-A\HF=-1581.7672711\RMSD=7.462e-09\RMSF=2.256e-06\Dipole
 =-0.8815115,1.4470953,1.7648185\Quadrupole=9.9229278,-8.4947705,-1.428
 1573,-4.3519086,10.4941116,-1.6570925\PG=C01 [X(C29H31N7O1)]\\@


 BETTER TO HUNT IN FIELDS, FOR HEALTH UNBOUGHT
 THAN FEE THE DOCTOR FOR A NAUSEOUS DRAUGHT.
 THE WISE, FOR CURE, ON EXERCISE DEPEND;
 GOD NEVER MADE HIS WORK FOR MAN TO MEND.
     -- JOHN DRYDEN (1631-1700)
 Job cpu time:  1 days 23 hours 41 minutes 30.3 seconds.
 File lengths (MBytes):  RWF=    244 Int=      0 D2E=      0 Chk=     25 Scr=      1
 Normal termination of Gaussian 09 at Tue Mar 10 22:56:34 2020.
