 Entering Gaussian System, Link 0=g09
 Input=MOLECULE0-opt-29-28-25-24-197.com
 Output=MOLECULE0-opt-29-28-25-24-197.log
 Initial command:
 /opt/g09gh/gaussian/g09/l1.exe /scratch/bdw2292/Gau-MOLECULE0/Gau-64046.inp -scrdir=/scratch/bdw2292/Gau-MOLECULE0/
 Entering Link 1 = /opt/g09gh/gaussian/g09/l1.exe PID=     64047.
  
 Copyright (c) 1988,1990,1992,1993,1995,1998,2003,2009, Gaussian, Inc.
                  All Rights Reserved.
  
 This is part of the Gaussian(R) 09 program.  It is based on
 the Gaussian(R) 03 system (copyright 2003, Gaussian, Inc.),
 the Gaussian(R) 98 system (copyright 1998, Gaussian, Inc.),
 the Gaussian(R) 94 system (copyright 1995, Gaussian, Inc.),
 the Gaussian 92(TM) system (copyright 1992, Gaussian, Inc.),
 the Gaussian 90(TM) system (copyright 1990, Gaussian, Inc.),
 the Gaussian 88(TM) system (copyright 1988, Gaussian, Inc.),
 the Gaussian 86(TM) system (copyright 1986, Carnegie Mellon
 University), and the Gaussian 82(TM) system (copyright 1983,
 Carnegie Mellon University). Gaussian is a federally registered
 trademark of Gaussian, Inc.
  
 This software contains proprietary and confidential information,
 including trade secrets, belonging to Gaussian, Inc.
  
 This software is provided under written license and may be
 used, copied, transmitted, or stored only in accord with that
 written license.
  
 The following legend is applicable only to US Government
 contracts under FAR:
  
                    RESTRICTED RIGHTS LEGEND
  
 Use, reproduction and disclosure by the US Government is
 subject to restrictions as set forth in subparagraphs (a)
 and (c) of the Commercial Computer Software - Restricted
 Rights clause in FAR 52.227-19.
  
 Gaussian, Inc.
 340 Quinnipiac St., Bldg. 40, Wallingford CT 06492
  
  
 ---------------------------------------------------------------
 Warning -- This program may not be used in any manner that
 competes with the business of Gaussian, Inc. or will provide
 assistance to any competitor of Gaussian, Inc.  The licensee
 of this program is prohibited from giving any competitor of
 Gaussian, Inc. access to this program.  By using this program,
 the user acknowledges that Gaussian, Inc. is engaged in the
 business of creating and licensing software in the field of
 computational chemistry and represents and warrants to the
 licensee that it is not a competitor of Gaussian, Inc. and that
 it will not use this program in any manner prohibited above.
 ---------------------------------------------------------------
  

 Cite this work as:
 Gaussian 09, Revision A.02,
 M. J. Frisch, G. W. Trucks, H. B. Schlegel, G. E. Scuseria, 
 M. A. Robb, J. R. Cheeseman, G. Scalmani, V. Barone, B. Mennucci, 
 G. A. Petersson, H. Nakatsuji, M. Caricato, X. Li, H. P. Hratchian, 
 A. F. Izmaylov, J. Bloino, G. Zheng, J. L. Sonnenberg, M. Hada, 
 M. Ehara, K. Toyota, R. Fukuda, J. Hasegawa, M. Ishida, T. Nakajima, 
 Y. Honda, O. Kitao, H. Nakai, T. Vreven, J. A. Montgomery, Jr., 
 J. E. Peralta, F. Ogliaro, M. Bearpark, J. J. Heyd, E. Brothers, 
 K. N. Kudin, V. N. Staroverov, R. Kobayashi, J. Normand, 
 K. Raghavachari, A. Rendell, J. C. Burant, S. S. Iyengar, J. Tomasi, 
 M. Cossi, N. Rega, J. M. Millam, M. Klene, J. E. Knox, J. B. Cross, 
 V. Bakken, C. Adamo, J. Jaramillo, R. Gomperts, R. E. Stratmann, 
 O. Yazyev, A. J. Austin, R. Cammi, C. Pomelli, J. W. Ochterski, 
 R. L. Martin, K. Morokuma, V. G. Zakrzewski, G. A. Voth, 
 P. Salvador, J. J. Dannenberg, S. Dapprich, A. D. Daniels, 
 O. Farkas, J. B. Foresman, J. V. Ortiz, J. Cioslowski, 
 and D. J. Fox, Gaussian, Inc., Wallingford CT, 2009.
 
 ******************************************
 Gaussian 09:  EM64L-G09RevA.02 11-Jun-2009
                 8-Apr-2020 
 ******************************************
 %RWF=/scratch/bdw2292/Gau-MOLECULE0/,100GB
 %Nosave
 %Chk=MOLECULE0-opt-29-28-25-24-197.chk
 %Mem=20GB
 %Nproc=6
 Will use up to    6 processors via shared memory.
 --------------------------------------------------
 #P opt=(,maxcycle=400) wB97XD/6-31G* MaxDisk=100GB
 --------------------------------------------------
 1/6=400,14=-1,18=20,19=15,26=3,38=1/1,3;
 2/9=110,12=2,17=6,18=5,40=1/2;
 3/5=1,6=6,7=1,11=2,16=1,25=1,30=1,71=1,74=-58/1,2,3;
 4//1;
 5/5=2,38=5/2;
 6/7=2,8=2,9=2,10=2,28=1/1;
 7//1,2,3,16;
 1/6=400,14=-1,18=20,19=15/3(2);
 2/9=110/2;
 99//99;
 2/9=110/2;
 3/5=1,6=6,7=1,11=2,16=1,25=1,30=1,71=1,74=-58/1,2,3;
 4/5=5,16=3/1;
 5/5=2,38=5/2;
 7//1,2,3,16;
 1/6=400,14=-1,18=20,19=15/3(-5);
 2/9=110/2;
 6/7=2,8=2,9=2,10=2,19=2,28=1/1;
 99/9=1/99;
 Leave Link    1 at Wed Apr  8 16:52:57 2020, MaxMem= 2684354560 cpu:       1.5
 (Enter /opt/g09gh/gaussian/g09/l101.exe)
 --------------------------------------------------------------
 MOLECULE0 Rotatable Bond Optimization on node37.bme.utexas.edu
 --------------------------------------------------------------
 Symbolic Z-matrix:
 Charge =  0 Multiplicity = 1
 C                    -0.25655  -2.0101   -7.10328 
 C                     1.1325   -2.0108   -6.91879 
 C                     1.67384  -2.15066  -5.62457 
 C                     0.73112  -2.30011  -4.57743 
 N                    -0.59809  -2.3003   -4.73541 
 C                    -1.07646  -2.15541  -5.9793 
 C                     3.15577  -2.13837  -5.33901 
 C                     4.1643   -2.02422  -6.31024 
 C                     5.4765   -2.01642  -5.82686 
 N                     5.80424  -2.09968  -4.54135 
 C                     4.772    -2.19867  -3.6768 
 N                     3.48498  -2.21962  -4.03418 
 N                     5.13546  -2.27479  -2.34115 
 C                     4.40128  -2.45908  -1.11572 
 C                     5.10551  -2.85336   0.06339 
 C                     4.35151  -3.02483   1.23658 
 C                     2.96539  -2.84645   1.3059 
 C                     2.29646  -2.45416   0.14347 
 C                     3.01712  -2.2613   -1.04348 
 N                     0.90019  -2.24729   0.04315 
 C                    -0.10093  -3.1397   -0.25507 
 C                    -1.47936  -2.58903  -0.55608 
 C                    -1.69177  -1.37798  -1.23402 
 C                    -2.98872  -0.90798  -1.45029 
 C                    -4.11398  -1.63136  -1.01222 
 C                    -3.88616  -2.85361  -0.35096 
 C                    -2.59289  -3.33687  -0.14016 
 C                    -5.52838  -1.07921  -1.19509 
 N                    -6.05043  -0.11912  -0.20525 
 C                    -5.5524    1.27436  -0.22613 
 C                    -4.36617   1.54601   0.73452 
 N                    -4.62153   1.14629   2.13812 
 C                    -5.37589   2.09436   2.96659 
 C                    -5.08208  -0.26373   2.16248 
 C                    -6.25075  -0.57393   1.19013 
 O                     0.08721  -4.34371  -0.25589 
 C                     6.6034   -3.10462   0.10148 
 H                    -0.69314  -1.89887  -8.09126 
 H                     1.76453  -1.88874  -7.79496 
 H                     1.06795  -2.44056  -3.55657 
 H                    -2.16096  -2.16108  -6.0739 
 H                     3.9782   -1.94859  -7.37431 
 H                     6.31545  -1.93439  -6.51728 
 H                     6.14188  -2.27882  -2.26929 
 H                     4.85506  -3.33459   2.15169 
 H                     2.41647  -3.01491   2.22399 
 H                     2.49153  -1.9656   -1.93753 
 H                     0.63301  -1.27736   0.13859 
 H                    -0.83742  -0.8103   -1.59356 
 H                    -3.1207    0.04146  -1.96889 
 H                    -4.72787  -3.44204   0.01351 
 H                    -2.4236   -4.28211   0.36956 
 H                    -5.58871  -0.5964   -2.18114 
 H                    -6.23292  -1.92315  -1.2187 
 H                    -5.35724   1.58974  -1.21644 
 H                    -6.73032   2.1827    0.30375 
 H                    -4.10711   3.0215    0.70256 
 H                    -3.41915   1.01904   0.38549 
 H                    -6.40325   2.20574   2.60185 
 H                    -4.88849   3.07596   2.95741 
 H                    -5.40688   1.74587   4.00543 
 H                    -5.33385  -0.55684   3.21346 
 H                    -3.91579  -1.10356   1.73217 
 H                    -7.48764   0.22591   1.76001 
 H                    -6.52952  -1.65947   1.21196 
 H                     7.1704   -2.18635  -0.10736 
 H                     6.90362  -3.85582  -0.64283 
 H                     6.95111  -3.47555   1.07559 
 
 NAtoms=     68 NQM=     68 NQMF=      0 NMic=      0 NMicF=      0 NTot=     68.
                    Isotopes and Nuclear Properties:
 (Nuclear quadrupole moments (NQMom) in fm**2, nuclear magnetic moments (NMagM)
  in nuclear magnetons)

  Atom         1           2           3           4           5           6           7           8           9          10
 IAtWgt=          12          12          12          12          14          12          12          12          12          14
 AtmWgt=  12.0000000  12.0000000  12.0000000  12.0000000  14.0030740  12.0000000  12.0000000  12.0000000  12.0000000  14.0030740
 NucSpn=           0           0           0           0           2           0           0           0           0           2
 AtZEff=   0.0000000   0.0000000   0.0000000   0.0000000   0.0000000   0.0000000   0.0000000   0.0000000   0.0000000   0.0000000
 NQMom=    0.0000000   0.0000000   0.0000000   0.0000000   2.0440000   0.0000000   0.0000000   0.0000000   0.0000000   2.0440000
 NMagM=    0.0000000   0.0000000   0.0000000   0.0000000   0.4037610   0.0000000   0.0000000   0.0000000   0.0000000   0.4037610

  Atom        11          12          13          14          15          16          17          18          19          20
 IAtWgt=          12          14          14          12          12          12          12          12          12          14
 AtmWgt=  12.0000000  14.0030740  14.0030740  12.0000000  12.0000000  12.0000000  12.0000000  12.0000000  12.0000000  14.0030740
 NucSpn=           0           2           2           0           0           0           0           0           0           2
 AtZEff=   0.0000000   0.0000000   0.0000000   0.0000000   0.0000000   0.0000000   0.0000000   0.0000000   0.0000000   0.0000000
 NQMom=    0.0000000   2.0440000   2.0440000   0.0000000   0.0000000   0.0000000   0.0000000   0.0000000   0.0000000   2.0440000
 NMagM=    0.0000000   0.4037610   0.4037610   0.0000000   0.0000000   0.0000000   0.0000000   0.0000000   0.0000000   0.4037610

  Atom        21          22          23          24          25          26          27          28          29          30
 IAtWgt=          12          12          12          12          12          12          12          12          14          12
 AtmWgt=  12.0000000  12.0000000  12.0000000  12.0000000  12.0000000  12.0000000  12.0000000  12.0000000  14.0030740  12.0000000
 NucSpn=           0           0           0           0           0           0           0           0           2           0
 AtZEff=   0.0000000   0.0000000   0.0000000   0.0000000   0.0000000   0.0000000   0.0000000   0.0000000   0.0000000   0.0000000
 NQMom=    0.0000000   0.0000000   0.0000000   0.0000000   0.0000000   0.0000000   0.0000000   0.0000000   2.0440000   0.0000000
 NMagM=    0.0000000   0.0000000   0.0000000   0.0000000   0.0000000   0.0000000   0.0000000   0.0000000   0.4037610   0.0000000

  Atom        31          32          33          34          35          36          37          38          39          40
 IAtWgt=          12          14          12          12          12          16          12           1           1           1
 AtmWgt=  12.0000000  14.0030740  12.0000000  12.0000000  12.0000000  15.9949146  12.0000000   1.0078250   1.0078250   1.0078250
 NucSpn=           0           2           0           0           0           0           0           1           1           1
 AtZEff=   0.0000000   0.0000000   0.0000000   0.0000000   0.0000000   0.0000000   0.0000000   0.0000000   0.0000000   0.0000000
 NQMom=    0.0000000   2.0440000   0.0000000   0.0000000   0.0000000   0.0000000   0.0000000   0.0000000   0.0000000   0.0000000
 NMagM=    0.0000000   0.4037610   0.0000000   0.0000000   0.0000000   0.0000000   0.0000000   2.7928460   2.7928460   2.7928460

  Atom        41          42          43          44          45          46          47          48          49          50
 IAtWgt=           1           1           1           1           1           1           1           1           1           1
 AtmWgt=   1.0078250   1.0078250   1.0078250   1.0078250   1.0078250   1.0078250   1.0078250   1.0078250   1.0078250   1.0078250
 NucSpn=           1           1           1           1           1           1           1           1           1           1
 AtZEff=   0.0000000   0.0000000   0.0000000   0.0000000   0.0000000   0.0000000   0.0000000   0.0000000   0.0000000   0.0000000
 NQMom=    0.0000000   0.0000000   0.0000000   0.0000000   0.0000000   0.0000000   0.0000000   0.0000000   0.0000000   0.0000000
 NMagM=    2.7928460   2.7928460   2.7928460   2.7928460   2.7928460   2.7928460   2.7928460   2.7928460   2.7928460   2.7928460

  Atom        51          52          53          54          55          56          57          58          59          60
 IAtWgt=           1           1           1           1           1           1           1           1           1           1
 AtmWgt=   1.0078250   1.0078250   1.0078250   1.0078250   1.0078250   1.0078250   1.0078250   1.0078250   1.0078250   1.0078250
 NucSpn=           1           1           1           1           1           1           1           1           1           1
 AtZEff=   0.0000000   0.0000000   0.0000000   0.0000000   0.0000000   0.0000000   0.0000000   0.0000000   0.0000000   0.0000000
 NQMom=    0.0000000   0.0000000   0.0000000   0.0000000   0.0000000   0.0000000   0.0000000   0.0000000   0.0000000   0.0000000
 NMagM=    2.7928460   2.7928460   2.7928460   2.7928460   2.7928460   2.7928460   2.7928460   2.7928460   2.7928460   2.7928460

  Atom        61          62          63          64          65          66          67          68
 IAtWgt=           1           1           1           1           1           1           1           1
 AtmWgt=   1.0078250   1.0078250   1.0078250   1.0078250   1.0078250   1.0078250   1.0078250   1.0078250
 NucSpn=           1           1           1           1           1           1           1           1
 AtZEff=   0.0000000   0.0000000   0.0000000   0.0000000   0.0000000   0.0000000   0.0000000   0.0000000
 NQMom=    0.0000000   0.0000000   0.0000000   0.0000000   0.0000000   0.0000000   0.0000000   0.0000000
 NMagM=    2.7928460   2.7928460   2.7928460   2.7928460   2.7928460   2.7928460   2.7928460   2.7928460
 Leave Link  101 at Wed Apr  8 16:52:58 2020, MaxMem= 2684354560 cpu:       0.6
 (Enter /opt/g09gh/gaussian/g09/l103.exe)

 GradGradGradGradGradGradGradGradGradGradGradGradGradGradGradGradGradGrad
 Berny optimization.
 Initialization pass.
                           ----------------------------
                           !    Initial Parameters    !
                           ! (Angstroms and Degrees)  !
 --------------------------                            --------------------------
 ! Name  Definition              Value          Derivative Info.                !
 --------------------------------------------------------------------------------
 ! R1    R(1,2)                  1.4013         estimate D2E/DX2                !
 ! R2    R(1,6)                  1.3988         estimate D2E/DX2                !
 ! R3    R(1,38)                 1.0859         estimate D2E/DX2                !
 ! R4    R(2,3)                  1.4098         estimate D2E/DX2                !
 ! R5    R(2,39)                 1.0872         estimate D2E/DX2                !
 ! R6    R(3,4)                  1.4169         estimate D2E/DX2                !
 ! R7    R(3,7)                  1.5092         estimate D2E/DX2                !
 ! R8    R(4,5)                  1.3386         estimate D2E/DX2                !
 ! R9    R(4,40)                 1.0841         estimate D2E/DX2                !
 ! R10   R(5,6)                  1.3406         estimate D2E/DX2                !
 ! R11   R(6,41)                 1.0886         estimate D2E/DX2                !
 ! R12   R(7,8)                  1.4048         estimate D2E/DX2                !
 ! R13   R(7,12)                 1.3482         estimate D2E/DX2                !
 ! R14   R(8,9)                  1.3984         estimate D2E/DX2                !
 ! R15   R(8,42)                 1.0829         estimate D2E/DX2                !
 ! R16   R(9,10)                 1.3292         estimate D2E/DX2                !
 ! R17   R(9,43)                 1.0896         estimate D2E/DX2                !
 ! R18   R(10,11)                1.3501         estimate D2E/DX2                !
 ! R19   R(11,12)                1.3359         estimate D2E/DX2                !
 ! R20   R(11,13)                1.3863         estimate D2E/DX2                !
 ! R21   R(13,14)                1.4404         estimate D2E/DX2                !
 ! R22   R(13,44)                1.009          estimate D2E/DX2                !
 ! R23   R(14,15)                1.4289         estimate D2E/DX2                !
 ! R24   R(14,19)                1.4001         estimate D2E/DX2                !
 ! R25   R(15,16)                1.4051         estimate D2E/DX2                !
 ! R26   R(15,37)                1.5193         estimate D2E/DX2                !
 ! R27   R(16,17)                1.3993         estimate D2E/DX2                !
 ! R28   R(16,45)                1.0895         estimate D2E/DX2                !
 ! R29   R(17,18)                1.3974         estimate D2E/DX2                !
 ! R30   R(17,46)                1.0829         estimate D2E/DX2                !
 ! R31   R(18,19)                1.4019         estimate D2E/DX2                !
 ! R32   R(18,20)                1.4151         estimate D2E/DX2                !
 ! R33   R(19,47)                1.0784         estimate D2E/DX2                !
 ! R34   R(20,21)                1.3739         estimate D2E/DX2                !
 ! R35   R(20,48)                1.0106         estimate D2E/DX2                !
 ! R36   R(21,22)                1.5146         estimate D2E/DX2                !
 ! R37   R(21,36)                1.2186         estimate D2E/DX2                !
 ! R38   R(22,23)                1.4041         estimate D2E/DX2                !
 ! R39   R(22,27)                1.4044         estimate D2E/DX2                !
 ! R40   R(23,24)                1.3963         estimate D2E/DX2                !
 ! R41   R(23,49)                1.0869         estimate D2E/DX2                !
 ! R42   R(24,25)                1.4076         estimate D2E/DX2                !
 ! R43   R(24,50)                1.0899         estimate D2E/DX2                !
 ! R44   R(25,26)                1.4082         estimate D2E/DX2                !
 ! R45   R(25,28)                1.5293         estimate D2E/DX2                !
 ! R46   R(26,27)                1.3966         estimate D2E/DX2                !
 ! R47   R(26,51)                1.0898         estimate D2E/DX2                !
 ! R48   R(27,52)                1.0872         estimate D2E/DX2                !
 ! R49   R(28,29)                1.4745         estimate D2E/DX2                !
 ! R50   R(28,53)                1.0996         estimate D2E/DX2                !
 ! R51   R(28,54)                1.0996         estimate D2E/DX2                !
 ! R52   R(29,30)                1.48           estimate D2E/DX2                !
 ! R53   R(29,35)                1.4812         estimate D2E/DX2                !
 ! R54   R(30,31)                1.5504         estimate D2E/DX2                !
 ! R55   R(30,55)                1.0575         estimate D2E/DX2                !
 ! R56   R(30,56)                1.579          estimate D2E/DX2                !
 ! R57   R(31,32)                1.4816         estimate D2E/DX2                !
 ! R58   R(31,57)                1.4984         estimate D2E/DX2                !
 ! R59   R(31,58)                1.1386         estimate D2E/DX2                !
 ! R60   R(32,33)                1.4677         estimate D2E/DX2                !
 ! R61   R(32,34)                1.4835         estimate D2E/DX2                !
 ! R62   R(33,59)                1.0959         estimate D2E/DX2                !
 ! R63   R(33,60)                1.096          estimate D2E/DX2                !
 ! R64   R(33,61)                1.0962         estimate D2E/DX2                !
 ! R65   R(34,35)                1.5516         estimate D2E/DX2                !
 ! R66   R(34,62)                1.1198         estimate D2E/DX2                !
 ! R67   R(34,63)                1.5002         estimate D2E/DX2                !
 ! R68   R(35,64)                1.5794         estimate D2E/DX2                !
 ! R69   R(35,65)                1.121          estimate D2E/DX2                !
 ! R70   R(37,66)                1.0992         estimate D2E/DX2                !
 ! R71   R(37,67)                1.0993         estimate D2E/DX2                !
 ! R72   R(37,68)                1.0988         estimate D2E/DX2                !
 ! A1    A(2,1,6)              118.3722         estimate D2E/DX2                !
 ! A2    A(2,1,38)             121.2254         estimate D2E/DX2                !
 ! A3    A(6,1,38)             120.4024         estimate D2E/DX2                !
 ! A4    A(1,2,3)              120.1022         estimate D2E/DX2                !
 ! A5    A(1,2,39)             118.0418         estimate D2E/DX2                !
 ! A6    A(3,2,39)             121.8516         estimate D2E/DX2                !
 ! A7    A(2,3,4)              115.6855         estimate D2E/DX2                !
 ! A8    A(2,3,7)              123.361          estimate D2E/DX2                !
 ! A9    A(4,3,7)              120.9527         estimate D2E/DX2                !
 ! A10   A(3,4,5)              124.9939         estimate D2E/DX2                !
 ! A11   A(3,4,40)             120.1898         estimate D2E/DX2                !
 ! A12   A(5,4,40)             114.8112         estimate D2E/DX2                !
 ! A13   A(4,5,6)              117.6352         estimate D2E/DX2                !
 ! A14   A(1,6,5)              123.2059         estimate D2E/DX2                !
 ! A15   A(1,6,41)             120.9728         estimate D2E/DX2                !
 ! A16   A(5,6,41)             115.8208         estimate D2E/DX2                !
 ! A17   A(3,7,8)              125.0839         estimate D2E/DX2                !
 ! A18   A(3,7,12)             114.9865         estimate D2E/DX2                !
 ! A19   A(8,7,12)             119.9163         estimate D2E/DX2                !
 ! A20   A(7,8,9)              115.7935         estimate D2E/DX2                !
 ! A21   A(7,8,42)             124.1709         estimate D2E/DX2                !
 ! A22   A(9,8,42)             120.0352         estimate D2E/DX2                !
 ! A23   A(8,9,10)             124.423          estimate D2E/DX2                !
 ! A24   A(8,9,43)             120.2565         estimate D2E/DX2                !
 ! A25   A(10,9,43)            115.3201         estimate D2E/DX2                !
 ! A26   A(9,10,11)            115.8088         estimate D2E/DX2                !
 ! A27   A(10,11,12)           124.5026         estimate D2E/DX2                !
 ! A28   A(10,11,13)           114.8679         estimate D2E/DX2                !
 ! A29   A(12,11,13)           120.629          estimate D2E/DX2                !
 ! A30   A(7,12,11)            119.5534         estimate D2E/DX2                !
 ! A31   A(11,13,14)           133.8737         estimate D2E/DX2                !
 ! A32   A(11,13,44)           109.2904         estimate D2E/DX2                !
 ! A33   A(14,13,44)           116.5711         estimate D2E/DX2                !
 ! A34   A(13,14,15)           119.0876         estimate D2E/DX2                !
 ! A35   A(13,14,19)           121.9882         estimate D2E/DX2                !
 ! A36   A(15,14,19)           118.9241         estimate D2E/DX2                !
 ! A37   A(14,15,16)           117.271          estimate D2E/DX2                !
 ! A38   A(14,15,37)           123.5203         estimate D2E/DX2                !
 ! A39   A(16,15,37)           119.2057         estimate D2E/DX2                !
 ! A40   A(15,16,17)           123.8749         estimate D2E/DX2                !
 ! A41   A(15,16,45)           119.2095         estimate D2E/DX2                !
 ! A42   A(17,16,45)           116.9034         estimate D2E/DX2                !
 ! A43   A(16,17,18)           117.9557         estimate D2E/DX2                !
 ! A44   A(16,17,46)           121.6224         estimate D2E/DX2                !
 ! A45   A(18,17,46)           120.4185         estimate D2E/DX2                !
 ! A46   A(17,18,19)           119.7926         estimate D2E/DX2                !
 ! A47   A(17,18,20)           124.9153         estimate D2E/DX2                !
 ! A48   A(19,18,20)           115.2825         estimate D2E/DX2                !
 ! A49   A(14,19,18)           122.1713         estimate D2E/DX2                !
 ! A50   A(14,19,47)           118.5403         estimate D2E/DX2                !
 ! A51   A(18,19,47)           119.2815         estimate D2E/DX2                !
 ! A52   A(18,20,21)           129.7486         estimate D2E/DX2                !
 ! A53   A(18,20,48)           113.2348         estimate D2E/DX2                !
 ! A54   A(21,20,48)           116.8251         estimate D2E/DX2                !
 ! A55   A(20,21,22)           118.0445         estimate D2E/DX2                !
 ! A56   A(20,21,36)           121.9657         estimate D2E/DX2                !
 ! A57   A(22,21,36)           119.9731         estimate D2E/DX2                !
 ! A58   A(21,22,23)           123.1787         estimate D2E/DX2                !
 ! A59   A(21,22,27)           117.9807         estimate D2E/DX2                !
 ! A60   A(23,22,27)           118.8396         estimate D2E/DX2                !
 ! A61   A(22,23,24)           120.3732         estimate D2E/DX2                !
 ! A62   A(22,23,49)           119.425          estimate D2E/DX2                !
 ! A63   A(24,23,49)           120.2012         estimate D2E/DX2                !
 ! A64   A(23,24,25)           121.4215         estimate D2E/DX2                !
 ! A65   A(23,24,50)           118.6469         estimate D2E/DX2                !
 ! A66   A(25,24,50)           119.9315         estimate D2E/DX2                !
 ! A67   A(24,25,26)           117.571          estimate D2E/DX2                !
 ! A68   A(24,25,28)           121.1033         estimate D2E/DX2                !
 ! A69   A(26,25,28)           121.2741         estimate D2E/DX2                !
 ! A70   A(25,26,27)           121.4004         estimate D2E/DX2                !
 ! A71   A(25,26,51)           120.0499         estimate D2E/DX2                !
 ! A72   A(27,26,51)           118.549          estimate D2E/DX2                !
 ! A73   A(22,27,26)           120.3498         estimate D2E/DX2                !
 ! A74   A(22,27,52)           118.5794         estimate D2E/DX2                !
 ! A75   A(26,27,52)           121.0518         estimate D2E/DX2                !
 ! A76   A(25,28,29)           118.8336         estimate D2E/DX2                !
 ! A77   A(25,28,53)           108.4514         estimate D2E/DX2                !
 ! A78   A(25,28,54)           108.5441         estimate D2E/DX2                !
 ! A79   A(29,28,53)           107.2582         estimate D2E/DX2                !
 ! A80   A(29,28,54)           106.6967         estimate D2E/DX2                !
 ! A81   A(53,28,54)           106.4147         estimate D2E/DX2                !
 ! A82   A(28,29,30)           118.9781         estimate D2E/DX2                !
 ! A83   A(28,29,35)           118.7089         estimate D2E/DX2                !
 ! A84   A(30,29,35)           110.3588         estimate D2E/DX2                !
 ! A85   A(29,30,31)           114.4381         estimate D2E/DX2                !
 ! A86   A(29,30,55)           110.8624         estimate D2E/DX2                !
 ! A87   A(29,30,56)           106.611          estimate D2E/DX2                !
 ! A88   A(31,30,55)           112.7555         estimate D2E/DX2                !
 ! A89   A(31,30,56)           105.191          estimate D2E/DX2                !
 ! A90   A(55,30,56)           106.2814         estimate D2E/DX2                !
 ! A91   A(30,31,32)           114.0699         estimate D2E/DX2                !
 ! A92   A(30,31,57)           106.9536         estimate D2E/DX2                !
 ! A93   A(30,31,58)           111.4285         estimate D2E/DX2                !
 ! A94   A(32,31,57)           108.402          estimate D2E/DX2                !
 ! A95   A(32,31,58)           107.9932         estimate D2E/DX2                !
 ! A96   A(57,31,58)           107.7831         estimate D2E/DX2                !
 ! A97   A(31,32,33)           116.683          estimate D2E/DX2                !
 ! A98   A(31,32,34)           108.9953         estimate D2E/DX2                !
 ! A99   A(33,32,34)           116.4308         estimate D2E/DX2                !
 ! A100  A(32,33,59)           111.0763         estimate D2E/DX2                !
 ! A101  A(32,33,60)           110.196          estimate D2E/DX2                !
 ! A102  A(32,33,61)           110.127          estimate D2E/DX2                !
 ! A103  A(59,33,60)           108.8512         estimate D2E/DX2                !
 ! A104  A(59,33,61)           108.7374         estimate D2E/DX2                !
 ! A105  A(60,33,61)           107.773          estimate D2E/DX2                !
 ! A106  A(32,34,35)           114.4279         estimate D2E/DX2                !
 ! A107  A(32,34,62)           109.5116         estimate D2E/DX2                !
 ! A108  A(32,34,63)           106.6196         estimate D2E/DX2                !
 ! A109  A(35,34,62)           111.4996         estimate D2E/DX2                !
 ! A110  A(35,34,63)           107.0906         estimate D2E/DX2                !
 ! A111  A(62,34,63)           107.306          estimate D2E/DX2                !
 ! A112  A(29,35,34)           115.2839         estimate D2E/DX2                !
 ! A113  A(29,35,64)           106.8777         estimate D2E/DX2                !
 ! A114  A(29,35,65)           110.4451         estimate D2E/DX2                !
 ! A115  A(34,35,64)           105.2191         estimate D2E/DX2                !
 ! A116  A(34,35,65)           111.6358         estimate D2E/DX2                !
 ! A117  A(64,35,65)           106.7763         estimate D2E/DX2                !
 ! A118  A(15,37,66)           111.446          estimate D2E/DX2                !
 ! A119  A(15,37,67)           111.4261         estimate D2E/DX2                !
 ! A120  A(15,37,68)           112.957          estimate D2E/DX2                !
 ! A121  A(66,37,67)           107.5382         estimate D2E/DX2                !
 ! A122  A(66,37,68)           106.6903         estimate D2E/DX2                !
 ! A123  A(67,37,68)           106.4479         estimate D2E/DX2                !
 ! D1    D(6,1,2,3)             -0.2285         estimate D2E/DX2                !
 ! D2    D(6,1,2,39)          -179.4724         estimate D2E/DX2                !
 ! D3    D(38,1,2,3)           179.7057         estimate D2E/DX2                !
 ! D4    D(38,1,2,39)            0.4618         estimate D2E/DX2                !
 ! D5    D(2,1,6,5)             -0.2602         estimate D2E/DX2                !
 ! D6    D(2,1,6,41)          -179.9765         estimate D2E/DX2                !
 ! D7    D(38,1,6,5)           179.805          estimate D2E/DX2                !
 ! D8    D(38,1,6,41)            0.0888         estimate D2E/DX2                !
 ! D9    D(1,2,3,4)              0.7154         estimate D2E/DX2                !
 ! D10   D(1,2,3,7)           -178.9533         estimate D2E/DX2                !
 ! D11   D(39,2,3,4)           179.9298         estimate D2E/DX2                !
 ! D12   D(39,2,3,7)             0.2611         estimate D2E/DX2                !
 ! D13   D(2,3,4,5)             -0.8262         estimate D2E/DX2                !
 ! D14   D(2,3,4,40)           178.315          estimate D2E/DX2                !
 ! D15   D(7,3,4,5)            178.8512         estimate D2E/DX2                !
 ! D16   D(7,3,4,40)            -2.0077         estimate D2E/DX2                !
 ! D17   D(2,3,7,8)             -1.7611         estimate D2E/DX2                !
 ! D18   D(2,3,7,12)           176.8993         estimate D2E/DX2                !
 ! D19   D(4,3,7,8)            178.5871         estimate D2E/DX2                !
 ! D20   D(4,3,7,12)            -2.7526         estimate D2E/DX2                !
 ! D21   D(3,4,5,6)              0.3793         estimate D2E/DX2                !
 ! D22   D(40,4,5,6)          -178.8029         estimate D2E/DX2                !
 ! D23   D(4,5,6,1)              0.1931         estimate D2E/DX2                !
 ! D24   D(4,5,6,41)           179.9229         estimate D2E/DX2                !
 ! D25   D(3,7,8,9)            179.1918         estimate D2E/DX2                !
 ! D26   D(3,7,8,42)            -1.0283         estimate D2E/DX2                !
 ! D27   D(12,7,8,9)             0.5928         estimate D2E/DX2                !
 ! D28   D(12,7,8,42)         -179.6273         estimate D2E/DX2                !
 ! D29   D(3,7,12,11)         -179.1307         estimate D2E/DX2                !
 ! D30   D(8,7,12,11)           -0.3955         estimate D2E/DX2                !
 ! D31   D(7,8,9,10)            -0.4488         estimate D2E/DX2                !
 ! D32   D(7,8,9,43)           179.7899         estimate D2E/DX2                !
 ! D33   D(42,8,9,10)          179.7615         estimate D2E/DX2                !
 ! D34   D(42,8,9,43)            0.0003         estimate D2E/DX2                !
 ! D35   D(8,9,10,11)            0.0847         estimate D2E/DX2                !
 ! D36   D(43,9,10,11)         179.8565         estimate D2E/DX2                !
 ! D37   D(9,10,11,12)           0.1579         estimate D2E/DX2                !
 ! D38   D(9,10,11,13)        -179.5639         estimate D2E/DX2                !
 ! D39   D(10,11,12,7)           0.0014         estimate D2E/DX2                !
 ! D40   D(13,11,12,7)         179.708          estimate D2E/DX2                !
 ! D41   D(10,11,13,14)       -176.0044         estimate D2E/DX2                !
 ! D42   D(10,11,13,44)         -2.3195         estimate D2E/DX2                !
 ! D43   D(12,11,13,14)          4.2621         estimate D2E/DX2                !
 ! D44   D(12,11,13,44)        177.947          estimate D2E/DX2                !
 ! D45   D(11,13,14,15)        163.0153         estimate D2E/DX2                !
 ! D46   D(11,13,14,19)        -17.0968         estimate D2E/DX2                !
 ! D47   D(44,13,14,15)        -10.3187         estimate D2E/DX2                !
 ! D48   D(44,13,14,19)        169.5692         estimate D2E/DX2                !
 ! D49   D(13,14,15,16)       -179.8723         estimate D2E/DX2                !
 ! D50   D(13,14,15,37)         -0.5066         estimate D2E/DX2                !
 ! D51   D(19,14,15,16)          0.2363         estimate D2E/DX2                !
 ! D52   D(19,14,15,37)        179.602          estimate D2E/DX2                !
 ! D53   D(13,14,19,18)        179.265          estimate D2E/DX2                !
 ! D54   D(13,14,19,47)          0.226          estimate D2E/DX2                !
 ! D55   D(15,14,19,18)         -0.8469         estimate D2E/DX2                !
 ! D56   D(15,14,19,47)       -179.8858         estimate D2E/DX2                !
 ! D57   D(14,15,16,17)          0.7184         estimate D2E/DX2                !
 ! D58   D(14,15,16,45)        179.4045         estimate D2E/DX2                !
 ! D59   D(37,15,16,17)       -178.6758         estimate D2E/DX2                !
 ! D60   D(37,15,16,45)          0.0103         estimate D2E/DX2                !
 ! D61   D(14,15,37,66)         64.4252         estimate D2E/DX2                !
 ! D62   D(14,15,37,67)        -55.7036         estimate D2E/DX2                !
 ! D63   D(14,15,37,68)       -175.4757         estimate D2E/DX2                !
 ! D64   D(16,15,37,66)       -116.2207         estimate D2E/DX2                !
 ! D65   D(16,15,37,67)        123.6505         estimate D2E/DX2                !
 ! D66   D(16,15,37,68)          3.8784         estimate D2E/DX2                !
 ! D67   D(15,16,17,18)         -1.0486         estimate D2E/DX2                !
 ! D68   D(15,16,17,46)        178.2927         estimate D2E/DX2                !
 ! D69   D(45,16,17,18)       -179.7626         estimate D2E/DX2                !
 ! D70   D(45,16,17,46)         -0.4212         estimate D2E/DX2                !
 ! D71   D(16,17,18,19)          0.4107         estimate D2E/DX2                !
 ! D72   D(16,17,18,20)        179.2241         estimate D2E/DX2                !
 ! D73   D(46,17,18,19)       -178.9389         estimate D2E/DX2                !
 ! D74   D(46,17,18,20)         -0.1255         estimate D2E/DX2                !
 ! D75   D(17,18,19,14)          0.5197         estimate D2E/DX2                !
 ! D76   D(17,18,19,47)        179.5517         estimate D2E/DX2                !
 ! D77   D(20,18,19,14)       -178.4042         estimate D2E/DX2                !
 ! D78   D(20,18,19,47)          0.6278         estimate D2E/DX2                !
 ! D79   D(17,18,20,21)        -88.2783         estimate D2E/DX2                !
 ! D80   D(17,18,20,48)         96.9863         estimate D2E/DX2                !
 ! D81   D(19,18,20,21)         90.5829         estimate D2E/DX2                !
 ! D82   D(19,18,20,48)        -84.1525         estimate D2E/DX2                !
 ! D83   D(18,20,21,22)       -168.3652         estimate D2E/DX2                !
 ! D84   D(18,20,21,36)         13.1201         estimate D2E/DX2                !
 ! D85   D(48,20,21,22)          6.2134         estimate D2E/DX2                !
 ! D86   D(48,20,21,36)       -172.3014         estimate D2E/DX2                !
 ! D87   D(20,21,22,23)         35.3485         estimate D2E/DX2                !
 ! D88   D(20,21,22,27)       -145.0438         estimate D2E/DX2                !
 ! D89   D(36,21,22,23)       -146.1061         estimate D2E/DX2                !
 ! D90   D(36,21,22,27)         33.5016         estimate D2E/DX2                !
 ! D91   D(21,22,23,24)       -178.3418         estimate D2E/DX2                !
 ! D92   D(21,22,23,49)          1.9203         estimate D2E/DX2                !
 ! D93   D(27,22,23,24)          2.0537         estimate D2E/DX2                !
 ! D94   D(27,22,23,49)       -177.6842         estimate D2E/DX2                !
 ! D95   D(21,22,27,26)        177.7871         estimate D2E/DX2                !
 ! D96   D(21,22,27,52)         -0.6429         estimate D2E/DX2                !
 ! D97   D(23,22,27,26)         -2.5878         estimate D2E/DX2                !
 ! D98   D(23,22,27,52)        178.9822         estimate D2E/DX2                !
 ! D99   D(22,23,24,25)         -0.6284         estimate D2E/DX2                !
 ! D100  D(22,23,24,50)        179.2593         estimate D2E/DX2                !
 ! D101  D(49,23,24,25)        179.1075         estimate D2E/DX2                !
 ! D102  D(49,23,24,50)         -1.0049         estimate D2E/DX2                !
 ! D103  D(23,24,25,26)         -0.2872         estimate D2E/DX2                !
 ! D104  D(23,24,25,28)        177.1326         estimate D2E/DX2                !
 ! D105  D(50,24,25,26)        179.8266         estimate D2E/DX2                !
 ! D106  D(50,24,25,28)         -2.7536         estimate D2E/DX2                !
 ! D107  D(24,25,26,27)         -0.2554         estimate D2E/DX2                !
 ! D108  D(24,25,26,51)        179.4224         estimate D2E/DX2                !
 ! D109  D(28,25,26,27)       -177.6706         estimate D2E/DX2                !
 ! D110  D(28,25,26,51)          2.0072         estimate D2E/DX2                !
 ! D111  D(24,25,28,29)        -82.9707         estimate D2E/DX2                !
 ! D112  D(24,25,28,53)         39.7606         estimate D2E/DX2                !
 ! D113  D(24,25,28,54)        154.9834         estimate D2E/DX2                !
 ! D114  D(26,25,28,29)         94.3533         estimate D2E/DX2                !
 ! D115  D(26,25,28,53)       -142.9155         estimate D2E/DX2                !
 ! D116  D(26,25,28,54)        -27.6926         estimate D2E/DX2                !
 ! D117  D(25,26,27,22)          1.7158         estimate D2E/DX2                !
 ! D118  D(25,26,27,52)       -179.8935         estimate D2E/DX2                !
 ! D119  D(51,26,27,22)       -177.9667         estimate D2E/DX2                !
 ! D120  D(51,26,27,52)          0.424          estimate D2E/DX2                !
 ! D121  D(25,28,29,30)         74.6203         estimate D2E/DX2                !
 ! D122  D(25,28,29,35)        -64.5572         estimate D2E/DX2                !
 ! D123  D(53,28,29,30)        -48.7022         estimate D2E/DX2                !
 ! D124  D(53,28,29,35)        172.1203         estimate D2E/DX2                !
 ! D125  D(54,28,29,30)       -162.4129         estimate D2E/DX2                !
 ! D126  D(54,28,29,35)         58.4096         estimate D2E/DX2                !
 ! D127  D(28,29,30,31)        -94.2279         estimate D2E/DX2                !
 ! D128  D(28,29,30,55)         34.6644         estimate D2E/DX2                !
 ! D129  D(28,29,30,56)        149.9281         estimate D2E/DX2                !
 ! D130  D(35,29,30,31)         48.0696         estimate D2E/DX2                !
 ! D131  D(35,29,30,55)        176.9619         estimate D2E/DX2                !
 ! D132  D(35,29,30,56)        -67.7744         estimate D2E/DX2                !
 ! D133  D(28,29,35,34)         95.7189         estimate D2E/DX2                !
 ! D134  D(28,29,35,64)       -147.7487         estimate D2E/DX2                !
 ! D135  D(28,29,35,65)        -31.9627         estimate D2E/DX2                !
 ! D136  D(30,29,35,34)        -46.6931         estimate D2E/DX2                !
 ! D137  D(30,29,35,64)         69.8393         estimate D2E/DX2                !
 ! D138  D(30,29,35,65)       -174.3746         estimate D2E/DX2                !
 ! D139  D(29,30,31,32)        -53.527          estimate D2E/DX2                !
 ! D140  D(29,30,31,57)       -173.37           estimate D2E/DX2                !
 ! D141  D(29,30,31,58)         69.0722         estimate D2E/DX2                !
 ! D142  D(55,30,31,32)        178.536          estimate D2E/DX2                !
 ! D143  D(55,30,31,57)         58.693          estimate D2E/DX2                !
 ! D144  D(55,30,31,58)        -58.8648         estimate D2E/DX2                !
 ! D145  D(56,30,31,32)         63.1372         estimate D2E/DX2                !
 ! D146  D(56,30,31,57)        -56.7058         estimate D2E/DX2                !
 ! D147  D(56,30,31,58)       -174.2636         estimate D2E/DX2                !
 ! D148  D(30,31,32,33)        -82.0055         estimate D2E/DX2                !
 ! D149  D(30,31,32,34)         52.4106         estimate D2E/DX2                !
 ! D150  D(57,31,32,33)         37.0194         estimate D2E/DX2                !
 ! D151  D(57,31,32,34)        171.4355         estimate D2E/DX2                !
 ! D152  D(58,31,32,33)        153.5375         estimate D2E/DX2                !
 ! D153  D(58,31,32,34)        -72.0464         estimate D2E/DX2                !
 ! D154  D(31,32,33,59)         65.7346         estimate D2E/DX2                !
 ! D155  D(31,32,33,60)        -54.9777         estimate D2E/DX2                !
 ! D156  D(31,32,33,61)       -173.742          estimate D2E/DX2                !
 ! D157  D(34,32,33,59)        -65.3085         estimate D2E/DX2                !
 ! D158  D(34,32,33,60)        173.9793         estimate D2E/DX2                !
 ! D159  D(34,32,33,61)         55.215          estimate D2E/DX2                !
 ! D160  D(31,32,34,35)        -50.7641         estimate D2E/DX2                !
 ! D161  D(31,32,34,62)       -176.7793         estimate D2E/DX2                !
 ! D162  D(31,32,34,63)         67.4276         estimate D2E/DX2                !
 ! D163  D(33,32,34,35)         83.7803         estimate D2E/DX2                !
 ! D164  D(33,32,34,62)        -42.2348         estimate D2E/DX2                !
 ! D165  D(33,32,34,63)       -158.028          estimate D2E/DX2                !
 ! D166  D(32,34,35,29)         50.297          estimate D2E/DX2                !
 ! D167  D(32,34,35,64)        -67.1718         estimate D2E/DX2                !
 ! D168  D(32,34,35,65)        177.3791         estimate D2E/DX2                !
 ! D169  D(62,34,35,29)        175.2694         estimate D2E/DX2                !
 ! D170  D(62,34,35,64)         57.8006         estimate D2E/DX2                !
 ! D171  D(62,34,35,65)        -57.6485         estimate D2E/DX2                !
 ! D172  D(63,34,35,29)        -67.627          estimate D2E/DX2                !
 ! D173  D(63,34,35,64)        174.9042         estimate D2E/DX2                !
 ! D174  D(63,34,35,65)         59.4551         estimate D2E/DX2                !
 --------------------------------------------------------------------------------
 Trust Radius=3.00D-01 FncErr=1.00D-07 GrdErr=1.00D-06
 Number of steps in this run= 400 maximum allowed number of steps= 408.
 GradGradGradGradGradGradGradGradGradGradGradGradGradGradGradGradGradGrad

 Leave Link  103 at Wed Apr  8 16:52:58 2020, MaxMem= 2684354560 cpu:       0.1
 (Enter /opt/g09gh/gaussian/g09/l202.exe)
 Stoichiometry    C29H31N7O
 Framework group  C1[X(C29H31N7O)]
 Deg. of freedom   198
 Full point group                 C1      NOp   1
 Largest Abelian subgroup         C1      NOp   1
 Largest concise Abelian subgroup C1      NOp   1
                         Standard orientation:                         
 ---------------------------------------------------------------------
 Center     Atomic      Atomic             Coordinates (Angstroms)
 Number     Number       Type             X           Y           Z
 ---------------------------------------------------------------------
      1          6           0       -2.072441    5.080922    0.234705
      2          6           0       -3.229893    4.364050   -0.096813
      3          6           0       -3.222907    2.954661   -0.062267
      4          6           0       -2.001741    2.356147    0.335342
      5          7           0       -0.886905    3.025076    0.653856
      6          6           0       -0.928361    4.363920    0.600338
      7          6           0       -4.419141    2.109591   -0.426546
      8          6           0       -5.676339    2.609927   -0.804107
      9          6           0       -6.643809    1.650311   -1.118324
     10          7           0       -6.437903    0.337486   -1.087138
     11          6           0       -5.198970   -0.054642   -0.721012
     12          7           0       -4.206322    0.778650   -0.397217
     13          7           0       -5.002968   -1.426923   -0.704247
     14          6           0       -3.903186   -2.273621   -0.319220
     15          6           0       -4.145533   -3.661347   -0.080025
     16          6           0       -3.046176   -4.451406    0.296154
     17          6           0       -1.748478   -3.954491    0.460522
     18          6           0       -1.531199   -2.596127    0.215098
     19          6           0       -2.601572   -1.778675   -0.174078
     20          7           0       -0.285967   -1.937688    0.350346
     21          6           0        0.275701   -1.338095    1.451524
     22          6           0        1.504017   -0.476576    1.244342
     23          6           0        1.700092    0.320783    0.105421
     24          6           0        2.871542    1.066386   -0.041294
     25          6           0        3.877640    1.053654    0.943084
     26          6           0        3.658636    0.264627    2.088744
     27          6           0        2.485189   -0.475530    2.249090
     28          6           0        5.185583    1.821287    0.745915
     29          7           0        6.267146    1.194324   -0.035883
     30          6           0        6.139165    1.123747   -1.508605
     31          6           0        5.535752   -0.203018   -2.037158
     32          7           0        6.232804   -1.418229   -1.555027
     33          6           0        7.452793   -1.806717   -2.272650
     34          6           0        6.325131   -1.366897   -0.075268
     35          6           0        6.899390   -0.039299    0.486143
     36          8           0       -0.169494   -1.503785    2.573747
     37          6           0       -5.516051   -4.306277   -0.198280
     38          1           0       -2.056058    6.166365    0.209661
     39          1           0       -4.113398    4.926439   -0.388636
     40          1           0       -1.923256    1.277702    0.413658
     41          1           0       -0.006292    4.877873    0.866358
     42          1           0       -5.920734    3.663522   -0.857071
     43          1           0       -7.645471    1.957934   -1.417134
     44          1           0       -5.867188   -1.890003   -0.942457
     45          1           0       -3.197001   -5.511733    0.495850
     46          1           0       -0.932540   -4.591615    0.778184
     47          1           0       -2.426009   -0.730010   -0.354306
     48          1           0        0.213188   -1.845401   -0.523481
     49          1           0        0.929675    0.356534   -0.660491
     50          1           0        2.999810    1.666070   -0.942251
     51          1           0        4.415031    0.217792    2.871836
     52          1           0        2.321255   -1.081470    3.136728
     53          1           0        4.955044    2.785025    0.269356
     54          1           0        5.605695    2.056147    1.734600
     55          1           0        5.641778    1.977794   -1.884758
     56          1           0        7.605652    1.172716   -2.092012
     57          1           0        5.634094   -0.162899   -3.531789
     58          1           0        4.434570   -0.297296   -1.763528
     59          1           0        8.242883   -1.058970   -2.140268
     60          1           0        7.243792   -1.915364   -3.343018
     61          1           0        7.816476   -2.772483   -1.903025
     62          1           0        6.902184   -2.252458    0.294396
     63          1           0        4.924717   -1.497201    0.446810
     64          1           0        8.409134   -0.012021    0.023197
     65          1           0        6.904517   -0.032492    1.607089
     66          1           0       -5.890324   -4.268332   -1.231150
     67          1           0       -6.254245   -3.800652    0.440336
     68          1           0       -5.519208   -5.363858    0.099867
 ---------------------------------------------------------------------
 Rotational constants (GHZ):      0.1464502      0.0502374      0.0411172
 Leave Link  202 at Wed Apr  8 16:52:58 2020, MaxMem= 2684354560 cpu:       0.0
 (Enter /opt/g09gh/gaussian/g09/l301.exe)
 Standard basis: 6-31G(d) (6D, 7F)
 Ernie: Thresh=  0.10000D-02 Tol=  0.10000D-05 Strict=F.
 There are   617 symmetry adapted basis functions of A   symmetry.
 Integral buffers will be    131072 words long.
 Raffenetti 2 integral format.
 Two-electron integral symmetry is turned on.
   617 basis functions,  1160 primitive gaussians,   617 cartesian basis functions
   131 alpha electrons      131 beta electrons
       nuclear repulsion energy      3728.3321627488 Hartrees.
 IExCor= 4639 DFT=T Ex+Corr=wB97XD ExCW=0 ScaHFX=  1.000000
 ScaDFX=  1.000000  1.000000  1.000000  1.000000 ScalE2=  1.000000  1.000000
 IRadAn=      0 IRanWt=     -1 IRanGd=            0 ICorTp=0
  HFx wShort=  0.000000 wLong=  0.200000 cFull=  0.222036 cShort=  0.000000 cLong=  0.777964
  DFx wShort=  0.000000 wLong=  0.200000 cFull=  0.000000 cShort=  0.000000 cLong=  1.000000
 NAtoms=   68 NActive=   68 NUniq=   68 SFac= 7.50D-01 NAtFMM=   80 NAOKFM=F Big=T
 R6Disp: Dispersion energy =        -0.0575097814 Hartrees.
 Nuclear repulsion after empirical dispersion term =     3728.2746529674 Hartrees.
 Leave Link  301 at Wed Apr  8 16:52:58 2020, MaxMem= 2684354560 cpu:       0.3
 (Enter /opt/g09gh/gaussian/g09/l302.exe)
 NPDir=0 NMtPBC=     1 NCelOv=     1 NCel=       1 NClECP=     1 NCelD=      1
         NCelK=      1 NCelE2=     1 NClLst=     1 CellRange=     0.0.
 One-electron integrals computed using PRISM.
 NBasis=   617 RedAO= T  NBF=   617
 NBsUse=   617 1.00D-06 NBFU=   617
 Precomputing XC quadrature grid using
 IXCGrd= 2 IRadAn=           0 IRanWt=          -1 IRanGd=           0 AccXCQ= 1.00D-10.
 NRdTot=    4388 NPtTot=      560692 NUsed=      592305 NTot=      592337
 NSgBfM=   589   590   596   596   596 NAtAll=    68    68.
 Leave Link  302 at Wed Apr  8 16:52:59 2020, MaxMem= 2684354560 cpu:       7.5
 (Enter /opt/g09gh/gaussian/g09/l303.exe)
 DipDrv:  MaxL=1.
 Leave Link  303 at Wed Apr  8 16:52:59 2020, MaxMem= 2684354560 cpu:       0.5
 (Enter /opt/g09gh/gaussian/g09/l401.exe)
 Harris functional with IExCor= 4639 diagonalized for initial guess.
 ExpMin= 1.61D-01 ExpMax= 5.48D+03 ExpMxC= 8.25D+02 IAcc=1 IRadAn=         1 AccDes= 0.00D+00
 HarFok:  IExCor= 4639 AccDes= 0.00D+00 IRadAn=         1 IDoV= 1
 ScaDFX=  1.000000  1.000000  1.000000  1.000000
 FoFCou: FMM=F IPFlag=           0 FMFlag=      100000 FMFlg1=           1
         NFxFlg=           0 DoJE=T BraDBF=F KetDBF=T FulRan=T
         Omega=  0.000000  0.000000  1.000000  0.000000  0.000000 ICntrl=     500 IOpCl=  0
         NMat0=    1 NMatS0=    1 NMatT0=    0 NMatD0=    1 NMtDS0=    0 NMtDT0=    0
         I1Cent=           4 NGrid=           0.
 Petite list used in FoFCou.
 Harris En= -1512.38524083750    
 Initial guess orbital symmetries:
       Occupied  (A) (A) (A) (A) (A) (A) (A) (A) (A) (A) (A) (A)
                 (A) (A) (A) (A) (A) (A) (A) (A) (A) (A) (A) (A)
                 (A) (A) (A) (A) (A) (A) (A) (A) (A) (A) (A) (A)
                 (A) (A) (A) (A) (A) (A) (A) (A) (A) (A) (A) (A)
                 (A) (A) (A) (A) (A) (A) (A) (A) (A) (A) (A) (A)
                 (A) (A) (A) (A) (A) (A) (A) (A) (A) (A) (A) (A)
                 (A) (A) (A) (A) (A) (A) (A) (A) (A) (A) (A) (A)
                 (A) (A) (A) (A) (A) (A) (A) (A) (A) (A) (A) (A)
                 (A) (A) (A) (A) (A) (A) (A) (A) (A) (A) (A) (A)
                 (A) (A) (A) (A) (A) (A) (A) (A) (A) (A) (A) (A)
                 (A) (A) (A) (A) (A) (A) (A) (A) (A) (A) (A)
       Virtual   (A) (A) (A) (A) (A) (A) (A) (A) (A) (A) (A) (A)
                 (A) (A) (A) (A) (A) (A) (A) (A) (A) (A) (A) (A)
                 (A) (A) (A) (A) (A) (A) (A) (A) (A) (A) (A) (A)
                 (A) (A) (A) (A) (A) (A) (A) (A) (A) (A) (A) (A)
                 (A) (A) (A) (A) (A) (A) (A) (A) (A) (A) (A) (A)
                 (A) (A) (A) (A) (A) (A) (A) (A) (A) (A) (A) (A)
                 (A) (A) (A) (A) (A) (A) (A) (A) (A) (A) (A) (A)
                 (A) (A) (A) (A) (A) (A) (A) (A) (A) (A) (A) (A)
                 (A) (A) (A) (A) (A) (A) (A) (A) (A) (A) (A) (A)
                 (A) (A) (A) (A) (A) (A) (A) (A) (A) (A) (A) (A)
                 (A) (A) (A) (A) (A) (A) (A) (A) (A) (A) (A) (A)
                 (A) (A) (A) (A) (A) (A) (A) (A) (A) (A) (A) (A)
                 (A) (A) (A) (A) (A) (A) (A) (A) (A) (A) (A) (A)
                 (A) (A) (A) (A) (A) (A) (A) (A) (A) (A) (A) (A)
                 (A) (A) (A) (A) (A) (A) (A) (A) (A) (A) (A) (A)
                 (A) (A) (A) (A) (A) (A) (A) (A) (A) (A) (A) (A)
                 (A) (A) (A) (A) (A) (A) (A) (A) (A) (A) (A) (A)
                 (A) (A) (A) (A) (A) (A) (A) (A) (A) (A) (A) (A)
                 (A) (A) (A) (A) (A) (A) (A) (A) (A) (A) (A) (A)
                 (A) (A) (A) (A) (A) (A) (A) (A) (A) (A) (A) (A)
                 (A) (A) (A) (A) (A) (A) (A) (A) (A) (A) (A) (A)
                 (A) (A) (A) (A) (A) (A) (A) (A) (A) (A) (A) (A)
                 (A) (A) (A) (A) (A) (A) (A) (A) (A) (A) (A) (A)
                 (A) (A) (A) (A) (A) (A) (A) (A) (A) (A) (A) (A)
                 (A) (A) (A) (A) (A) (A) (A) (A) (A) (A) (A) (A)
                 (A) (A) (A) (A) (A) (A) (A) (A) (A) (A) (A) (A)
                 (A) (A) (A) (A) (A) (A) (A) (A) (A) (A) (A) (A)
                 (A) (A) (A) (A) (A) (A) (A) (A) (A) (A) (A) (A)
                 (A) (A) (A) (A) (A) (A) (A) (A) (A) (A) (A) (A)
                 (A) (A) (A) (A) (A) (A) (A) (A) (A) (A) (A) (A)
                 (A) (A) (A) (A) (A) (A) (A) (A) (A) (A) (A) (A)
                 (A) (A) (A) (A) (A) (A) (A) (A) (A) (A) (A) (A)
                 (A) (A) (A) (A) (A) (A) (A) (A) (A) (A) (A) (A)
                 (A) (A) (A) (A) (A) (A) (A) (A) (A) (A) (A) (A)
                 (A) (A) (A) (A) (A) (A) (A) (A) (A) (A) (A) (A)
                 (A) (A) (A) (A) (A) (A) (A) (A) (A) (A) (A) (A)
                 (A) (A) (A) (A) (A) (A) (A) (A) (A) (A) (A) (A)
                 (A) (A) (A) (A) (A) (A) (A) (A) (A) (A) (A) (A)
                 (A) (A) (A) (A) (A) (A) (A) (A) (A) (A) (A) (A)
                 (A) (A) (A) (A) (A) (A) (A) (A) (A) (A) (A) (A)
                 (A) (A) (A) (A) (A) (A)
 The electronic state of the initial guess is 1-A.
 Leave Link  401 at Wed Apr  8 16:53:02 2020, MaxMem= 2684354560 cpu:      14.2
 (Enter /opt/g09gh/gaussian/g09/l502.exe)
 Closed shell SCF:
 Requested convergence on RMS density matrix=1.00D-08 within 128 cycles.
 Requested convergence on MAX density matrix=1.00D-06.
 Requested convergence on             energy=1.00D-06.
 No special actions if energy rises.
 Using DIIS extrapolation, IDIIS=  1040.
 Integral symmetry usage will be decided dynamically.
       591680 words used for storage of precomputed grid.
 IEnd=     1760260 IEndB=     1760260 NGot=  2684354560 MDV=  2682992247
 LenX=  2682992247 LenY=  2682610941
 Fock matrices will be formed incrementally for  20 cycles.
 Integral accuracy reduced to 1.0D-05 until final iterations.

 Cycle   1  Pass 0  IDiag  1:
 FoFJK:  IHMeth= 1 ICntrl=     0 DoSepK=T KAlg= 1 I1Cent= 0 FoldK=F
 FoFCou: FMM=T IPFlag=           0 FMFlag=      100000 FMFlg1=           1
         NFxFlg=           0 DoJE=T BraDBF=F KetDBF=F FulRan=T
         Omega=  0.000000  0.000000  1.000000  0.000000  0.000000 ICntrl=     500 IOpCl=  0
         NMat0=    1 NMatS0=    1 NMatT0=    0 NMatD0=    1 NMtDS0=    0 NMtDT0=    0
         I1Cent=           0 NGrid=           0.
 Symmetry not used in FoFCou.
 FMM levels:  10  Number of levels for PrismC:   9
 E= -1581.16308781043    
 DIIS: error= 5.65D-02 at cycle   1 NSaved=   1.
 NSaved= 1 IEnMin= 1 EnMin= -1581.16308781043     IErMin= 1 ErrMin= 5.65D-02
 ErrMax= 5.65D-02 EMaxC= 1.00D-01 BMatC= 1.44D+00 BMatP= 1.44D+00
 IDIUse=3 WtCom= 4.35D-01 WtEn= 5.65D-01
 Coeff-Com:  0.100D+01
 Coeff-En:   0.100D+01
 Coeff:      0.100D+01
 Gap=     0.277 Goal=   None    Shift=    0.000
 GapD=    0.277 DampG=1.000 DampE=0.500 DampFc=0.5000 IDamp=-1.
 Damping current iteration by 5.00D-01
 RMSDP=1.85D-03 MaxDP=8.98D-02              OVMax= 1.37D-01

 Cycle   2  Pass 0  IDiag  1:
 RMSU=  6.54D-04    CP:  1.00D+00
 FoFJK:  IHMeth= 1 ICntrl=     0 DoSepK=T KAlg= 1 I1Cent= 0 FoldK=F
 E= -1581.33453775058     Delta-E=       -0.171449940149 Rises=F Damp=T
 DIIS: error= 2.86D-02 at cycle   2 NSaved=   2.
 NSaved= 2 IEnMin= 2 EnMin= -1581.33453775058     IErMin= 2 ErrMin= 2.86D-02
 ErrMax= 2.86D-02 EMaxC= 1.00D-01 BMatC= 3.23D-01 BMatP= 1.44D+00
 IDIUse=3 WtCom= 7.14D-01 WtEn= 2.86D-01
 Coeff-Com: -0.675D+00 0.168D+01
 Coeff-En:   0.000D+00 0.100D+01
 Coeff:     -0.482D+00 0.148D+01
 Gap=     0.305 Goal=   None    Shift=    0.000
 RMSDP=8.67D-04 MaxDP=3.90D-02 DE=-1.71D-01 OVMax= 1.17D-01

 Cycle   3  Pass 0  IDiag  1:
 RMSU=  5.51D-04    CP:  1.00D+00  1.41D+00
 FoFJK:  IHMeth= 1 ICntrl=     0 DoSepK=T KAlg= 1 I1Cent= 0 FoldK=F
 E= -1581.46015236382     Delta-E=       -0.125614613246 Rises=F Damp=F
 DIIS: error= 7.03D-03 at cycle   3 NSaved=   3.
 NSaved= 3 IEnMin= 3 EnMin= -1581.46015236382     IErMin= 3 ErrMin= 7.03D-03
 ErrMax= 7.03D-03 EMaxC= 1.00D-01 BMatC= 6.06D-02 BMatP= 3.23D-01
 IDIUse=3 WtCom= 9.30D-01 WtEn= 7.03D-02
 Coeff-Com: -0.372D+00 0.768D+00 0.604D+00
 Coeff-En:   0.000D+00 0.000D+00 0.100D+01
 Coeff:     -0.346D+00 0.714D+00 0.632D+00
 Gap=     0.265 Goal=   None    Shift=    0.000
 RMSDP=4.60D-04 MaxDP=3.24D-02 DE=-1.26D-01 OVMax= 6.45D-02

 Cycle   4  Pass 0  IDiag  1:
 RMSU=  1.41D-04    CP:  1.00D+00  1.69D+00  5.83D-01
 FoFJK:  IHMeth= 1 ICntrl=     0 DoSepK=T KAlg= 1 I1Cent= 0 FoldK=F
 E= -1581.51382282240     Delta-E=       -0.053670458571 Rises=F Damp=F
 DIIS: error= 2.18D-03 at cycle   4 NSaved=   4.
 NSaved= 4 IEnMin= 4 EnMin= -1581.51382282240     IErMin= 4 ErrMin= 2.18D-03
 ErrMax= 2.18D-03 EMaxC= 1.00D-01 BMatC= 3.19D-03 BMatP= 6.06D-02
 IDIUse=3 WtCom= 9.78D-01 WtEn= 2.18D-02
 Coeff-Com: -0.161D+00 0.327D+00 0.330D+00 0.503D+00
 Coeff-En:   0.000D+00 0.000D+00 0.000D+00 0.100D+01
 Coeff:     -0.157D+00 0.320D+00 0.323D+00 0.514D+00
 Gap=     0.258 Goal=   None    Shift=    0.000
 RMSDP=9.72D-05 MaxDP=7.96D-03 DE=-5.37D-02 OVMax= 8.36D-03

 Cycle   5  Pass 0  IDiag  1:
 RMSU=  4.39D-05    CP:  1.00D+00  1.68D+00  6.50D-01  7.39D-01
 FoFJK:  IHMeth= 1 ICntrl=     0 DoSepK=T KAlg= 1 I1Cent= 0 FoldK=F
 E= -1581.51658973170     Delta-E=       -0.002766909306 Rises=F Damp=F
 DIIS: error= 3.80D-04 at cycle   5 NSaved=   5.
 NSaved= 5 IEnMin= 5 EnMin= -1581.51658973170     IErMin= 5 ErrMin= 3.80D-04
 ErrMax= 3.80D-04 EMaxC= 1.00D-01 BMatC= 8.07D-05 BMatP= 3.19D-03
 IDIUse=3 WtCom= 9.96D-01 WtEn= 3.80D-03
 Coeff-Com: -0.139D-01 0.273D-01 0.493D-01 0.159D+00 0.778D+00
 Coeff-En:   0.000D+00 0.000D+00 0.000D+00 0.000D+00 0.100D+01
 Coeff:     -0.138D-01 0.272D-01 0.491D-01 0.159D+00 0.779D+00
 Gap=     0.258 Goal=   None    Shift=    0.000
 RMSDP=2.35D-05 MaxDP=2.07D-03 DE=-2.77D-03 OVMax= 2.73D-03

 Cycle   6  Pass 0  IDiag  1:
 RMSU=  1.34D-05    CP:  1.00D+00  1.68D+00  6.56D-01  7.98D-01  9.86D-01
 FoFJK:  IHMeth= 1 ICntrl=     0 DoSepK=T KAlg= 1 I1Cent= 0 FoldK=F
 E= -1581.51667080113     Delta-E=       -0.000081069430 Rises=F Damp=F
 DIIS: error= 2.73D-04 at cycle   6 NSaved=   6.
 NSaved= 6 IEnMin= 6 EnMin= -1581.51667080113     IErMin= 6 ErrMin= 2.73D-04
 ErrMax= 2.73D-04 EMaxC= 1.00D-01 BMatC= 2.57D-05 BMatP= 8.07D-05
 IDIUse=3 WtCom= 9.97D-01 WtEn= 2.73D-03
 Coeff-Com:  0.223D-01-0.461D-01-0.334D-01-0.153D-01 0.399D+00 0.673D+00
 Coeff-En:   0.000D+00 0.000D+00 0.000D+00 0.000D+00 0.000D+00 0.100D+01
 Coeff:      0.222D-01-0.459D-01-0.333D-01-0.152D-01 0.398D+00 0.674D+00
 Gap=     0.258 Goal=   None    Shift=    0.000
 RMSDP=1.32D-05 MaxDP=1.03D-03 DE=-8.11D-05 OVMax= 1.76D-03

 Cycle   7  Pass 0  IDiag  1:
 RMSU=  5.70D-06    CP:  1.00D+00  1.68D+00  6.60D-01  8.24D-01  1.11D+00
                    CP:  8.71D-01
 FoFJK:  IHMeth= 1 ICntrl=     0 DoSepK=T KAlg= 1 I1Cent= 0 FoldK=F
 E= -1581.51669933644     Delta-E=       -0.000028535303 Rises=F Damp=F
 DIIS: error= 4.40D-05 at cycle   7 NSaved=   7.
 NSaved= 7 IEnMin= 7 EnMin= -1581.51669933644     IErMin= 7 ErrMin= 4.40D-05
 ErrMax= 4.40D-05 EMaxC= 1.00D-01 BMatC= 1.70D-06 BMatP= 2.57D-05
 IDIUse=1 WtCom= 1.00D+00 WtEn= 0.00D+00
 Coeff-Com:  0.973D-02-0.199D-01-0.168D-01-0.227D-01 0.669D-01 0.240D+00
 Coeff-Com:  0.743D+00
 Coeff:      0.973D-02-0.199D-01-0.168D-01-0.227D-01 0.669D-01 0.240D+00
 Coeff:      0.743D+00
 Gap=     0.258 Goal=   None    Shift=    0.000
 RMSDP=4.18D-06 MaxDP=1.88D-04 DE=-2.85D-05 OVMax= 5.80D-04

 Initial convergence to 1.0D-05 achieved.  Increase integral accuracy.
 Cycle   8  Pass 1  IDiag  1:
 FoFJK:  IHMeth= 1 ICntrl=     0 DoSepK=T KAlg= 1 I1Cent= 0 FoldK=F
 E= -1581.51438501815     Delta-E=        0.002314318285 Rises=F Damp=F
 DIIS: error= 1.16D-04 at cycle   1 NSaved=   1.
 NSaved= 1 IEnMin= 1 EnMin= -1581.51438501815     IErMin= 1 ErrMin= 1.16D-04
 ErrMax= 1.16D-04 EMaxC= 1.00D-01 BMatC= 1.28D-05 BMatP= 1.28D-05
 IDIUse=3 WtCom= 9.99D-01 WtEn= 1.16D-03
 Coeff-Com:  0.100D+01
 Coeff-En:   0.100D+01
 Coeff:      0.100D+01
 Gap=     0.258 Goal=   None    Shift=    0.000
 RMSDP=4.18D-06 MaxDP=1.88D-04 DE= 2.31D-03 OVMax= 4.21D-04

 Cycle   9  Pass 1  IDiag  1:
 RMSU=  1.85D-05    CP:  1.00D+00
 FoFJK:  IHMeth= 1 ICntrl=     0 DoSepK=T KAlg= 1 I1Cent= 0 FoldK=F
 E= -1581.51439517272     Delta-E=       -0.000010154574 Rises=F Damp=F
 DIIS: error= 2.72D-05 at cycle   2 NSaved=   2.
 NSaved= 2 IEnMin= 2 EnMin= -1581.51439517272     IErMin= 2 ErrMin= 2.72D-05
 ErrMax= 2.72D-05 EMaxC= 1.00D-01 BMatC= 7.32D-07 BMatP= 1.28D-05
 IDIUse=1 WtCom= 1.00D+00 WtEn= 0.00D+00
 Coeff-Com:  0.341D-01 0.966D+00
 Coeff:      0.341D-01 0.966D+00
 Gap=     0.259 Goal=   None    Shift=    0.000
 RMSDP=3.20D-06 MaxDP=2.18D-04 DE=-1.02D-05 OVMax= 3.28D-04

 Cycle  10  Pass 1  IDiag  1:
 RMSU=  2.08D-06    CP:  1.00D+00  1.05D+00
 FoFJK:  IHMeth= 1 ICntrl=     0 DoSepK=T KAlg= 1 I1Cent= 0 FoldK=F
 E= -1581.51439520105     Delta-E=       -0.000000028326 Rises=F Damp=F
 DIIS: error= 4.87D-05 at cycle   3 NSaved=   3.
 NSaved= 3 IEnMin= 3 EnMin= -1581.51439520105     IErMin= 2 ErrMin= 2.72D-05
 ErrMax= 4.87D-05 EMaxC= 1.00D-01 BMatC= 9.60D-07 BMatP= 7.32D-07
 IDIUse=1 WtCom= 1.00D+00 WtEn= 0.00D+00
 Coeff-Com: -0.394D-01 0.551D+00 0.488D+00
 Coeff:     -0.394D-01 0.551D+00 0.488D+00
 Gap=     0.258 Goal=   None    Shift=    0.000
 RMSDP=1.60D-06 MaxDP=1.52D-04 DE=-2.83D-08 OVMax= 1.87D-04

 Cycle  11  Pass 1  IDiag  1:
 RMSU=  6.38D-07    CP:  1.00D+00  1.06D+00  5.61D-01
 FoFJK:  IHMeth= 1 ICntrl=     0 DoSepK=T KAlg= 1 I1Cent= 0 FoldK=F
 E= -1581.51439599417     Delta-E=       -0.000000793122 Rises=F Damp=F
 DIIS: error= 5.72D-06 at cycle   4 NSaved=   4.
 NSaved= 4 IEnMin= 4 EnMin= -1581.51439599417     IErMin= 4 ErrMin= 5.72D-06
 ErrMax= 5.72D-06 EMaxC= 1.00D-01 BMatC= 1.99D-08 BMatP= 7.32D-07
 IDIUse=1 WtCom= 1.00D+00 WtEn= 0.00D+00
 Coeff-Com: -0.164D-01 0.133D+00 0.163D+00 0.721D+00
 Coeff:     -0.164D-01 0.133D+00 0.163D+00 0.721D+00
 Gap=     0.258 Goal=   None    Shift=    0.000
 RMSDP=3.38D-07 MaxDP=3.13D-05 DE=-7.93D-07 OVMax= 3.82D-05

 Cycle  12  Pass 1  IDiag  1:
 RMSU=  2.17D-07    CP:  1.00D+00  1.06D+00  6.06D-01  1.04D+00
 FoFJK:  IHMeth= 1 ICntrl=     0 DoSepK=T KAlg= 1 I1Cent= 0 FoldK=F
 E= -1581.51439601411     Delta-E=       -0.000000019940 Rises=F Damp=F
 DIIS: error= 3.54D-06 at cycle   5 NSaved=   5.
 NSaved= 5 IEnMin= 5 EnMin= -1581.51439601411     IErMin= 5 ErrMin= 3.54D-06
 ErrMax= 3.54D-06 EMaxC= 1.00D-01 BMatC= 5.04D-09 BMatP= 1.99D-08
 IDIUse=1 WtCom= 1.00D+00 WtEn= 0.00D+00
 Coeff-Com:  0.287D-03-0.433D-01-0.223D-01 0.322D+00 0.743D+00
 Coeff:      0.287D-03-0.433D-01-0.223D-01 0.322D+00 0.743D+00
 Gap=     0.258 Goal=   None    Shift=    0.000
 RMSDP=1.92D-07 MaxDP=1.14D-05 DE=-1.99D-08 OVMax= 2.76D-05

 Cycle  13  Pass 1  IDiag  1:
 RMSU=  8.59D-08    CP:  1.00D+00  1.06D+00  6.19D-01  1.20D+00  9.40D-01
 FoFJK:  IHMeth= 1 ICntrl=     0 DoSepK=T KAlg= 1 I1Cent= 0 FoldK=F
 E= -1581.51439602088     Delta-E=       -0.000000006764 Rises=F Damp=F
 DIIS: error= 6.08D-07 at cycle   6 NSaved=   6.
 NSaved= 6 IEnMin= 6 EnMin= -1581.51439602088     IErMin= 6 ErrMin= 6.08D-07
 ErrMax= 6.08D-07 EMaxC= 1.00D-01 BMatC= 4.29D-10 BMatP= 5.04D-09
 IDIUse=1 WtCom= 1.00D+00 WtEn= 0.00D+00
 Coeff-Com:  0.197D-02-0.276D-01-0.268D-01 0.196D-01 0.235D+00 0.798D+00
 Coeff:      0.197D-02-0.276D-01-0.268D-01 0.196D-01 0.235D+00 0.798D+00
 Gap=     0.258 Goal=   None    Shift=    0.000
 RMSDP=7.65D-08 MaxDP=4.00D-06 DE=-6.76D-09 OVMax= 1.45D-05

 Cycle  14  Pass 1  IDiag  1:
 RMSU=  3.33D-08    CP:  1.00D+00  1.06D+00  6.22D-01  1.24D+00  1.06D+00
                    CP:  1.10D+00
 FoFJK:  IHMeth= 1 ICntrl=     0 DoSepK=T KAlg= 1 I1Cent= 0 FoldK=F
 E= -1581.51439602189     Delta-E=       -0.000000001010 Rises=F Damp=F
 DIIS: error= 3.91D-07 at cycle   7 NSaved=   7.
 NSaved= 7 IEnMin= 7 EnMin= -1581.51439602189     IErMin= 7 ErrMin= 3.91D-07
 ErrMax= 3.91D-07 EMaxC= 1.00D-01 BMatC= 9.77D-11 BMatP= 4.29D-10
 IDIUse=1 WtCom= 1.00D+00 WtEn= 0.00D+00
 Coeff-Com:  0.690D-03-0.313D-02-0.769D-02-0.532D-01-0.438D-01 0.313D+00
 Coeff-Com:  0.794D+00
 Coeff:      0.690D-03-0.313D-02-0.769D-02-0.532D-01-0.438D-01 0.313D+00
 Coeff:      0.794D+00
 Gap=     0.258 Goal=   None    Shift=    0.000
 RMSDP=4.05D-08 MaxDP=1.49D-06 DE=-1.01D-09 OVMax= 7.35D-06

 Cycle  15  Pass 1  IDiag  1:
 RMSU=  1.41D-08    CP:  1.00D+00  1.06D+00  6.25D-01  1.27D+00  1.11D+00
                    CP:  1.30D+00  1.04D+00
 FoFJK:  IHMeth= 1 ICntrl=     0 DoSepK=T KAlg= 1 I1Cent= 0 FoldK=F
 E= -1581.51439602210     Delta-E=       -0.000000000211 Rises=F Damp=F
 DIIS: error= 1.30D-07 at cycle   8 NSaved=   8.
 NSaved= 8 IEnMin= 8 EnMin= -1581.51439602210     IErMin= 8 ErrMin= 1.30D-07
 ErrMax= 1.30D-07 EMaxC= 1.00D-01 BMatC= 1.51D-11 BMatP= 9.77D-11
 IDIUse=1 WtCom= 1.00D+00 WtEn= 0.00D+00
 Coeff-Com: -0.714D-04 0.354D-02 0.150D-02-0.216D-01-0.527D-01-0.195D-01
 Coeff-Com:  0.292D+00 0.797D+00
 Coeff:     -0.714D-04 0.354D-02 0.150D-02-0.216D-01-0.527D-01-0.195D-01
 Coeff:      0.292D+00 0.797D+00
 Gap=     0.258 Goal=   None    Shift=    0.000
 RMSDP=1.59D-08 MaxDP=7.65D-07 DE=-2.11D-10 OVMax= 3.82D-06

 Cycle  16  Pass 1  IDiag  1:
 RMSU=  5.80D-09    CP:  1.00D+00  1.06D+00  6.25D-01  1.27D+00  1.12D+00
                    CP:  1.36D+00  1.22D+00  1.04D+00
 FoFJK:  IHMeth= 1 ICntrl=     0 DoSepK=T KAlg= 1 I1Cent= 0 FoldK=F
 E= -1581.51439602214     Delta-E=       -0.000000000038 Rises=F Damp=F
 DIIS: error= 6.25D-08 at cycle   9 NSaved=   9.
 NSaved= 9 IEnMin= 9 EnMin= -1581.51439602214     IErMin= 9 ErrMin= 6.25D-08
 ErrMax= 6.25D-08 EMaxC= 1.00D-01 BMatC= 2.65D-12 BMatP= 1.51D-11
 IDIUse=1 WtCom= 1.00D+00 WtEn= 0.00D+00
 Coeff-Com: -0.149D-03 0.194D-02 0.198D-02 0.131D-02-0.125D-01-0.684D-01
 Coeff-Com: -0.366D-01 0.288D+00 0.824D+00
 Coeff:     -0.149D-03 0.194D-02 0.198D-02 0.131D-02-0.125D-01-0.684D-01
 Coeff:     -0.366D-01 0.288D+00 0.824D+00
 Gap=     0.258 Goal=   None    Shift=    0.000
 RMSDP=7.07D-09 MaxDP=3.79D-07 DE=-3.82D-11 OVMax= 1.70D-06

 SCF Done:  E(RwB97XD) =  -1581.51439602     A.U. after   16 cycles
             Convg  =    0.7071D-08             -V/T =  2.0109
 KE= 1.564507895186D+03 PE=-1.112583320751D+04 EE= 4.251536263337D+03
 Leave Link  502 at Wed Apr  8 16:55:38 2020, MaxMem= 2684354560 cpu:     935.5
 (Enter /opt/g09gh/gaussian/g09/l601.exe)
 Copying SCF densities to generalized density rwf, IOpCl= 0 IROHF=0.

 **********************************************************************

            Population analysis using the SCF density.

 **********************************************************************

 Orbital symmetries:
       Occupied  (A) (A) (A) (A) (A) (A) (A) (A) (A) (A) (A) (A)
                 (A) (A) (A) (A) (A) (A) (A) (A) (A) (A) (A) (A)
                 (A) (A) (A) (A) (A) (A) (A) (A) (A) (A) (A) (A)
                 (A) (A) (A) (A) (A) (A) (A) (A) (A) (A) (A) (A)
                 (A) (A) (A) (A) (A) (A) (A) (A) (A) (A) (A) (A)
                 (A) (A) (A) (A) (A) (A) (A) (A) (A) (A) (A) (A)
                 (A) (A) (A) (A) (A) (A) (A) (A) (A) (A) (A) (A)
                 (A) (A) (A) (A) (A) (A) (A) (A) (A) (A) (A) (A)
                 (A) (A) (A) (A) (A) (A) (A) (A) (A) (A) (A) (A)
                 (A) (A) (A) (A) (A) (A) (A) (A) (A) (A) (A) (A)
                 (A) (A) (A) (A) (A) (A) (A) (A) (A) (A) (A)
       Virtual   (A) (A) (A) (A) (A) (A) (A) (A) (A) (A) (A) (A)
                 (A) (A) (A) (A) (A) (A) (A) (A) (A) (A) (A) (A)
                 (A) (A) (A) (A) (A) (A) (A) (A) (A) (A) (A) (A)
                 (A) (A) (A) (A) (A) (A) (A) (A) (A) (A) (A) (A)
                 (A) (A) (A) (A) (A) (A) (A) (A) (A) (A) (A) (A)
                 (A) (A) (A) (A) (A) (A) (A) (A) (A) (A) (A) (A)
                 (A) (A) (A) (A) (A) (A) (A) (A) (A) (A) (A) (A)
                 (A) (A) (A) (A) (A) (A) (A) (A) (A) (A) (A) (A)
                 (A) (A) (A) (A) (A) (A) (A) (A) (A) (A) (A) (A)
                 (A) (A) (A) (A) (A) (A) (A) (A) (A) (A) (A) (A)
                 (A) (A) (A) (A) (A) (A) (A) (A) (A) (A) (A) (A)
                 (A) (A) (A) (A) (A) (A) (A) (A) (A) (A) (A) (A)
                 (A) (A) (A) (A) (A) (A) (A) (A) (A) (A) (A) (A)
                 (A) (A) (A) (A) (A) (A) (A) (A) (A) (A) (A) (A)
                 (A) (A) (A) (A) (A) (A) (A) (A) (A) (A) (A) (A)
                 (A) (A) (A) (A) (A) (A) (A) (A) (A) (A) (A) (A)
                 (A) (A) (A) (A) (A) (A) (A) (A) (A) (A) (A) (A)
                 (A) (A) (A) (A) (A) (A) (A) (A) (A) (A) (A) (A)
                 (A) (A) (A) (A) (A) (A) (A) (A) (A) (A) (A) (A)
                 (A) (A) (A) (A) (A) (A) (A) (A) (A) (A) (A) (A)
                 (A) (A) (A) (A) (A) (A) (A) (A) (A) (A) (A) (A)
                 (A) (A) (A) (A) (A) (A) (A) (A) (A) (A) (A) (A)
                 (A) (A) (A) (A) (A) (A) (A) (A) (A) (A) (A) (A)
                 (A) (A) (A) (A) (A) (A) (A) (A) (A) (A) (A) (A)
                 (A) (A) (A) (A) (A) (A) (A) (A) (A) (A) (A) (A)
                 (A) (A) (A) (A) (A) (A) (A) (A) (A) (A) (A) (A)
                 (A) (A) (A) (A) (A) (A) (A) (A) (A) (A) (A) (A)
                 (A) (A) (A) (A) (A) (A) (A) (A) (A) (A) (A) (A)
                 (A) (A) (A) (A) (A) (A) (A) (A) (A) (A) (A) (A)
                 (A) (A) (A) (A) (A) (A) (A) (A) (A) (A) (A) (A)
                 (A) (A) (A) (A) (A) (A) (A) (A) (A) (A) (A) (A)
                 (A) (A) (A) (A) (A) (A) (A) (A) (A) (A) (A) (A)
                 (A) (A) (A) (A) (A) (A) (A) (A) (A) (A) (A) (A)
                 (A) (A) (A) (A) (A) (A) (A) (A) (A) (A) (A) (A)
                 (A) (A) (A) (A) (A) (A) (A) (A) (A) (A) (A) (A)
                 (A) (A) (A) (A) (A) (A) (A) (A) (A) (A) (A) (A)
                 (A) (A) (A) (A) (A) (A) (A) (A) (A) (A) (A) (A)
                 (A) (A) (A) (A) (A) (A) (A) (A) (A) (A) (A) (A)
                 (A) (A) (A) (A) (A) (A) (A) (A) (A) (A) (A) (A)
                 (A) (A) (A) (A) (A) (A) (A) (A) (A) (A) (A) (A)
                 (A) (A) (A) (A) (A) (A)
 The electronic state is 1-A.
 Alpha  occ. eigenvalues --  -19.22362 -14.49360 -14.47534 -14.46448 -14.45844
 Alpha  occ. eigenvalues --  -14.45495 -14.45429 -14.44517 -10.41824 -10.39842
 Alpha  occ. eigenvalues --  -10.37837 -10.36464 -10.36083 -10.35857 -10.35721
 Alpha  occ. eigenvalues --  -10.35701 -10.35608 -10.34409 -10.34159 -10.34103
 Alpha  occ. eigenvalues --  -10.34051 -10.33607 -10.33420 -10.32229 -10.32133
 Alpha  occ. eigenvalues --  -10.31836 -10.31638 -10.31455 -10.31252 -10.30868
 Alpha  occ. eigenvalues --  -10.30823 -10.30758 -10.30740 -10.30641 -10.30626
 Alpha  occ. eigenvalues --  -10.30146 -10.29719  -1.12728  -1.11314  -1.04682
 Alpha  occ. eigenvalues --   -1.03523  -1.03343  -1.02559  -0.99766  -0.99373
 Alpha  occ. eigenvalues --   -0.95831  -0.94667  -0.91841  -0.88946  -0.87816
 Alpha  occ. eigenvalues --   -0.86576  -0.86377  -0.84731  -0.84035  -0.83627
 Alpha  occ. eigenvalues --   -0.81793  -0.79444  -0.77758  -0.77393  -0.75802
 Alpha  occ. eigenvalues --   -0.72807  -0.72587  -0.71910  -0.71701  -0.70391
 Alpha  occ. eigenvalues --   -0.70053  -0.69346  -0.68068  -0.66416  -0.64070
 Alpha  occ. eigenvalues --   -0.63754  -0.62058  -0.61452  -0.60948  -0.59783
 Alpha  occ. eigenvalues --   -0.58407  -0.58247  -0.56642  -0.56405  -0.56092
 Alpha  occ. eigenvalues --   -0.55733  -0.55394  -0.54728  -0.54200  -0.53968
 Alpha  occ. eigenvalues --   -0.53617  -0.52628  -0.52365  -0.52030  -0.51630
 Alpha  occ. eigenvalues --   -0.51284  -0.51065  -0.50756  -0.50422  -0.50144
 Alpha  occ. eigenvalues --   -0.49747  -0.49421  -0.49087  -0.49043  -0.48010
 Alpha  occ. eigenvalues --   -0.47487  -0.46960  -0.46063  -0.45975  -0.45444
 Alpha  occ. eigenvalues --   -0.45094  -0.44454  -0.44251  -0.44078  -0.43596
 Alpha  occ. eigenvalues --   -0.43396  -0.42560  -0.42010  -0.40978  -0.40227
 Alpha  occ. eigenvalues --   -0.39926  -0.37704  -0.36888  -0.35597  -0.35363
 Alpha  occ. eigenvalues --   -0.34673  -0.33501  -0.33228  -0.33129  -0.32798
 Alpha  occ. eigenvalues --   -0.32605  -0.32028  -0.31561  -0.30892  -0.28090
 Alpha  occ. eigenvalues --   -0.25956
 Alpha virt. eigenvalues --   -0.00112   0.03443   0.03770   0.04900   0.05910
 Alpha virt. eigenvalues --    0.06577   0.07777   0.08050   0.10128   0.10177
 Alpha virt. eigenvalues --    0.12415   0.13161   0.14048   0.16096   0.16291
 Alpha virt. eigenvalues --    0.16587   0.17524   0.18189   0.19202   0.19413
 Alpha virt. eigenvalues --    0.19796   0.20245   0.20771   0.21097   0.22033
 Alpha virt. eigenvalues --    0.22293   0.22781   0.23228   0.23612   0.23903
 Alpha virt. eigenvalues --    0.24140   0.24421   0.24594   0.24921   0.25441
 Alpha virt. eigenvalues --    0.25531   0.25771   0.26223   0.26472   0.27070
 Alpha virt. eigenvalues --    0.27471   0.27774   0.28015   0.28569   0.28656
 Alpha virt. eigenvalues --    0.29361   0.29512   0.29914   0.30641   0.30870
 Alpha virt. eigenvalues --    0.31777   0.32292   0.32387   0.33134   0.33866
 Alpha virt. eigenvalues --    0.34195   0.35077   0.35652   0.36787   0.38130
 Alpha virt. eigenvalues --    0.38147   0.38455   0.39137   0.39622   0.39880
 Alpha virt. eigenvalues --    0.40185   0.40361   0.40876   0.41276   0.42562
 Alpha virt. eigenvalues --    0.43211   0.44943   0.45729   0.47055   0.47841
 Alpha virt. eigenvalues --    0.48303   0.50239   0.51521   0.52323   0.53510
 Alpha virt. eigenvalues --    0.54658   0.56122   0.57599   0.58185   0.58460
 Alpha virt. eigenvalues --    0.58610   0.59236   0.59417   0.59650   0.59809
 Alpha virt. eigenvalues --    0.60279   0.60761   0.61687   0.61699   0.61908
 Alpha virt. eigenvalues --    0.62127   0.62457   0.63075   0.63763   0.64171
 Alpha virt. eigenvalues --    0.64479   0.64583   0.64835   0.65445   0.65641
 Alpha virt. eigenvalues --    0.66108   0.66195   0.66418   0.66608   0.67092
 Alpha virt. eigenvalues --    0.67127   0.67324   0.67618   0.67952   0.68592
 Alpha virt. eigenvalues --    0.69094   0.69379   0.69502   0.69811   0.70278
 Alpha virt. eigenvalues --    0.70621   0.71187   0.71449   0.71624   0.72223
 Alpha virt. eigenvalues --    0.72528   0.72951   0.73063   0.73779   0.74327
 Alpha virt. eigenvalues --    0.74630   0.75049   0.76317   0.76393   0.77374
 Alpha virt. eigenvalues --    0.77653   0.78144   0.78637   0.79553   0.80002
 Alpha virt. eigenvalues --    0.80719   0.81427   0.81536   0.82049   0.82801
 Alpha virt. eigenvalues --    0.83777   0.84148   0.84848   0.85482   0.85512
 Alpha virt. eigenvalues --    0.86379   0.87311   0.87869   0.88266   0.88541
 Alpha virt. eigenvalues --    0.89117   0.89224   0.89606   0.90704   0.91267
 Alpha virt. eigenvalues --    0.91447   0.92018   0.92138   0.92437   0.92969
 Alpha virt. eigenvalues --    0.93489   0.93630   0.94146   0.94333   0.94537
 Alpha virt. eigenvalues --    0.94608   0.94935   0.95318   0.95709   0.96039
 Alpha virt. eigenvalues --    0.96249   0.97268   0.97885   0.98197   0.98234
 Alpha virt. eigenvalues --    0.98589   0.99056   0.99664   1.00145   1.00804
 Alpha virt. eigenvalues --    1.01275   1.01358   1.01689   1.02111   1.02439
 Alpha virt. eigenvalues --    1.03129   1.03400   1.03975   1.04943   1.05435
[...]
                 (A) (A) (A) (A) (A) (A) (A) (A) (A) (A) (A) (A)
                 (A) (A) (A) (A) (A) (A) (A) (A) (A) (A) (A) (A)
                 (A) (A) (A) (A) (A) (A) (A) (A) (A) (A) (A) (A)
                 (A) (A) (A) (A) (A) (A) (A) (A) (A) (A) (A) (A)
                 (A) (A) (A) (A) (A) (A) (A) (A) (A) (A) (A) (A)
                 (A) (A) (A) (A) (A) (A) (A) (A) (A) (A) (A) (A)
                 (A) (A) (A) (A) (A) (A) (A) (A) (A) (A) (A) (A)
                 (A) (A) (A) (A) (A) (A) (A) (A) (A) (A) (A) (A)
                 (A) (A) (A) (A) (A) (A) (A) (A) (A) (A) (A) (A)
                 (A) (A) (A) (A) (A) (A) (A) (A) (A) (A) (A) (A)
                 (A) (A) (A) (A) (A) (A) (A) (A) (A) (A) (A) (A)
                 (A) (A) (A) (A) (A) (A) (A) (A) (A) (A) (A) (A)
                 (A) (A) (A) (A) (A) (A) (A) (A) (A) (A) (A) (A)
                 (A) (A) (A) (A) (A) (A) (A) (A) (A) (A) (A) (A)
                 (A) (A) (A) (A) (A) (A) (A) (A) (A) (A) (A) (A)
                 (A) (A) (A) (A) (A) (A) (A) (A) (A) (A) (A) (A)
                 (A) (A) (A) (A) (A) (A) (A) (A) (A) (A) (A) (A)
                 (A) (A) (A) (A) (A) (A) (A) (A) (A) (A) (A) (A)
                 (A) (A) (A) (A) (A) (A) (A) (A) (A) (A) (A) (A)
                 (A) (A) (A) (A) (A) (A) (A) (A) (A) (A) (A) (A)
                 (A) (A) (A) (A) (A) (A) (A) (A) (A) (A) (A) (A)
                 (A) (A) (A) (A) (A) (A) (A) (A) (A) (A) (A) (A)
                 (A) (A) (A) (A) (A) (A) (A) (A) (A) (A) (A) (A)
                 (A) (A) (A) (A) (A) (A) (A) (A) (A) (A) (A) (A)
                 (A) (A) (A) (A) (A) (A) (A) (A) (A) (A) (A) (A)
                 (A) (A) (A) (A) (A) (A) (A) (A) (A) (A) (A) (A)
                 (A) (A) (A) (A) (A) (A) (A) (A) (A) (A) (A) (A)
                 (A) (A) (A) (A) (A) (A) (A) (A) (A) (A) (A) (A)
                 (A) (A) (A) (A) (A) (A) (A) (A) (A) (A) (A) (A)
                 (A) (A) (A) (A) (A) (A) (A) (A) (A) (A) (A) (A)
                 (A) (A) (A) (A) (A) (A)
 The electronic state is 1-A.
 Alpha  occ. eigenvalues --  -19.23411 -14.49282 -14.48321 -14.46751 -14.46096
 Alpha  occ. eigenvalues --  -14.45764 -14.43616 -14.43135 -10.41778 -10.40081
 Alpha  occ. eigenvalues --  -10.37615 -10.36338 -10.35324 -10.35084 -10.34623
 Alpha  occ. eigenvalues --  -10.34135 -10.34016 -10.33622 -10.32863 -10.32367
 Alpha  occ. eigenvalues --  -10.31861 -10.31491 -10.31180 -10.30936 -10.30707
 Alpha  occ. eigenvalues --  -10.30688 -10.30676 -10.30586 -10.30534 -10.30402
 Alpha  occ. eigenvalues --  -10.30377 -10.30220 -10.30021 -10.29975 -10.29575
 Alpha  occ. eigenvalues --  -10.28739 -10.28405  -1.13444  -1.12295  -1.06322
 Alpha  occ. eigenvalues --   -1.04565  -1.03829  -1.03634  -1.00715  -0.99558
 Alpha  occ. eigenvalues --   -0.96086  -0.94671  -0.93098  -0.89778  -0.88124
 Alpha  occ. eigenvalues --   -0.87388  -0.86227  -0.85399  -0.84542  -0.83783
 Alpha  occ. eigenvalues --   -0.81888  -0.79581  -0.78270  -0.77798  -0.76320
 Alpha  occ. eigenvalues --   -0.73881  -0.73301  -0.73025  -0.72621  -0.70871
 Alpha  occ. eigenvalues --   -0.70314  -0.69614  -0.68039  -0.66413  -0.65150
 Alpha  occ. eigenvalues --   -0.63656  -0.63408  -0.62228  -0.61762  -0.60211
 Alpha  occ. eigenvalues --   -0.58848  -0.58045  -0.57570  -0.56611  -0.56101
 Alpha  occ. eigenvalues --   -0.55817  -0.55236  -0.55134  -0.54965  -0.54255
 Alpha  occ. eigenvalues --   -0.53867  -0.53238  -0.53154  -0.52612  -0.52174
 Alpha  occ. eigenvalues --   -0.51912  -0.51510  -0.51370  -0.50999  -0.50575
 Alpha  occ. eigenvalues --   -0.50365  -0.50116  -0.49975  -0.49497  -0.48335
 Alpha  occ. eigenvalues --   -0.47217  -0.46906  -0.46619  -0.46319  -0.46211
 Alpha  occ. eigenvalues --   -0.45762  -0.45236  -0.44798  -0.44045  -0.43932
 Alpha  occ. eigenvalues --   -0.43328  -0.43016  -0.42142  -0.41766  -0.41439
 Alpha  occ. eigenvalues --   -0.40964  -0.40777  -0.39912  -0.38187  -0.37592
 Alpha  occ. eigenvalues --   -0.35821  -0.35293  -0.34001  -0.33446  -0.33373
 Alpha  occ. eigenvalues --   -0.32818  -0.31904  -0.30772  -0.29115  -0.27079
 Alpha  occ. eigenvalues --   -0.24996
 Alpha virt. eigenvalues --   -0.00292   0.02872   0.03585   0.04480   0.06433
 Alpha virt. eigenvalues --    0.07258   0.08205   0.10371   0.13888   0.14816
 Alpha virt. eigenvalues --    0.15728   0.16386   0.17252   0.17441   0.18251
 Alpha virt. eigenvalues --    0.19198   0.19759   0.20074   0.20198   0.20629
 Alpha virt. eigenvalues --    0.21234   0.21900   0.22614   0.22767   0.23135
 Alpha virt. eigenvalues --    0.23343   0.23537   0.24192   0.24362   0.24839
 Alpha virt. eigenvalues --    0.25119   0.25125   0.26082   0.26488   0.26550
 Alpha virt. eigenvalues --    0.27064   0.27431   0.27680   0.27996   0.28429
 Alpha virt. eigenvalues --    0.28564   0.28863   0.29436   0.29707   0.30281
 Alpha virt. eigenvalues --    0.31015   0.31164   0.31763   0.32124   0.32246
 Alpha virt. eigenvalues --    0.32891   0.33214   0.33674   0.33953   0.34428
 Alpha virt. eigenvalues --    0.35001   0.36035   0.36537   0.37754   0.38122
 Alpha virt. eigenvalues --    0.38651   0.38809   0.39298   0.40138   0.40740
 Alpha virt. eigenvalues --    0.41234   0.41465   0.42064   0.42207   0.42712
 Alpha virt. eigenvalues --    0.43813   0.45041   0.46206   0.47058   0.47330
 Alpha virt. eigenvalues --    0.48354   0.49428   0.51936   0.53014   0.54229
 Alpha virt. eigenvalues --    0.55738   0.56537   0.57257   0.57911   0.58309
 Alpha virt. eigenvalues --    0.59048   0.59371   0.59611   0.60511   0.60896
 Alpha virt. eigenvalues --    0.61370   0.61486   0.61681   0.62222   0.62698
 Alpha virt. eigenvalues --    0.63200   0.63354   0.63863   0.64090   0.64888
 Alpha virt. eigenvalues --    0.64931   0.65336   0.65507   0.65529   0.65821
 Alpha virt. eigenvalues --    0.66022   0.66271   0.66897   0.66981   0.67472
 Alpha virt. eigenvalues --    0.67616   0.67786   0.68308   0.68614   0.69045
 Alpha virt. eigenvalues --    0.69766   0.70017   0.70550   0.71042   0.71240
 Alpha virt. eigenvalues --    0.71763   0.72092   0.72267   0.72584   0.73056
 Alpha virt. eigenvalues --    0.73333   0.73461   0.74254   0.75225   0.75348
 Alpha virt. eigenvalues --    0.75594   0.75944   0.76256   0.76932   0.77677
 Alpha virt. eigenvalues --    0.77802   0.79112   0.80382   0.80454   0.81764
 Alpha virt. eigenvalues --    0.81971   0.82307   0.83131   0.83261   0.84197
 Alpha virt. eigenvalues --    0.84656   0.85716   0.86629   0.86888   0.87426
 Alpha virt. eigenvalues --    0.88279   0.89048   0.89673   0.90200   0.90738
 Alpha virt. eigenvalues --    0.90924   0.91158   0.91468   0.92209   0.92295
 Alpha virt. eigenvalues --    0.92391   0.92543   0.93564   0.93885   0.94045
 Alpha virt. eigenvalues --    0.94339   0.94528   0.94675   0.95250   0.95602
 Alpha virt. eigenvalues --    0.95947   0.96541   0.97598   0.98196   0.98358
 Alpha virt. eigenvalues --    0.98515   0.99006   0.99058   0.99699   0.99825
 Alpha virt. eigenvalues --    1.00449   1.00624   1.01371   1.01924   1.02018
 Alpha virt. eigenvalues --    1.02501   1.02653   1.03218   1.03673   1.04408
 Alpha virt. eigenvalues --    1.05621   1.05882   1.06645   1.06768   1.07379
 Alpha virt. eigenvalues --    1.07617   1.08219   1.08750   1.08902   1.09056
 Alpha virt. eigenvalues --    1.10209   1.10702   1.11023   1.11715   1.12086
 Alpha virt. eigenvalues --    1.12634   1.13089   1.13789   1.14262   1.15632
 Alpha virt. eigenvalues --    1.16461   1.16985   1.17695   1.18300   1.19272
 Alpha virt. eigenvalues --    1.20080   1.21179   1.21741   1.23136   1.23418
 Alpha virt. eigenvalues --    1.24742   1.25512   1.26100   1.26961   1.27423
 Alpha virt. eigenvalues --    1.29018   1.29355   1.29707   1.30413   1.30876
 Alpha virt. eigenvalues --    1.31922   1.33070   1.33759   1.33898   1.34764
 Alpha virt. eigenvalues --    1.35491   1.36944   1.37302   1.37889   1.38646
 Alpha virt. eigenvalues --    1.39302   1.42349   1.43369   1.43712   1.44579
 Alpha virt. eigenvalues --    1.46481   1.47300   1.47752   1.48440   1.48546
 Alpha virt. eigenvalues --    1.48644   1.49181   1.49466   1.50259   1.51635
 Alpha virt. eigenvalues --    1.51967   1.52735   1.53656   1.54082   1.54529
 Alpha virt. eigenvalues --    1.55183   1.55561   1.56281   1.56870   1.56980
 Alpha virt. eigenvalues --    1.57523   1.57807   1.58457   1.59180   1.59300
 Alpha virt. eigenvalues --    1.59661   1.60105   1.60825   1.61991   1.62519
 Alpha virt. eigenvalues --    1.63909   1.64946   1.65121   1.65691   1.67669
 Alpha virt. eigenvalues --    1.68410   1.69751   1.72012   1.75171   1.76228
 Alpha virt. eigenvalues --    1.78748   1.80596   1.81508   1.82525   1.84274
 Alpha virt. eigenvalues --    1.84719   1.85643   1.86429   1.86958   1.87887
 Alpha virt. eigenvalues --    1.87956   1.88949   1.89940   1.90638   1.90825
 Alpha virt. eigenvalues --    1.91216   1.92461   1.92802   1.93435   1.94264
 Alpha virt. eigenvalues --    1.94426   1.94934   1.95568   1.96612   1.97944
 Alpha virt. eigenvalues --    1.98717   1.99604   2.00125   2.00241   2.01197
 Alpha virt. eigenvalues --    2.01311   2.01501   2.01783   2.02573   2.03678
 Alpha virt. eigenvalues --    2.05538   2.06500   2.06637   2.07323   2.08213
 Alpha virt. eigenvalues --    2.08613   2.08850   2.09736   2.10839   2.11395
 Alpha virt. eigenvalues --    2.12240   2.12579   2.13555   2.14166   2.14818
 Alpha virt. eigenvalues --    2.15878   2.16187   2.17689   2.19548   2.20433
 Alpha virt. eigenvalues --    2.21104   2.21286   2.21687   2.22417   2.22784
 Alpha virt. eigenvalues --    2.22976   2.23631   2.23941   2.24602   2.25133
 Alpha virt. eigenvalues --    2.25944   2.26147   2.26368   2.26887   2.28050
 Alpha virt. eigenvalues --    2.28543   2.29386   2.29950   2.31590   2.32594
 Alpha virt. eigenvalues --    2.34099   2.34927   2.36375   2.37133   2.37172
 Alpha virt. eigenvalues --    2.37913   2.38059   2.38213   2.39476   2.39889
 Alpha virt. eigenvalues --    2.40252   2.40810   2.42121   2.42801   2.43235
 Alpha virt. eigenvalues --    2.43391   2.44336   2.44762   2.44890   2.46220
 Alpha virt. eigenvalues --    2.46449   2.47889   2.48105   2.49413   2.49812
 Alpha virt. eigenvalues --    2.50306   2.50932   2.52052   2.53872   2.56001
 Alpha virt. eigenvalues --    2.58453   2.59876   2.60857   2.62124   2.63393
 Alpha virt. eigenvalues --    2.64711   2.65078   2.65952   2.66089   2.67628
 Alpha virt. eigenvalues --    2.68706   2.70008   2.71800   2.72058   2.72664
 Alpha virt. eigenvalues --    2.74011   2.74385   2.75461   2.76174   2.76868
 Alpha virt. eigenvalues --    2.77166   2.78481   2.78950   2.80938   2.81732
 Alpha virt. eigenvalues --    2.82747   2.83149   2.83722   2.84479   2.85525
 Alpha virt. eigenvalues --    2.86030   2.86479   2.87315   2.88411   2.89254
 Alpha virt. eigenvalues --    2.89962   2.91943   2.92699   2.93387   2.94569
 Alpha virt. eigenvalues --    2.94832   2.96132   2.97873   3.01369   3.02992
 Alpha virt. eigenvalues --    3.04143   3.06694   3.09291   3.10084   3.12017
 Alpha virt. eigenvalues --    3.18949   3.26899   3.29152   3.39178   3.41513
 Alpha virt. eigenvalues --    3.45039   3.53456   3.56406   3.57589   4.12659
 Alpha virt. eigenvalues --    4.13540   4.15201   4.16853   4.18260   4.19136
 Alpha virt. eigenvalues --    4.19562   4.20453   4.21990   4.23544   4.25288
 Alpha virt. eigenvalues --    4.26035   4.27474   4.28698   4.30761   4.31719
 Alpha virt. eigenvalues --    4.33383   4.34586   4.36933   4.40131   4.40369
 Alpha virt. eigenvalues --    4.41611   4.44511   4.46129   4.49147   4.49439
 Alpha virt. eigenvalues --    4.49745   4.52846   4.57341   4.60739   4.61923
 Alpha virt. eigenvalues --    4.64160   4.67478   4.69409   4.79024   4.85074
 Alpha virt. eigenvalues --    4.89520
          Condensed to atoms (all electrons):
 Mulliken atomic charges:
              1
     1  C   -0.197837
     2  C   -0.154403
     3  C    0.035520
     4  C    0.009571
     5  N   -0.437510
     6  C    0.035721
     7  C    0.295145
     8  C   -0.254763
     9  C    0.049015
    10  N   -0.493035
    11  C    0.714362
    12  N   -0.568398
    13  N   -0.802045
    14  C    0.291468
    15  C    0.119861
    16  C   -0.240382
    17  C   -0.191304
    18  C    0.358215
    19  C   -0.269722
    20  N   -0.758055
    21  C    0.585797
    22  C    0.015182
    23  C   -0.205352
    24  C   -0.217922
    25  C    0.155980
    26  C   -0.223081
    27  C   -0.178387
    28  C   -0.263555
    29  N   -0.382218
    30  C   -0.183903
    31  C   -0.181778
    32  N   -0.385711
    33  C   -0.349274
    34  C   -0.182629
    35  C   -0.186518
    36  O   -0.513283
    37  C   -0.607383
    38  H    0.186140
    39  H    0.186729
    40  H    0.198114
    41  H    0.179047
    42  H    0.180749
    43  H    0.189492
    44  H    0.369212
    45  H    0.160817
    46  H    0.213081
    47  H    0.199383
    48  H    0.361563
    49  H    0.185478
    50  H    0.172046
    51  H    0.163616
    52  H    0.195611
    53  H    0.170277
    54  H    0.168917
    55  H    0.148153
    56  H    0.158371
    57  H    0.141660
    58  H    0.174892
    59  H    0.135264
    60  H    0.164119
    61  H    0.167875
    62  H    0.153490
    63  H    0.172915
    64  H    0.159401
    65  H    0.154994
    66  H    0.178046
    67  H    0.182739
    68  H    0.190423
 Sum of Mulliken atomic charges =   0.00000
 Mulliken charges with hydrogens summed into heavy atoms:
              1
     1  C   -0.011697
     2  C    0.032326
     3  C    0.035520
     4  C    0.207685
     5  N   -0.437510
     6  C    0.214769
     7  C    0.295145
     8  C   -0.074014
     9  C    0.238506
    10  N   -0.493035
    11  C    0.714362
    12  N   -0.568398
    13  N   -0.432833
    14  C    0.291468
    15  C    0.119861
    16  C   -0.079565
    17  C    0.021777
    18  C    0.358215
    19  C   -0.070339
    20  N   -0.396492
    21  C    0.585797
    22  C    0.015182
    23  C   -0.019875
    24  C   -0.045875
    25  C    0.155980
    26  C   -0.059465
    27  C    0.017224
    28  C    0.075639
    29  N   -0.382218
    30  C    0.122621
    31  C    0.134774
    32  N   -0.385711
    33  C    0.117984
    34  C    0.143776
    35  C    0.127877
    36  O   -0.513283
    37  C   -0.056176
 Sum of Mulliken charges with hydrogens summed into heavy atoms =   0.00000
 Electronic spatial extent (au):  <R**2>=          21212.7619
 Charge=              0.0000 electrons
 Dipole moment (field-independent basis, Debye):
    X=              0.5803    Y=              6.5721    Z=              0.4336  Tot=              6.6119
 Quadrupole moment (field-independent basis, Debye-Ang):
   XX=           -193.2960   YY=           -202.5059   ZZ=           -220.4832
   XY=              3.1049   XZ=             -1.2810   YZ=             -5.2222
 Traceless Quadrupole moment (field-independent basis, Debye-Ang):
   XX=             12.1324   YY=              2.9225   ZZ=            -15.0549
   XY=              3.1049   XZ=             -1.2810   YZ=             -5.2222
 Octapole moment (field-independent basis, Debye-Ang**2):
  XXX=             80.0363  YYY=            204.3897  ZZZ=             11.3523  XYY=             33.4451
  XXY=            -43.1065  XXZ=             31.6578  XZZ=            -22.7244  YZZ=              1.3364
  YYZ=             17.7531  XYZ=              2.2780
 Hexadecapole moment (field-independent basis, Debye-Ang**3):
 XXXX=         -18571.1872 YYYY=          -7865.2379 ZZZZ=          -1607.7232 XXXY=            -50.9435
 XXXZ=           -102.8364 YYYX=            149.0619 YYYZ=            -76.2691 ZZZX=            -50.0297
 ZZZY=             15.0404 XXYY=          -4005.5604 XXZZ=          -3409.3661 YYZZ=          -1721.4910
 XXYZ=            -52.8950 YYXZ=            -15.8952 ZZXY=            -24.6259
 N-N= 3.895039117001D+03 E-N=-1.146167376538D+04  KE= 1.567155666047D+03
 No NMR shielding tensors so no spin-rotation constants.
 Leave Link  601 at Wed Apr  8 18:49:46 2020, MaxMem= 2684354560 cpu:       3.2
 (Enter /opt/g09gh/gaussian/g09/l9999.exe)
 1\1\GINC-NODE73\FOpt\RwB97XD\6-31G(d)\C29H31N7O1\BDW2292\08-Apr-2020\0
 \\#P opt=(,maxcycle=400) wB97XD/6-31G* MaxDisk=100GB\\MOLECULE0 Rotata
 ble Bond Optimization on node37.bme.utexas.edu\\0,1\C,-1.1732751246,0.
 1372917724,-5.2476305667\C,0.2143780465,0.1130797849,-5.3177712172\C,0
 .9129478128,-0.8364361923,-4.5739726334\C,0.1606773363,-1.7274079262,-
 3.796918212\N,-1.1687378512,-1.7142041712,-3.7176793152\C,-1.815294323
 9,-0.7886293217,-4.4325596112\C,2.3956750601,-0.910435891,-4.544973843
 6\C,3.2172454327,-0.4458555207,-5.5680426121\C,4.589585888,-0.57742501
 66,-5.3587060365\N,5.1221006571,-1.1146788558,-4.2696534764\C,4.237907
 9691,-1.5473762866,-3.3479110306\N,2.9112130428,-1.4612006668,-3.44329
 68235\N,4.8010450317,-2.1123798406,-2.2364015414\C,4.1955049001,-2.730
 0335369,-1.1260850444\C,4.9931245892,-3.5405624502,-0.292854932\C,4.37
 42622713,-4.163219524,0.7877269009\C,3.015267043,-4.0371646282,1.07003
 5201\C,2.2508101318,-3.2284357435,0.2345330365\C,2.8473291122,-2.56153
 74374,-0.835159503\N,0.8646155903,-3.0329070588,0.3500765045\C,-0.0524
 242969,-3.6600424456,1.1539585906\C,-1.4675958184,-3.3434490538,0.7597
 879797\C,-1.8355063401,-3.1696756662,-0.5777494813\C,-3.1397263304,-2.
 8324693585,-0.9080398469\C,-4.1007602227,-2.6371641411,0.0838262656\C,
 -3.739206589,-2.8680439987,1.4140735339\C,-2.4393406802,-3.2254544075,
 1.7527913424\C,-5.4860515936,-2.1239615108,-0.2740434064\N,-5.64417496
 72,-0.6861540584,-0.4318592076\C,-5.1125338278,-0.0644063293,-1.640046
 4017\C,-3.691868125,0.5090887241,-1.4876343434\N,-3.546935517,1.378849
 0039,-0.3236316968\C,-4.150979102,2.6887249177,-0.4906841586\C,-3.9915
 234627,0.6740861976,0.8766510152\C,-5.4246946378,0.1295566854,0.757401
 3494\O,0.2319994332,-4.3807342864,2.0957259861\C,6.462412443,-3.738981
 6161,-0.5662636582\H,-1.7477533863,0.8692314764,-5.8051122388\H,0.7443
 186033,0.8439566473,-5.9218025948\H,0.6761484026,-2.4898833091,-3.2184
 82051\H,-2.899604015,-0.7876402198,-4.3441694991\H,2.8297312294,-0.021
 4564457,-6.4858960877\H,5.2954110472,-0.2339935426,-6.1123715689\H,5.8
 076448886,-2.1523085042,-2.2944695964\H,4.9799564376,-4.7909076711,1.4
 3656971\H,2.5593759069,-4.552232267,1.9044331988\H,2.2488240995,-1.928
 4459278,-1.4724761248\H,0.4806379979,-2.3772076302,-0.3142258439\H,-1.
 1194140192,-3.3138107439,-1.381546779\H,-3.396133017,-2.6990029452,-1.
 9559205663\H,-4.4847646977,-2.7506411102,2.1974639351\H,-2.1574073415,
 -3.4007326901,2.7862531384\H,-5.8130038243,-2.5917587398,-1.2105833944
 \H,-6.193393715,-2.4450088569,0.5013464822\H,-5.1409827887,-0.79786047
 22,-2.4547720275\H,-5.7951110036,0.7500999684,-1.9257722006\H,-3.42062
 44853,1.0774275756,-2.386513536\H,-2.9666140133,-0.3059572523,-1.38683
 48476\H,-5.2451614238,2.693180499,-0.6399588726\H,-3.6969190562,3.1850
 425941,-1.3555432302\H,-3.9356518729,3.2959296799,0.395316988\H,-3.918
 254768,1.3555534761,1.732921726\H,-3.2952902577,-0.1538969191,1.054199
 515\H,-6.1308342141,0.9728102788,0.728974323\H,-5.6792962049,-0.462855
 0758,1.643384991\H,7.0273374202,-2.798576415,-0.5072317763\H,6.6390030
 612,-4.1705423801,-1.5600933214\H,6.9012550292,-4.4213642222,0.1659950
 437\\Version=EM64L-G09RevA.02\State=1-A\HF=-1581.7632159\RMSD=8.998e-0
 9\RMSF=8.236e-06\Dipole=0.0283455,1.5060635,-2.1207986\Quadrupole=6.59
 2458,-10.1136191,3.5211611,-4.1268112,-4.5036035,-3.2569019\PG=C01 [X(
 C29H31N7O1)]\\@


 ALL PAPERS THAT YOU SAVE WILL NEVER BE NEEDED UNTIL
 SUCH TIME AS THEY ARE DISPOSED OF, WHEN THEY BECOME
 ESSENTIAL.

           -- JOHN CORCORAN IN
              PAUL DICKSON'S "THE OFFICIAL RULES"
 Job cpu time:  0 days 11 hours 37 minutes 18.8 seconds.
 File lengths (MBytes):  RWF=    244 Int=      0 D2E=      0 Chk=     25 Scr=      1
 Normal termination of Gaussian 09 at Wed Apr  8 18:49:47 2020.
