
    -----------------------------------------------------------------------
          Psi4: An Open-Source Ab Initio Electronic Structure Package
                               Psi4 1.3.2 release

                         Git: Rev {HEAD} ecbda83 


    R. M. Parrish, L. A. Burns, D. G. A. Smith, A. C. Simmonett,
    A. E. DePrince III, E. G. Hohenstein, U. Bozkaya, A. Yu. Sokolov,
    R. Di Remigio, R. M. Richard, J. F. Gonthier, A. M. James,
    H. R. McAlexander, A. Kumar, M. Saitow, X. Wang, B. P. Pritchard,
    P. Verma, H. F. Schaefer III, K. Patkowski, R. A. King, E. F. Valeev,
    F. A. Evangelista, J. M. Turney, T. D. Crawford, and C. D. Sherrill,
    J. Chem. Theory Comput. 13(7) pp 3185--3197 (2017).
    (doi: 10.1021/acs.jctc.7b00174)


                         Additional Contributions by
    P. Kraus, H. Kruse, M. H. Lechner, M. C. Schieber, R. A. Shaw,
    A. Alenaizan, R. Galvelis, Z. L. Glick, S. Lehtola, and J. P. Misiewicz

    -----------------------------------------------------------------------


    Psi4 started on: Tuesday, 14 April 2020 12:43PM

    Process ID: 11115
    Host:       node49.bme.utexas.edu
    PSIDATADIR: /home/bdw2292/miniconda3/envs/p4env/share/psi4
    Memory:     500.0 MiB
    Threads:    1
    
  ==> Input File <==

--------------------------------------------------------------------------
molecule { 
0 1
 C   -7.973244   -3.603654   -1.331869
 C   -6.788528   -3.279063   -0.658878
 C   -6.426015   -1.929012   -0.479371
 C   -7.321883   -0.971864   -1.016238
 N   -8.459073   -1.265047   -1.661323
 C   -8.771730   -2.560575   -1.811856
 C   -5.171656   -1.488016    0.232398
 C   -4.215655   -2.359487    0.784214
 C   -3.114366   -1.755070    1.400673
 N   -2.934801   -0.439940    1.485297
 C   -3.909243    0.316567    0.943616
 N   -4.994260   -0.155674    0.330720
 N   -3.742950    1.674322    1.047218
 C   -2.627158    2.550584    0.813276
 C   -2.807400    3.958501    0.974143
 C   -1.700163    4.783065    0.721458
 C   -0.444958    4.303957    0.333596
 C   -0.271030    2.921649    0.200139
 C   -1.365606    2.070571    0.433673
 N    0.954990    2.281515   -0.179934
 C    2.225234    2.785225   -0.350224
 C    3.312061    1.821807   -0.788341
 C    3.086837    0.711332   -1.618827
 C    4.136927   -0.149342   -1.948988
 C    5.448334    0.079660   -1.490982
 C    5.668027    1.224333   -0.700618
 C    4.624575    2.089479   -0.364643
 C    6.588543   -0.889265   -1.811418
 N    6.829990   -2.042476   -0.927612
 C    5.877152   -3.175840   -0.941629
 C    4.764385   -3.098719    0.135683
 N    5.271013   -2.896641    1.514382
 C    5.742419   -4.091172    2.224774
 C    6.180722   -1.725166    1.519313
 C    7.305286   -1.792432    0.453079
 O    2.501892    3.957050   -0.147413
 C   -4.124000    4.591543    1.393172
 H   -8.271483   -4.637072   -1.482292
 H   -6.169959   -4.090732   -0.284361
 H   -7.106476    0.088672   -0.920198
 H   -9.702131   -2.759565   -2.341475
 H   -4.282572   -3.439855    0.758363
 H   -2.314322   -2.340266    1.853071
 H   -4.616720    2.100997    1.315541
 H   -1.807459    5.862073    0.824325
 H    0.384071    4.977746    0.157587
 H   -1.245511    1.001305    0.334410
 H    0.891411    1.274467   -0.226452
 H    2.086473    0.524551   -2.001263
 H    3.924976   -1.020374   -2.568801
 H    6.667833    1.438771   -0.324607
 H    4.809941    2.970541    0.244925
 H    6.426856   -1.291125   -2.821684
 H    7.526247   -0.316111   -1.844637
 H    5.416974   -3.312944   -2.016100
 H    6.664832   -4.399044   -0.671843
 H    4.032191   -4.214988    0.106122
 H    3.956833   -2.098313   -0.129041
 H    6.631801   -4.509803    1.740576
 H    4.957341   -4.855703    2.243388
 H    5.990318   -3.840606    3.262662
 H    6.702152   -1.595749    2.715786
 H    5.383448   -0.587242    1.286834
 H    8.192567   -2.918472    0.814959
 H    7.971645   -0.824344    0.488109
 H   -4.492370    4.210227    2.356294
 H   -4.903487    4.402709    0.649743
 H   -4.053358    5.676897    1.503134
}
memory 20GB
set_num_threads(6)
psi4_io.set_default_path("/scratch/bdw2292")
set freeze_core True
E, wfn = energy('mp2/6-311++G**',return_wfn=True)
oeprop(wfn,"WIBERG_LOWDIN_INDICES")
clean()
--------------------------------------------------------------------------

  Memory set to  18.626 GiB by Python driver.
  Threads set to 6 by Python driver.
    SCF Algorithm Type (re)set to DF.

*** tstart() called on node49.bme.utexas.edu
*** at Tue Apr 14 12:43:37 2020

   => Loading Basis Set <=

    Name: 6-311++G**
    Role: ORBITAL
    Keyword: BASIS
    atoms 1-4, 6-9, 11, 14-19, 21-28, 30-31, 33-35, 37 entry C          line   119 file /home/bdw2292/miniconda3/envs/p4env/share/psi4/basis/6-311ppgss.gbs 
    atoms 5, 10, 12-13, 20, 29, 32                     entry N          line   140 file /home/bdw2292/miniconda3/envs/p4env/share/psi4/basis/6-311ppgss.gbs 
    atoms 36                                           entry O          line   161 file /home/bdw2292/miniconda3/envs/p4env/share/psi4/basis/6-311ppgss.gbs 
    atoms 38-68                                        entry H          line    42 file /home/bdw2292/miniconda3/envs/p4env/share/psi4/basis/6-311ppgss.gbs 


         ---------------------------------------------------------
                                   SCF
               by Justin Turney, Rob Parrish, Andy Simmonett
                          and Daniel G. A. Smith
                              RHF Reference
                        6 Threads,  19073 MiB Core
         ---------------------------------------------------------

  ==> Geometry <==

    Molecular point group: c1
    Full point group: C1

    Geometry (in Angstrom), charge = 0, multiplicity = 1:

       Center              X                  Y                   Z               Mass       
    ------------   -----------------  -----------------  -----------------  -----------------
         C           -7.884125041198    -3.645975811494    -1.316104137747    12.000000000000
         C           -6.699409041198    -3.321384811494    -0.643113137747    12.000000000000
         C           -6.336896041198    -1.971333811494    -0.463606137747    12.000000000000
         C           -7.232764041198    -1.014185811494    -1.000473137747    12.000000000000
         N           -8.369954041198    -1.307368811494    -1.645558137747    14.003074004430
         C           -8.682611041198    -2.602896811494    -1.796091137747    12.000000000000
         C           -5.082537041198    -1.530337811494     0.248162862253    12.000000000000
         C           -4.126536041198    -2.401808811494     0.799978862253    12.000000000000
         C           -3.025247041198    -1.797391811494     1.416437862253    12.000000000000
         N           -2.845682041198    -0.482261811494     1.501061862253    14.003074004430
         C           -3.820124041198     0.274245188506     0.959380862253    12.000000000000
         N           -4.905141041198    -0.197995811494     0.346484862253    14.003074004430
         N           -3.653831041198     1.632000188506     1.062982862253    14.003074004430
         C           -2.538039041198     2.508262188506     0.829040862253    12.000000000000
         C           -2.718281041198     3.916179188506     0.989907862253    12.000000000000
         C           -1.611044041198     4.740743188506     0.737222862253    12.000000000000
         C           -0.355839041198     4.261635188506     0.349360862253    12.000000000000
         C           -0.181911041198     2.879327188506     0.215903862253    12.000000000000
         C           -1.276487041198     2.028249188506     0.449437862253    12.000000000000
         N            1.044108958802     2.239193188506    -0.164169137747    14.003074004430
         C            2.314352958802     2.742903188506    -0.334459137747    12.000000000000
         C            3.401179958802     1.779485188506    -0.772576137747    12.000000000000
         C            3.175955958802     0.669010188506    -1.603062137747    12.000000000000
         C            4.226045958802    -0.191663811494    -1.933223137747    12.000000000000
         C            5.537452958802     0.037338188506    -1.475217137747    12.000000000000
         C            5.757145958802     1.182011188506    -0.684853137747    12.000000000000
         C            4.713693958802     2.047157188506    -0.348878137747    12.000000000000
         C            6.677661958802    -0.931586811494    -1.795653137747    12.000000000000
         N            6.919108958802    -2.084797811494    -0.911847137747    14.003074004430
         C            5.966270958802    -3.218161811494    -0.925864137747    12.000000000000
         C            4.853503958802    -3.141040811494     0.151447862253    12.000000000000
         N            5.360131958802    -2.938962811494     1.530146862253    14.003074004430
         C            5.831537958802    -4.133493811494     2.240538862253    12.000000000000
         C            6.269840958802    -1.767487811494     1.535077862253    12.000000000000
         C            7.394404958802    -1.834753811494     0.468843862253    12.000000000000
         O            2.591010958802     3.914728188506    -0.131648137747    15.994914619570
         C           -4.034881041198     4.549221188506     1.408936862253    12.000000000000
         H           -8.182364041198    -4.679393811494    -1.466527137747     1.007825032230
         H           -6.080840041198    -4.133053811494    -0.268596137747     1.007825032230
         H           -7.017357041198     0.046350188506    -0.904433137747     1.007825032230
         H           -9.613012041198    -2.801886811494    -2.325710137747     1.007825032230
         H           -4.193453041198    -3.482176811494     0.774127862253     1.007825032230
         H           -2.225203041198    -2.382587811494     1.868835862253     1.007825032230
         H           -4.527601041198     2.058675188506     1.331305862253     1.007825032230
         H           -1.718340041198     5.819751188506     0.840089862253     1.007825032230
         H            0.473189958802     4.935424188506     0.173351862253     1.007825032230
         H           -1.156392041198     0.958983188506     0.350174862253     1.007825032230
         H            0.980529958802     1.232145188506    -0.210687137747     1.007825032230
         H            2.175591958802     0.482229188506    -1.985498137747     1.007825032230
         H            4.014094958802    -1.062695811494    -2.553036137747     1.007825032230
         H            6.756951958802     1.396449188506    -0.308842137747     1.007825032230
         H            4.899059958802     2.928219188506     0.260689862253     1.007825032230
         H            6.515974958802    -1.333446811494    -2.805919137747     1.007825032230
         H            7.615365958802    -0.358432811494    -1.828872137747     1.007825032230
         H            5.506092958802    -3.355265811494    -2.000335137747     1.007825032230
         H            6.753950958802    -4.441365811494    -0.656078137747     1.007825032230
         H            4.121309958802    -4.257309811494     0.121886862253     1.007825032230
         H            4.045951958802    -2.140634811494    -0.113276137747     1.007825032230
         H            6.720919958802    -4.552124811494     1.756340862253     1.007825032230
         H            5.046459958802    -4.898024811494     2.259152862253     1.007825032230
         H            6.079436958802    -3.882927811494     3.278426862253     1.007825032230
         H            6.791270958802    -1.638070811494     2.731550862253     1.007825032230
         H            5.472566958802    -0.629563811494     1.302598862253     1.007825032230
         H            8.281685958802    -2.960793811494     0.830723862253     1.007825032230
         H            8.060763958802    -0.866665811494     0.503873862253     1.007825032230
         H           -4.403251041198     4.167905188506     2.372058862253     1.007825032230
         H           -4.814368041198     4.360387188506     0.665507862253     1.007825032230
         H           -3.964239041198     5.634575188506     1.518898862253     1.007825032230

  Running in c1 symmetry.

  Rotational constants: A =      0.00422  B =      0.00127  C =      0.00105 [cm^-1]
  Rotational constants: A =    126.46049  B =     38.01936  C =     31.54655 [MHz]
  Nuclear repulsion = 3540.288964112008671

  Charge       = 0
  Multiplicity = 1
  Electrons    = 262
  Nalpha       = 131
  Nbeta        = 131

  ==> Algorithm <==

  SCF Algorithm Type is DF.
  DIIS enabled.
  MOM disabled.
  Fractional occupation disabled.
  Guess Type is SAD.
  Energy threshold   = 1.00e-08
  Density threshold  = 1.00e-08
  Integral threshold = 0.00e+00

  ==> Primary Basis <==

  Basis Set: 6-311++G**
    Blend: 6-311++G**
    Number of shells: 525
    Number of basis function: 1031
    Number of Cartesian functions: 1068
    Spherical Harmonics?: true
    Max angular momentum: 2

   => Loading Basis Set <=

    Name: (6-311++G** AUX)
    Role: JKFIT
    Keyword: DF_BASIS_SCF
    atoms 1-4, 6-9, 11, 14-19, 21-28, 30-31, 33-35, 37 entry C          line   162 file /home/bdw2292/miniconda3/envs/p4env/share/psi4/basis/aug-cc-pvtz-jkfit.gbs 
    atoms 5, 10, 12-13, 20, 29, 32                     entry N          line   224 file /home/bdw2292/miniconda3/envs/p4env/share/psi4/basis/aug-cc-pvtz-jkfit.gbs 
    atoms 36                                           entry O          line   286 file /home/bdw2292/miniconda3/envs/p4env/share/psi4/basis/aug-cc-pvtz-jkfit.gbs 
    atoms 38-68                                        entry H          line    70 file /home/bdw2292/miniconda3/envs/p4env/share/psi4/basis/aug-cc-pvtz-jkfit.gbs 

  ==> Pre-Iterations <==

   -------------------------------------------------------
    Irrep   Nso     Nmo     Nalpha   Nbeta   Ndocc  Nsocc
   -------------------------------------------------------
     A       1031    1031       0       0       0       0
   -------------------------------------------------------
    Total    1031    1031     131     131     131       0
   -------------------------------------------------------

  ==> Integral Setup <==

  ==> DiskDFJK: Density-Fitted J/K Matrices <==

    J tasked:                  Yes
    K tasked:                  Yes
    wK tasked:                  No
    OpenMP threads:              6
    Integrals threads:           6
    Memory [MiB]:            14305
    Algorithm:                Core
    Integral Cache:           NONE
    Schwarz Cutoff:          1E-12
    Fitting Condition:       1E-10

   => Auxiliary Basis Set <=

  Basis Set: (6-311++G** AUX)
    Blend: AUG-CC-PVTZ-JKFIT
    Number of shells: 1544
    Number of basis function: 5274
    Number of Cartesian functions: 6552
    Spherical Harmonics?: true
    Max angular momentum: 4

  Minimum eigenvalue in the overlap matrix is 1.3368655069E-07.
  Using Symmetric Orthogonalization.

  SCF Guess: Superposition of Atomic Densities via on-the-fly atomic UHF.

  ==> Iterations <==

                           Total Energy        Delta E     RMS |[F,P]|

   @DF-RHF iter SAD: -1571.16736078305235   -1.57117e+03   0.00000e+00 
   @DF-RHF iter   1: -1571.37091979038632   -2.03559e-01   1.21691e-03 DIIS
   @DF-RHF iter   2: -1572.13650373644964   -7.65584e-01   6.43665e-04 DIIS
   @DF-RHF iter   3: -1572.33092349573212   -1.94420e-01   1.65482e-04 DIIS
   @DF-RHF iter   4: -1572.34797812387387   -1.70546e-02   6.52725e-05 DIIS
   @DF-RHF iter   5: -1572.35053541368416   -2.55729e-03   1.31373e-05 DIIS
   @DF-RHF iter   6: -1572.35068068471332   -1.45271e-04   5.72851e-06 DIIS
   @DF-RHF iter   7: -1572.35071300091727   -3.23162e-05   1.85994e-06 DIIS
   @DF-RHF iter   8: -1572.35071813329523   -5.13238e-06   7.32512e-07 DIIS
   @DF-RHF iter   9: -1572.35071897872217   -8.45427e-07   2.89569e-07 DIIS
   @DF-RHF iter  10: -1572.35071914934247   -1.70620e-07   1.29995e-07 DIIS
   @DF-RHF iter  11: -1572.35071918260792   -3.32655e-08   6.24174e-08 DIIS
   @DF-RHF iter  12: -1572.35071919107577   -8.46785e-09   2.72407e-08 DIIS
   @DF-RHF iter  13: -1572.35071919307120   -1.99543e-09   1.12114e-08 DIIS
   @DF-RHF iter  14: -1572.35071919331381   -2.42608e-10   5.36175e-09 DIIS
  Energy and wave function converged.


  ==> Post-Iterations <==

    Orbital Energies [Eh]
    ---------------------

    Doubly Occupied:                                                      

       1A    -20.524516     2A    -15.605188     3A    -15.589438  
       4A    -15.577413     5A    -15.575277     6A    -15.572717  
       7A    -15.571917     8A    -15.558567     9A    -11.368467  
      10A    -11.368414    11A    -11.333184    12A    -11.313541  
      13A    -11.313138    14A    -11.312531    15A    -11.310612  
      16A    -11.308683    17A    -11.302219    18A    -11.293821  
      19A    -11.293814    20A    -11.291751    21A    -11.283971  
      22A    -11.282169    23A    -11.274232    24A    -11.264326  
      25A    -11.263117    26A    -11.263042    27A    -11.259182  
      28A    -11.256210    29A    -11.255080    30A    -11.254469  
      31A    -11.251238    32A    -11.249126    33A    -11.243071  
      34A    -11.237720    35A    -11.231962    36A    -11.231756  
      37A    -11.220947    38A     -1.390184    39A     -1.345288  
      40A     -1.269932    41A     -1.251588    42A     -1.248577  
      43A     -1.240372    44A     -1.209540    45A     -1.203000  
      46A     -1.168132    47A     -1.139310    48A     -1.110542  
      49A     -1.072732    50A     -1.063205    51A     -1.043608  
      52A     -1.037223    53A     -1.030789    54A     -1.005918  
      55A     -0.995012    56A     -0.980406    57A     -0.946845  
      58A     -0.930615    59A     -0.921373    60A     -0.901592  
      61A     -0.868886    62A     -0.866214    63A     -0.855378  
      64A     -0.848047    65A     -0.835329    66A     -0.828774  
      67A     -0.823087    68A     -0.808231    69A     -0.778404  
      70A     -0.752979    71A     -0.738629    72A     -0.733329  
      73A     -0.717693    74A     -0.708090    75A     -0.701199  
      76A     -0.679667    77A     -0.675875    78A     -0.666194  
      79A     -0.662216    80A     -0.653242    81A     -0.651726  
      82A     -0.646085    83A     -0.637939    84A     -0.636172  
      85A     -0.623711    86A     -0.617950    87A     -0.609300  
      88A     -0.608629    89A     -0.606521    90A     -0.602008  
      91A     -0.599466    92A     -0.593050    93A     -0.588612  
      94A     -0.585862    95A     -0.583366    96A     -0.581702  
      97A     -0.579788    98A     -0.578018    99A     -0.567441  
     100A     -0.551492   101A     -0.546466   102A     -0.538787  
     103A     -0.534080   104A     -0.529862   105A     -0.528201  
     106A     -0.523195   107A     -0.512558   108A     -0.510080  
     109A     -0.509202   110A     -0.507615   111A     -0.506281  
     112A     -0.500476   113A     -0.485896   114A     -0.476505  
     115A     -0.457042   116A     -0.448345   117A     -0.439222  
     118A     -0.434697   119A     -0.430995   120A     -0.423708  
     121A     -0.413838   122A     -0.413412   123A     -0.396162  
     124A     -0.386022   125A     -0.375201   126A     -0.352188  
     127A     -0.348147   128A     -0.340356   129A     -0.318012  
     130A     -0.314254   131A     -0.287594  

    Virtual:                                                              

     132A      0.025895   133A      0.033775   134A      0.039536  
     135A      0.042450   136A      0.042813   137A      0.045110  
     138A      0.046461   139A      0.048897   140A      0.055313  
     141A      0.056589   142A      0.061599   143A      0.062729  
     144A      0.065589   145A      0.066042   146A      0.068201  
     147A      0.069314   148A      0.075263   149A      0.076106  
     150A      0.078299   151A      0.080651   152A      0.084145  
     153A      0.085380   154A      0.089296   155A      0.091007  
     156A      0.092856   157A      0.094443   158A      0.097602  
     159A      0.100767   160A      0.101859   161A      0.104415  
     162A      0.107181   163A      0.108373   164A      0.112121  
     165A      0.113204   166A      0.116945   167A      0.119267  
     168A      0.122567   169A      0.124574   170A      0.126429  
     171A      0.128266   172A      0.129501   173A      0.132736  
     174A      0.134323   175A      0.138460   176A      0.142468  
     177A      0.145699   178A      0.147845   179A      0.149871  
     180A      0.150975   181A      0.153287   182A      0.153529  
     183A      0.155698   184A      0.156747   185A      0.160436  
     186A      0.162018   187A      0.164231   188A      0.165523  
     189A      0.169949   190A      0.171464   191A      0.172137  
     192A      0.174253   193A      0.175192   194A      0.176930  
     195A      0.177865   196A      0.178859   197A      0.181595  
     198A      0.182471   199A      0.184874   200A      0.186459  
     201A      0.187430   202A      0.190776   203A      0.191169  
     204A      0.193410   205A      0.194081   206A      0.196006  
     207A      0.198003   208A      0.200408   209A      0.201644  
     210A      0.203225   211A      0.205564   212A      0.208258  
     213A      0.209546   214A      0.209803   215A      0.211793  
     216A      0.212423   217A      0.213543   218A      0.214022  
     219A      0.218243   220A      0.219581   221A      0.220772  
     222A      0.221623   223A      0.223995   224A      0.226160  
     225A      0.226869   226A      0.229188   227A      0.230581  
     228A      0.232834   229A      0.234462   230A      0.235948  
     231A      0.238294   232A      0.240701   233A      0.241986  
     234A      0.243685   235A      0.247657   236A      0.250657  
     237A      0.252394   238A      0.253191   239A      0.254107  
     240A      0.257747   241A      0.258499   242A      0.261937  
     243A      0.262804   244A      0.265807   245A      0.270788  
     246A      0.271580   247A      0.274423   248A      0.276511  
     249A      0.277567   250A      0.279376   251A      0.284441  
     252A      0.287316   253A      0.288495   254A      0.290147  
     255A      0.294109   256A      0.295688   257A      0.297694  
     258A      0.301256   259A      0.302962   260A      0.306524  
     261A      0.308093   262A      0.310970   263A      0.311943  
     264A      0.316692   265A      0.319508   266A      0.319809  
     267A      0.321994   268A      0.323760   269A      0.324859  
     270A      0.327456   271A      0.328662   272A      0.331156  
     273A      0.332428   274A      0.336897   275A      0.339863  
     276A      0.341737   277A      0.345563   278A      0.346619  
     279A      0.348714   280A      0.349651   281A      0.351683  
     282A      0.353820   283A      0.354802   284A      0.355239  
     285A      0.358564   286A      0.361013   287A      0.365924  
     288A      0.366740   289A      0.368797   290A      0.370011  
     291A      0.370568   292A      0.373136   293A      0.374297  
     294A      0.375584   295A      0.378767   296A      0.381140  
     297A      0.382342   298A      0.384959   299A      0.387144  
     300A      0.388542   301A      0.388905   302A      0.390954  
     303A      0.393207   304A      0.394329   305A      0.396635  
     306A      0.398507   307A      0.399802   308A      0.401088  
     309A      0.402010   310A      0.404983   311A      0.405978  
     312A      0.407523   313A      0.409656   314A      0.410185  
     315A      0.412614   316A      0.414602   317A      0.415470  
     318A      0.419237   319A      0.419964   320A      0.421449  
     321A      0.422993   322A      0.425749   323A      0.429149  
     324A      0.430627   325A      0.433362   326A      0.436622  
     327A      0.437216   328A      0.439713   329A      0.440413  
     330A      0.443256   331A      0.446335   332A      0.447990  
     333A      0.450592   334A      0.455055   335A      0.457389  
     336A      0.459279   337A      0.461640   338A      0.462871  
     339A      0.464317   340A      0.468921   341A      0.470027  
     342A      0.474017   343A      0.476351   344A      0.476731  
     345A      0.480410   346A      0.481722   347A      0.484332  
     348A      0.487194   349A      0.489860   350A      0.491927  
     351A      0.493473   352A      0.496880   353A      0.498238  
     354A      0.500341   355A      0.506090   356A      0.508061  
     357A      0.509494   358A      0.513704   359A      0.514187  
     360A      0.516898   361A      0.522328   362A      0.524364  
     363A      0.530643   364A      0.533432   365A      0.534704  
     366A      0.535112   367A      0.540583   368A      0.548573  
     369A      0.553791   370A      0.556513   371A      0.560865  
     372A      0.566269   373A      0.572205   374A      0.574102  
     375A      0.580397   376A      0.583983   377A      0.589521  
     378A      0.599090   379A      0.606515   380A      0.608597  
     381A      0.613361   382A      0.619788   383A      0.622924  
     384A      0.625680   385A      0.632928   386A      0.639773  
     387A      0.641519   388A      0.653630   389A      0.671158  
     390A      0.681257   391A      0.684890   392A      0.691071  
     393A      0.697334   394A      0.703018   395A      0.704521  
     396A      0.708346   397A      0.711261   398A      0.715466  
     399A      0.721561   400A      0.728750   401A      0.735981  
     402A      0.738871   403A      0.744646   404A      0.747642  
     405A      0.749424   406A      0.753259   407A      0.757339  
     408A      0.759207   409A      0.763465   410A      0.766857  
     411A      0.771748   412A      0.774704   413A      0.781994  
     414A      0.784869   415A      0.786868   416A      0.788685  
     417A      0.790151   418A      0.793216   419A      0.795111  
     420A      0.800821   421A      0.805044   422A      0.806695  
     423A      0.809996   424A      0.814252   425A      0.814876  
     426A      0.817965   427A      0.823387   428A      0.828096  
     429A      0.830490   430A      0.831337   431A      0.843782  
     432A      0.846407   433A      0.850217   434A      0.852584  
     435A      0.859275   436A      0.862441   437A      0.864317  
     438A      0.865999   439A      0.870336   440A      0.870463  
     441A      0.873537   442A      0.877490   443A      0.879250  
     444A      0.883346   445A      0.886015   446A      0.887791  
     447A      0.888448   448A      0.896283   449A      0.898901  
     450A      0.904550   451A      0.906740   452A      0.911219  
     453A      0.914396   454A      0.918848   455A      0.920739  
     456A      0.922603   457A      0.925455   458A      0.930109  
     459A      0.931807   460A      0.936768   461A      0.938571  
     462A      0.943310   463A      0.945845   464A      0.947438  
     465A      0.949583   466A      0.953046   467A      0.955618  
     468A      0.958853   469A      0.961639   470A      0.963550  
     471A      0.968686   472A      0.971802   473A      0.974194  
     474A      0.978478   475A      0.982005   476A      0.984266  
     477A      0.986688   478A      0.989728   479A      0.997370  
     480A      0.999841   481A      1.001931   482A      1.009979  
     483A      1.015060   484A      1.017056   485A      1.023482  
     486A      1.025307   487A      1.029954   488A      1.032452  
     489A      1.037270   490A      1.039941   491A      1.044290  
     492A      1.050588   493A      1.055310   494A      1.056422  
     495A      1.061960   496A      1.068983   497A      1.073697  
     498A      1.076013   499A      1.080107   500A      1.085520  
     501A      1.089462   502A      1.091012   503A      1.091386  
     504A      1.097477   505A      1.110861   506A      1.120955  
     507A      1.122248   508A      1.125127   509A      1.131966  
     510A      1.134288   511A      1.138904   512A      1.140975  
     513A      1.141750   514A      1.146309   515A      1.151731  
     516A      1.153537   517A      1.154913   518A      1.161834  
     519A      1.163362   520A      1.164476   521A      1.176134  
     522A      1.180350   523A      1.184464   524A      1.185291  
     525A      1.191805   526A      1.193254   527A      1.196415  
     528A      1.205655   529A      1.207656   530A      1.209939  
     531A      1.211986   532A      1.214734   533A      1.220016  
     534A      1.221731   535A      1.225902   536A      1.228955  
     537A      1.234602   538A      1.238490   539A      1.244512  
     540A      1.250123   541A      1.252199   542A      1.256534  
     543A      1.261089   544A      1.263541   545A      1.266937  
     546A      1.271603   547A      1.277425   548A      1.279184  
     549A      1.283596   550A      1.284603   551A      1.287462  
     552A      1.292274   553A      1.299204   554A      1.300779  
     555A      1.309684   556A      1.314331   557A      1.320397  
     558A      1.333016   559A      1.335458   560A      1.343864  
     561A      1.347253   562A      1.349691   563A      1.358471  
     564A      1.367648   565A      1.371562   566A      1.376678  
     567A      1.383461   568A      1.384323   569A      1.393361  
     570A      1.411817   571A      1.417921   572A      1.422644  
     573A      1.428526   574A      1.430245   575A      1.439189  
     576A      1.445114   577A      1.448867   578A      1.460235  
     579A      1.463583   580A      1.472152   581A      1.479117  
     582A      1.489581   583A      1.506229   584A      1.517902  
     585A      1.524064   586A      1.525797   587A      1.536239  
     588A      1.538225   589A      1.552845   590A      1.555485  
     591A      1.570443   592A      1.584287   593A      1.589571  
     594A      1.600953   595A      1.609410   596A      1.617355  
     597A      1.624004   598A      1.625502   599A      1.641641  
     600A      1.644140   601A      1.648299   602A      1.654692  
     603A      1.663099   604A      1.669017   605A      1.683170  
     606A      1.693561   607A      1.696926   608A      1.711466  
     609A      1.713326   610A      1.716875   611A      1.731901  
     612A      1.736346   613A      1.753575   614A      1.753738  
     615A      1.758922   616A      1.762475   617A      1.764372  
     618A      1.767474   619A      1.780359   620A      1.784950  
     621A      1.786527   622A      1.789541   623A      1.791688  
     624A      1.799814   625A      1.803598   626A      1.805404  
     627A      1.813353   628A      1.817898   629A      1.819695  
     630A      1.821326   631A      1.824073   632A      1.827421  
     633A      1.830275   634A      1.838096   635A      1.843753  
     636A      1.849656   637A      1.851768   638A      1.852953  
     639A      1.857133   640A      1.860760   641A      1.862620  
     642A      1.866342   643A      1.869197   644A      1.876317  
     645A      1.884026   646A      1.888841   647A      1.891963  
     648A      1.898539   649A      1.909042   650A      1.913426  
     651A      1.916413   652A      1.923082   653A      1.927193  
     654A      1.932665   655A      1.942810   656A      1.949775  
     657A      1.955557   658A      1.956601   659A      1.961893  
     660A      1.964876   661A      1.966809   662A      1.972918  
     663A      1.974850   664A      1.977821   665A      1.980585  
     666A      1.985824   667A      1.987072   668A      1.992306  
     669A      2.002549   670A      2.005016   671A      2.008672  
     672A      2.012394   673A      2.022541   674A      2.025693  
     675A      2.028854   676A      2.032960   677A      2.036020  
     678A      2.042673   679A      2.048412   680A      2.052575  
     681A      2.059147   682A      2.059874   683A      2.062431  
     684A      2.066127   685A      2.079172   686A      2.081925  
     687A      2.089230   688A      2.092379   689A      2.100650  
     690A      2.105018   691A      2.106325   692A      2.110077  
     693A      2.124856   694A      2.134945   695A      2.148151  
     696A      2.150155   697A      2.158112   698A      2.166061  
     699A      2.168700   700A      2.174306   701A      2.177579  
     702A      2.179587   703A      2.187099   704A      2.194373  
     705A      2.196257   706A      2.202785   707A      2.207340  
     708A      2.215819   709A      2.218714   710A      2.231458  
     711A      2.236043   712A      2.238433   713A      2.241034  
     714A      2.243716   715A      2.249443   716A      2.255912  
     717A      2.258364   718A      2.261660   719A      2.265282  
     720A      2.270719   721A      2.271854   722A      2.285298  
     723A      2.289087   724A      2.293694   725A      2.300366  
     726A      2.304754   727A      2.308428   728A      2.309044  
     729A      2.319849   730A      2.326916   731A      2.330154  
     732A      2.335002   733A      2.348164   734A      2.352665  
     735A      2.356532   736A      2.364789   737A      2.370052  
     738A      2.377416   739A      2.383553   740A      2.392969  
     741A      2.397121   742A      2.405572   743A      2.408298  
     744A      2.418539   745A      2.420211   746A      2.432430  
     747A      2.436978   748A      2.443248   749A      2.459224  
     750A      2.464874   751A      2.478391   752A      2.487667  
     753A      2.490994   754A      2.506191   755A      2.513537  
     756A      2.520266   757A      2.522080   758A      2.524943  
     759A      2.531899   760A      2.543063   761A      2.550512  
     762A      2.559554   763A      2.569026   764A      2.577182  
     765A      2.585348   766A      2.601253   767A      2.620459  
     768A      2.622374   769A      2.634510   770A      2.640356  
     771A      2.641521   772A      2.657168   773A      2.668301  
     774A      2.670416   775A      2.690116   776A      2.691738  
     777A      2.695497   778A      2.709954   779A      2.721213  
     780A      2.724553   781A      2.737806   782A      2.753700  
     783A      2.761434   784A      2.768489   785A      2.774943  
     786A      2.782534   787A      2.789538   788A      2.795118  
     789A      2.799980   790A      2.807727   791A      2.820616  
     792A      2.823001   793A      2.830367   794A      2.834609  
     795A      2.845326   796A      2.850515   797A      2.858781  
     798A      2.866306   799A      2.867190   800A      2.873613  
     801A      2.876612   802A      2.881633   803A      2.897228  
     804A      2.902389   805A      2.926498   806A      2.931437  
     807A      2.931620   808A      2.938623   809A      2.954338  
     810A      2.965610   811A      2.970241   812A      2.971582  
     813A      2.973426   814A      2.976618   815A      2.981559  
     816A      2.989835   817A      2.993733   818A      2.995044  
     819A      2.997523   820A      3.004397   821A      3.019224  
     822A      3.019580   823A      3.029056   824A      3.035699  
     825A      3.040723   826A      3.054075   827A      3.057664  
     828A      3.067698   829A      3.069861   830A      3.073524  
     831A      3.081131   832A      3.086723   833A      3.089804  
     834A      3.094312   835A      3.098714   836A      3.103204  
     837A      3.105431   838A      3.114430   839A      3.115584  
     840A      3.116147   841A      3.120572   842A      3.124722  
     843A      3.128729   844A      3.136783   845A      3.144805  
     846A      3.147364   847A      3.153436   848A      3.160994  
     849A      3.175141   850A      3.180650   851A      3.204940  
     852A      3.207830   853A      3.217603   854A      3.220659  
     855A      3.221521   856A      3.228115   857A      3.231351  
     858A      3.238755   859A      3.247500   860A      3.252435  
     861A      3.256255   862A      3.263728   863A      3.267426  
     864A      3.271297   865A      3.282057   866A      3.283516  
     867A      3.291236   868A      3.297634   869A      3.300621  
     870A      3.302462   871A      3.306645   872A      3.314210  
     873A      3.324646   874A      3.328625   875A      3.330051  
     876A      3.333756   877A      3.336809   878A      3.348128  
     879A      3.355670   880A      3.357813   881A      3.366640  
     882A      3.373802   883A      3.382054   884A      3.386510  
     885A      3.391407   886A      3.395717   887A      3.408374  
     888A      3.411884   889A      3.420126   890A      3.426923  
     891A      3.449301   892A      3.456261   893A      3.472939  
     894A      3.507175   895A      3.523209   896A      3.537024  
     897A      3.572611   898A      3.586851   899A      3.593794  
     900A      3.599313   901A      3.608345   902A      3.630213  
     903A      3.652309   904A      3.662438   905A      3.666686  
     906A      3.678123   907A      3.683046   908A      3.693516  
     909A      3.754689   910A      3.765614   911A      3.771244  
     912A      3.778405   913A      3.791129   914A      3.796503  
     915A      3.817473   916A      3.830032   917A      3.849195  
     918A      3.863908   919A      3.867177   920A      3.875612  
     921A      3.877856   922A      3.891383   923A      3.905887  
     924A      3.911378   925A      3.920008   926A      3.923055  
     927A      3.945203   928A      3.951455   929A      3.957236  
     930A      3.970871   931A      3.973578   932A      4.002169  
     933A      4.046903   934A      4.047970   935A      4.059337  
     936A      4.072774   937A      4.085397   938A      4.098927  
     939A      4.101660   940A      4.124172   941A      4.133960  
     942A      4.165659   943A      4.172778   944A      4.188857  
     945A      4.195086   946A      4.196551   947A      4.202909  
     948A      4.220243   949A      4.248658   950A      4.285205  
     951A      4.341850   952A      4.348168   953A      4.359678  
     954A      4.388781   955A      4.408559   956A      4.412720  
     957A      4.429024   958A      4.440394   959A      4.446665  
     960A      4.451478   961A      4.455266   962A      4.478275  
     963A      4.512213   964A      4.546009   965A      4.550390  
     966A      4.572765   967A      4.574569   968A      4.597654  
     969A      4.623755   970A      4.669403   971A      4.697341  
     972A      4.763384   973A      4.769591   974A      4.789878  
     975A      4.901528   976A      4.912427   977A      4.976486  
     978A      5.032807   979A      5.210777   980A      5.253447  
     981A      5.263894   982A      5.268005   983A      5.295747  
     984A      5.325180   985A      5.347311   986A      5.379477  
     987A      5.418182   988A      5.607183   989A      5.686992  
     990A      5.692248   991A      5.777861   992A      5.823356  
     993A      5.864230   994A      6.396431   995A     24.759737  
     996A     24.767592   997A     24.803784   998A     24.810820  
     999A     24.836157  1000A     24.848711  1001A     24.943501  
    1002A     24.946115  1003A     25.010414  1004A     25.033857  
    1005A     25.037546  1006A     25.072427  1007A     25.073693  
    1008A     25.092897  1009A     25.098141  1010A     25.107719  
    1011A     25.114759  1012A     25.133358  1013A     25.134830  
    1014A     25.140271  1015A     25.172839  1016A     25.198379  
    1017A     25.210365  1018A     25.234105  1019A     25.238129  
    1020A     25.249710  1021A     25.252184  1022A     25.313364  
    1023A     25.329198  1024A     36.942339  1025A     36.982595  
    1026A     37.008259  1027A     37.066026  1028A     37.078229  
    1029A     37.126605  1030A     37.158874  1031A     51.757431  

    Final Occupation by Irrep:
              A 
    DOCC [   131 ]

  @DF-RHF Final Energy: -1572.35071919331381

   => Energetics <=

    Nuclear Repulsion Energy =           3540.2889641120086708
    One-Electron Energy =               -9178.7767409953248716
    Two-Electron Energy =                4066.1370576900017113
    Total Energy =                      -1572.3507191933140348

Computation Completed


Properties will be evaluated at   0.000000,   0.000000,   0.000000 [a0]

Properties computed using the SCF density matrix

  Nuclear Dipole Moment: [e a0]
     X:    39.7937      Y:   -18.5671      Z:     5.1615

  Electronic Dipole Moment: [e a0]
     X:   -40.1732      Y:    16.0766      Z:    -5.1906

  Dipole Moment: [e a0]
     X:    -0.3794      Y:    -2.4905      Z:    -0.0291     Total:     2.5194

  Dipole Moment: [D]
     X:    -0.9644      Y:    -6.3303      Z:    -0.0739     Total:     6.4037


*** tstop() called on node49.bme.utexas.edu at Tue Apr 14 12:59:12 2020
Module time:
	user time   =    4762.76 seconds =      79.38 minutes
	system time =     127.11 seconds =       2.12 minutes
	total time  =        935 seconds =      15.58 minutes
Total time:
	user time   =    4762.76 seconds =      79.38 minutes
	system time =     127.11 seconds =       2.12 minutes
	total time  =        935 seconds =      15.58 minutes

*** tstart() called on node49.bme.utexas.edu
*** at Tue Apr 14 12:59:12 2020


  //>>>>>>>>>>>>>>>>>>>>>>>>>>>>>>>>>>>//
  //               DFMP2               //
  //<<<<<<<<<<<<<<<<<<<<<<<<<<<<<<<<<<<//

   => Loading Basis Set <=

    Name: (6-311++G** AUX)
    Role: RIFIT
    Keyword: DF_BASIS_MP2
    atoms 1-4, 6-9, 11, 14-19, 21-28, 30-31, 33-35, 37 entry C          line   148 file /home/bdw2292/miniconda3/envs/p4env/share/psi4/basis/aug-cc-pvtz-ri.gbs 
    atoms 5, 10, 12-13, 20, 29, 32                     entry N          line   206 file /home/bdw2292/miniconda3/envs/p4env/share/psi4/basis/aug-cc-pvtz-ri.gbs 
    atoms 36                                           entry O          line   264 file /home/bdw2292/miniconda3/envs/p4env/share/psi4/basis/aug-cc-pvtz-ri.gbs 
    atoms 38-68                                        entry H          line    30 file /home/bdw2292/miniconda3/envs/p4env/share/psi4/basis/aug-cc-pvtz-ri.gbs 

	 --------------------------------------------------------
	                          DF-MP2                         
	      2nd-Order Density-Fitted Moller-Plesset Theory     
	              RMP2 Wavefunction,   6 Threads             
	                                                         
	        Rob Parrish, Justin Turney, Andy Simmonett,      
	           Ed Hohenstein, and C. David Sherrill          
	 --------------------------------------------------------

   => Auxiliary Basis Set <=

  Basis Set: (6-311++G** AUX)
    Blend: AUG-CC-PVTZ-RI
    Number of shells: 1470
    Number of basis function: 5348
    Number of Cartesian functions: 6737
    Spherical Harmonics?: true
    Max angular momentum: 4

	 --------------------------------------------------------
	                 NBF =  1031, NAUX =  5348
	 --------------------------------------------------------
	   CLASS    FOCC     OCC    AOCC    AVIR     VIR    FVIR
	   PAIRS      37     131      94     900     900       0
	 --------------------------------------------------------

	-----------------------------------------------------------
	 ==================> DF-MP2 Energies <==================== 
	-----------------------------------------------------------
	 Reference Energy          =   -1572.3507191933138074 [Eh]
	 Singles Energy            =      -0.0000000000000000 [Eh]
	 Same-Spin Energy          =      -1.4689150033287046 [Eh]
	 Opposite-Spin Energy      =      -4.0450169112812082 [Eh]
	 Correlation Energy        =      -5.5139319146099126 [Eh]
	 Total Energy              =   -1577.8646511079236916 [Eh]
	-----------------------------------------------------------
	 ================> DF-SCS-MP2 Energies <================== 
	-----------------------------------------------------------
	 SCS Same-Spin Scale       =       0.3333333333333333 [-]
	 SCS Opposite-Spin Scale   =       1.2000000000000000 [-]
	 SCS Same-Spin Energy      =      -0.4896383344429015 [Eh]
	 SCS Opposite-Spin Energy  =      -4.8540202935374497 [Eh]
	 SCS Correlation Energy    =      -5.3436586279803509 [Eh]
	 SCS Total Energy          =   -1577.6943778212942107 [Eh]
	-----------------------------------------------------------


*** tstop() called on node49.bme.utexas.edu at Tue Apr 14 13:07:40 2020
Module time:
	user time   =    2765.49 seconds =      46.09 minutes
	system time =      30.17 seconds =       0.50 minutes
	total time  =        508 seconds =       8.47 minutes
Total time:
	user time   =    7528.26 seconds =     125.47 minutes
	system time =     157.28 seconds =       2.62 minutes
	total time  =       1443 seconds =      24.05 minutes


Properties will be evaluated at   0.000000,   0.000000,   0.000000 [a0]
OEProp: No title given, name of density matrix used for the following properties is 'SCF density'


  Wiberg Bond Indices using Orthogonal Lowdin Orbitals:

  Irrep: 1 Size: 68 x 68

                 1                   2                   3                   4                   5

    1     0.00000000000000     1.46862052957394     0.12529471076109     0.13988053696416     0.12464457281710
    2     1.46862052957394     0.00000000000000     1.39950407997576     0.12720109934753     0.12236362646986
    3     0.12529471076109     1.39950407997576     0.00000000000000     1.36398649159175     0.12016181295820
    4     0.13988053696416     0.12720109934753     1.36398649159175     0.00000000000000     1.66787619777993
    5     0.12464457281710     0.12236362646986     0.12016181295820     1.66787619777993     0.00000000000000
    6     1.46308769620831     0.13802529830625     0.13544958727797     0.15324906842318     1.63809629575482
    7     0.01487458418355     0.10350864830798     1.02486506250670     0.10462531850969     0.01407041440491
    8     0.00369996503374     0.04254760255665     0.09896135550652     0.02403585083861     0.00218491080967
    9     0.00037573681738     0.00487138675584     0.01486757114028     0.00417469104945     0.00069690143250
   10     0.00045935003925     0.00567399761155     0.00605998716125     0.00632928616841     0.00030490571850
   11     0.00092034385525     0.00341031982699     0.01824398158787     0.00712773529993     0.00046549599060
   12     0.00281705111810     0.02181259365884     0.12053138139317     0.06531925672194     0.00407879470750
   13     0.00013522706865     0.00043983741471     0.00183573397136     0.00088464544174     0.00007029634125
   14     0.00003028834247     0.00009773920285     0.00036245466849     0.00015327332129     0.00001518529096
   15     0.00001088114269     0.00002771075866     0.00006267338750     0.00005049338059     0.00000510718073
   16     0.00000142447925     0.00000445616243     0.00001268428419     0.00000664925139     0.00000109009401
   17     0.00000648602131     0.00001426692871     0.00001445284849     0.00001580352778     0.00000285721840
   18     0.00000182210835     0.00001011643535     0.00001369498411     0.00001377696010     0.00000670047768
   19     0.00001813279890     0.00007319878642     0.00013365913969     0.00009945997258     0.00001427570340
   20     0.00000020693495     0.00000087858339     0.00000168665472     0.00000139715087     0.00000021777349
   21     0.00000010495265     0.00000033353639     0.00000059402845     0.00000047979589     0.00000013056638
   22     0.00000002607699     0.00000004307022     0.00000025544504     0.00000011541460     0.00000004828531
   23     0.00000003800777     0.00000010681701     0.00000028535685     0.00000011311599     0.00000005735174
   24     0.00000000699414     0.00000002677638     0.00000006079951     0.00000002961919     0.00000003516951
   25     0.00000000735728     0.00000001442870     0.00000003515071     0.00000002371973     0.00000002060305
   26     0.00000000381638     0.00000001260863     0.00000002907597     0.00000002306061     0.00000002759519
   27     0.00000000937747     0.00000002764686     0.00000017210419     0.00000008180876     0.00000004236833
   28     0.00000000195333     0.00000000335057     0.00000000925433     0.00000000547787     0.00000000620541
   29     0.00000000219839     0.00000000568114     0.00000001032391     0.00000000286817     0.00000000099904
   30     0.00000000945845     0.00000001189310     0.00000001404818     0.00000000536247     0.00000000455649
   31     0.00000002084826     0.00000003450990     0.00000007660964     0.00000002899232     0.00000000853408
   32     0.00000000600752     0.00000001758835     0.00000002577283     0.00000000645098     0.00000000358053
   33     0.00000000504487     0.00000000770237     0.00000001464931     0.00000000262599     0.00000000118181
   34     0.00000000698433     0.00000001198549     0.00000001397628     0.00000000377435     0.00000000216101
   35     0.00000000265220     0.00000000424409     0.00000000670362     0.00000000297624     0.00000000184556
   36     0.00000008662953     0.00000015486733     0.00000037926453     0.00000018508560     0.00000007580894
   37     0.00000195081575     0.00000568813669     0.00001983172522     0.00002098549032     0.00000377758472
   38     0.88660294353504     0.07950215611007     0.01184460111319     0.00624356077660     0.01074246506469
   39     0.07790421808738     0.87067497172454     0.07285153931238     0.01160371865513     0.00394356562202
   40     0.00569441609245     0.01093454590749     0.07006499077475     0.85768564813690     0.08538032213829
   41     0.07720607101192     0.01192306109969     0.00609678073109     0.01571230153825     0.08775156185895
   42     0.00114624155163     0.01467717915097     0.01441047862102     0.00138789589343     0.00029461206884
   43     0.00004494228213     0.00028690165816     0.00145179460328     0.00032334382608     0.00007952848247
   44     0.00002860013265     0.00007576451092     0.00029259296966     0.00027011752976     0.00003139378042
   45     0.00000020121296     0.00000071903741     0.00000266299760     0.00000092550821     0.00000010048795
   46     0.00000025486800     0.00000085084459     0.00000176997816     0.00000103110301     0.00000014216017
   47     0.00000705987485     0.00005046269925     0.00006718792329     0.00005416107711     0.00000632494042
   48     0.00000019350846     0.00000127065887     0.00000158588282     0.00000133332505     0.00000015505480
   49     0.00000001091525     0.00000005114202     0.00000011337646     0.00000002211661     0.00000000848174
   50     0.00000000072514     0.00000000340607     0.00000000757482     0.00000000377049     0.00000000093496
   51     0.00000000062003     0.00000000116721     0.00000000235512     0.00000000086104     0.00000000125941
   52     0.00000000078818     0.00000000267590     0.00000000996036     0.00000000548513     0.00000000140478
   53     0.00000000035067     0.00000000081307     0.00000000572127     0.00000000039448     0.00000000075262
   54     0.00000000040059     0.00000000063061     0.00000000125649     0.00000000150286     0.00000000110306
   55     0.00000000072556     0.00000000301664     0.00000000500240     0.00000000137138     0.00000000144236
   56     0.00000000071756     0.00000000201526     0.00000000117933     0.00000000165825     0.00000000039190
   57     0.00000000661351     0.00000002381460     0.00000002273359     0.00000001785553     0.00000000357727
   58     0.00000000942295     0.00000011006862     0.00000018529173     0.00000008241363     0.00000000316074
   59     0.00000000125089     0.00000000129725     0.00000000483603     0.00000000032063     0.00000000015569
   60     0.00000000300509     0.00000000468289     0.00000000576641     0.00000000122554     0.00000000067760
   61     0.00000000025670     0.00000000080881     0.00000000161688     0.00000000026571     0.00000000018917
   62     0.00000000217072     0.00000000278407     0.00000000174853     0.00000000055043     0.00000000026973
   63     0.00000000314076     0.00000001011295     0.00000000660748     0.00000000253192     0.00000000421768
   64     0.00000000137257     0.00000000143873     0.00000000083254     0.00000000151355     0.00000000034362
   65     0.00000000017204     0.00000000036849     0.00000000094749     0.00000000036590     0.00000000055816
   66     0.00000071540896     0.00000130750116     0.00000357325808     0.00001236775069     0.00000051783497
   67     0.00000138010336     0.00000264627817     0.00000737604825     0.00000715152769     0.00000380110956
   68     0.00000011126689     0.00000032660811     0.00000095953540     0.00000073930243     0.00000028836862

                 6                   7                   8                   9                  10

    1     1.46308769620831     0.01487458418355     0.00369996503374     0.00037573681738     0.00045935003925
    2     0.13802529830625     0.10350864830798     0.04254760255665     0.00487138675584     0.00567399761155
    3     0.13544958727797     1.02486506250670     0.09896135550652     0.01486757114028     0.00605998716125
    4     0.15324906842318     0.10462531850969     0.02403585083861     0.00417469104945     0.00632928616841
    5     1.63809629575482     0.01407041440491     0.00218491080967     0.00069690143250     0.00030490571850
    6     0.00000000000000     0.00998671098920     0.00699639205999     0.00125107445248     0.00356353151324
    7     0.00998671098920     0.00000000000000     1.38415437954695     0.14529678399027     0.11423802227472
    8     0.00699639205999     1.38415437954695     0.00000000000000     1.44377003807386     0.12849662485259
    9     0.00125107445248     0.14529678399027     1.44377003807386     0.00000000000000     1.64777992017030
   10     0.00356353151324     0.11423802227472     0.12849662485259     1.64777992017030     0.00000000000000
   11     0.00086458228452     0.14448244411313     0.12314860265511     0.15321923694296     1.51847002768163
   12     0.00607413270948     1.53308347406803     0.12298076760168     0.11610099278315     0.11308570227088
   13     0.00006967885423     0.01983137987545     0.01583894240518     0.02135294763759     0.14591487373682
   14     0.00001571505022     0.00285846848286     0.00336503900901     0.00380330705568     0.03376062538480
   15     0.00000564606351     0.00063288090536     0.00110747110032     0.00069930253669     0.00365854813209
   16     0.00000097029302     0.00011813924569     0.00016845334346     0.00016912521720     0.00113881025689
   17     0.00000316870273     0.00023777749362     0.00088903659161     0.00034425239767     0.00161017621978
   18     0.00000665638247     0.00017225289327     0.00023824709474     0.00053391578076     0.00349824898939
   19     0.00003346259339     0.00138871427710     0.00254660312228     0.00636386419141     0.04306000515298
   20     0.00000024128931     0.00001456143095     0.00002195205402     0.00008157852604     0.00055607974319
   21     0.00000008635410     0.00000461942596     0.00000806193926     0.00001523387231     0.00007053563584
   22     0.00000001968671     0.00000125722517     0.00000174017132     0.00000569667510     0.00001109738640
   23     0.00000007546076     0.00000159185956     0.00000278536699     0.00001255862812     0.00001892456758
   24     0.00000002296025     0.00000037899536     0.00000057005741     0.00000329759856     0.00000159888668
   25     0.00000001579768     0.00000024503240     0.00000040552258     0.00000074632070     0.00000104830594
   26     0.00000001189805     0.00000018524556     0.00000020892494     0.00000047618594     0.00000078944432
   27     0.00000001346512     0.00000050317108     0.00000063528846     0.00000177602850     0.00000276558111
   28     0.00000000410371     0.00000004194927     0.00000005438953     0.00000026382412     0.00000016974700
   29     0.00000000130947     0.00000002413095     0.00000009963258     0.00000029350359     0.00000009174860
   30     0.00000000777055     0.00000006242835     0.00000015303262     0.00000098525703     0.00000016910744
   31     0.00000001734711     0.00000032160019     0.00000078047965     0.00000498160857     0.00000107569890
   32     0.00000000382733     0.00000011058980     0.00000019315352     0.00000130489448     0.00000012790000
   33     0.00000000150171     0.00000002824739     0.00000006302042     0.00000058985325     0.00000009138197
   34     0.00000000312645     0.00000004219417     0.00000009846307     0.00000056648030     0.00000018409414
   35     0.00000000181547     0.00000001895375     0.00000005434092     0.00000019857287     0.00000010921896
   36     0.00000006590463     0.00000277359956     0.00000701756090     0.00000900996415     0.00003931950299
   37     0.00000169284670     0.00011753919297     0.00015109920593     0.00017300287376     0.00084875475854
   38     0.08248825513104     0.00131432395632     0.00026330921691     0.00004144424164     0.00002864426921
   39     0.01166644917253     0.01614828088268     0.01548038570306     0.00121663729901     0.00042765980616
   40     0.01480231636572     0.01655055109211     0.00184816338986     0.00045052487264     0.00071071950410
   41     0.87987700194542     0.00055819688739     0.00027462440917     0.00005451000898     0.00010986086947
   42     0.00050974325264     0.07481657412782     0.87557910561986     0.08103902605439     0.01037608584759
   43     0.00004508473660     0.01173226669198     0.07558714467467     0.87507958411234     0.08990429226568
   44     0.00002798129699     0.00249979229112     0.00261168967084     0.00229888747278     0.01398663462338
   45     0.00000008107034     0.00001999202167     0.00001503938281     0.00002337624657     0.00007823060667
   46     0.00000036292466     0.00001370598436     0.00002921747497     0.00002651561785     0.00010769794770
   47     0.00003484004487     0.00071571106678     0.00084870185694     0.00399264192789     0.02484263228116
   48     0.00000071682667     0.00001556575235     0.00001116489371     0.00003789162840     0.00028531191651
   49     0.00000001181714     0.00000120052752     0.00000249192570     0.00000679691937     0.00000896001676
   50     0.00000000111338     0.00000003500129     0.00000016199689     0.00000075429332     0.00000027828311
   51     0.00000000137688     0.00000001658612     0.00000001521114     0.00000010441507     0.00000007597128
   52     0.00000000072315     0.00000004435643     0.00000006177366     0.00000048537003     0.00000080637860
   53     0.00000000055815     0.00000001041245     0.00000001029961     0.00000004326562     0.00000003104935
   54     0.00000000055425     0.00000000755838     0.00000000894604     0.00000003100913     0.00000002269639
   55     0.00000000105054     0.00000000592317     0.00000001215301     0.00000005000897     0.00000005229874
   56     0.00000000056841     0.00000001064960     0.00000003769625     0.00000038134270     0.00000001780711
   57     0.00000001109053     0.00000015407654     0.00000051850917     0.00000232255633     0.00000044762948
   58     0.00000001569658     0.00000018392818     0.00000092979781     0.00000320391950     0.00000409718095
   59     0.00000000028291     0.00000000621796     0.00000001401880     0.00000004500164     0.00000001166101
   60     0.00000000115965     0.00000001405309     0.00000004397910     0.00000031937694     0.00000005407722
   61     0.00000000014347     0.00000000175695     0.00000000968309     0.00000003495864     0.00000001662661
   62     0.00000000020403     0.00000000269461     0.00000002854543     0.00000004601634     0.00000002196815
   63     0.00000000160274     0.00000002208108     0.00000005210736     0.00000014739073     0.00000024862317
   64     0.00000000025942     0.00000000262895     0.00000002713532     0.00000006100760     0.00000000924780
   65     0.00000000031546     0.00000000320630     0.00000000405584     0.00000003584311     0.00000001033613
   66     0.00000031946892     0.00002916239234     0.00008583345168     0.00003918293501     0.00023157307017
   67     0.00000120242554     0.00003927918413     0.00007815439876     0.00005609225059     0.00030706320645
   68     0.00000010134948     0.00000532807097     0.00001915724641     0.00001859136676     0.00007477692094

                11                  12                  13                  14                  15

    1     0.00092034385525     0.00281705111810     0.00013522706865     0.00003028834247     0.00001088114269
    2     0.00341031982699     0.02181259365884     0.00043983741471     0.00009773920285     0.00002771075866
    3     0.01824398158787     0.12053138139317     0.00183573397136     0.00036245466849     0.00006267338750
    4     0.00712773529993     0.06531925672194     0.00088464544174     0.00015327332129     0.00005049338059
    5     0.00046549599060     0.00407879470750     0.00007029634125     0.00001518529096     0.00000510718073
    6     0.00086458228452     0.00607413270948     0.00006967885423     0.00001571505022     0.00000564606351
    7     0.14448244411313     1.53308347406803     0.01983137987545     0.00285846848286     0.00063288090536
    8     0.12314860265511     0.12298076760168     0.01583894240518     0.00336503900901     0.00110747110032
    9     0.15321923694296     0.11610099278315     0.02135294763759     0.00380330705568     0.00069930253669
   10     1.51847002768163     0.11308570227088     0.14591487373682     0.03376062538480     0.00365854813209
   11     0.00000000000000     1.57108091001445     1.23612772989876     0.08429445068648     0.01673917605348
   12     1.57108091001445     0.00000000000000     0.15458049517598     0.01934327313308     0.00317250382990
   13     1.23612772989876     0.15458049517598     0.00000000000000     1.13420933522828     0.10915427475390
   14     0.08429445068648     0.01934327313308     1.13420933522828     0.00000000000000     1.31276376905814
   15     0.01673917605348     0.00317250382990     0.10915427475390     1.31276376905814     0.00000000000000
   16     0.00239086846409     0.00053053068779     0.01474207837241     0.12605479976756     1.44384194748592
   17     0.00326622971163     0.00124664253285     0.01426407071746     0.11868725642086     0.12529562171826
   18     0.00275976067241     0.00040040872743     0.01367250267585     0.12246891634479     0.11977477188499
   19     0.02901692810457     0.00499474694029     0.11438605687804     1.40049689298761     0.11844809912209
   20     0.00036486009917     0.00004935231421     0.00134959359510     0.01477346489962     0.01091360642779
   21     0.00006793141073     0.00001642722404     0.00031617514639     0.00274876982604     0.00582552903398
   22     0.00001260429101     0.00000380863964     0.00005814407431     0.00036383320798     0.00028851379799
   23     0.00000809424119     0.00000249342738     0.00001181238789     0.00011714564502     0.00039314444595
   24     0.00000086451457     0.00000072933344     0.00000189729293     0.00001199200506     0.00004092965169
   25     0.00000083482200     0.00000051113977     0.00000124207683     0.00002481969217     0.00018728430631
   26     0.00000060902353     0.00000036546083     0.00000279964766     0.00001900204960     0.00003076656213
   27     0.00000330047602     0.00000145401487     0.00001247787967     0.00009700040574     0.00031357750638
   28     0.00000014391543     0.00000008822060     0.00000019810677     0.00000247422412     0.00001395013968
   29     0.00000010239868     0.00000003037800     0.00000007994408     0.00000146718948     0.00001010982393
   30     0.00000008106730     0.00000009249834     0.00000006326876     0.00000039441341     0.00000153797163
   31     0.00000037557017     0.00000024669099     0.00000017673602     0.00000069843477     0.00000057313338
   32     0.00000015739509     0.00000003893615     0.00000004135895     0.00000047151875     0.00000033577480
   33     0.00000006413229     0.00000001362356     0.00000002399339     0.00000017677598     0.00000011303179
   34     0.00000012419490     0.00000003006863     0.00000006840820     0.00000064783464     0.00000068938571
   35     0.00000007300884     0.00000002446845     0.00000006187584     0.00000051348198     0.00000145050767
   36     0.00004390527959     0.00001395362610     0.00018163131351     0.00106243608323     0.00346677859091
   37     0.00368740278478     0.00064791553758     0.03877422797604     0.09602336825692     1.05840347897780
   38     0.00009543032495     0.00032513956279     0.00001817446946     0.00000438343161     0.00000099618483
   39     0.00029335407253     0.00112202999721     0.00006861890230     0.00001864052457     0.00000277716580
   40     0.00298848843726     0.02842047609010     0.00050007910169     0.00006827457875     0.00003388487153
   41     0.00004524331790     0.00025853662366     0.00000607774294     0.00000185859688     0.00000035196976
   42     0.00605490402578     0.01057108582349     0.00082884656445     0.00013886989731     0.00005020560131
   43     0.01569451737016     0.00401972177348     0.00131150906897     0.00035197383585     0.00006759336410
   44     0.07545807624617     0.02356482358101     0.93646588500256     0.06047940886439     0.01580457752276
   45     0.00036860984016     0.00005570322292     0.00114124757191     0.01140485748637     0.07500760938846
   46     0.00013751571948     0.00004920561628     0.00059999504585     0.00525822512006     0.01059190858980
   47     0.01101485630697     0.00095646427653     0.01646263853216     0.07475909805471     0.01002944517925
   48     0.00011963307451     0.00001460147250     0.00017183718816     0.00202210721658     0.00112093529056
   49     0.00000430554440     0.00000111803157     0.00000525824825     0.00003584913597     0.00011523417909
   50     0.00000012729246     0.00000003111372     0.00000028468526     0.00000159574114     0.00000171667481
   51     0.00000011611573     0.00000003048900     0.00000056563062     0.00000302987921     0.00000190464290
   52     0.00000078219810     0.00000011946330     0.00000219289634     0.00001458101942     0.00001969871806
   53     0.00000002417628     0.00000001096525     0.00000003997099     0.00000041225121     0.00000155771058
   54     0.00000002834413     0.00000001559665     0.00000003672412     0.00000039466449     0.00000226182965
   55     0.00000001269227     0.00000000769109     0.00000001944629     0.00000007673064     0.00000017460559
   56     0.00000001893768     0.00000000736695     0.00000000914693     0.00000007380086     0.00000038692767
   57     0.00000019059516     0.00000018728009     0.00000003505685     0.00000005927482     0.00000014040924
   58     0.00000055062313     0.00000034423883     0.00000049406717     0.00000080214511     0.00000105286568
   59     0.00000001136601     0.00000000124118     0.00000000542961     0.00000004572301     0.00000001918265
   60     0.00000003077468     0.00000001953139     0.00000000676519     0.00000001289545     0.00000000952493
   61     0.00000000430389     0.00000000171379     0.00000000154275     0.00000001111534     0.00000001657827
   62     0.00000001194956     0.00000000295562     0.00000000808443     0.00000006000689     0.00000014213644
   63     0.00000010619658     0.00000002800266     0.00000004650158     0.00000055688654     0.00000134098711
   64     0.00000002502165     0.00000001012039     0.00000001090785     0.00000010969901     0.00000044358805
   65     0.00000000681525     0.00000000304819     0.00000001312614     0.00000007741452     0.00000010882939
   66     0.00087422780459     0.00027714708708     0.01060743198759     0.01625644210550     0.05703843817378
   67     0.00082926669554     0.00025288795780     0.00959195602337     0.01642586395345     0.05866514815044
   68     0.00024857863991     0.00003733592033     0.00206329254448     0.00884233321352     0.05975036747756

                16                  17                  18                  19                  20

    1     0.00000142447925     0.00000648602131     0.00000182210835     0.00001813279890     0.00000020693495
    2     0.00000445616243     0.00001426692871     0.00001011643535     0.00007319878642     0.00000087858339
    3     0.00001268428419     0.00001445284849     0.00001369498411     0.00013365913969     0.00000168665472
    4     0.00000664925139     0.00001580352778     0.00001377696010     0.00009945997258     0.00000139715087
    5     0.00000109009401     0.00000285721840     0.00000670047768     0.00001427570340     0.00000021777349
    6     0.00000097029302     0.00000316870273     0.00000665638247     0.00003346259339     0.00000024128931
    7     0.00011813924569     0.00023777749362     0.00017225289327     0.00138871427710     0.00001456143095
    8     0.00016845334346     0.00088903659161     0.00023824709474     0.00254660312228     0.00002195205402
    9     0.00016912521720     0.00034425239767     0.00053391578076     0.00636386419141     0.00008157852604
   10     0.00113881025689     0.00161017621978     0.00349824898939     0.04306000515298     0.00055607974319
   11     0.00239086846409     0.00326622971163     0.00275976067241     0.02901692810457     0.00036486009917
   12     0.00053053068779     0.00124664253285     0.00040040872743     0.00499474694029     0.00004935231421
   13     0.01474207837241     0.01426407071746     0.01367250267585     0.11438605687804     0.00134959359510
   14     0.12605479976756     0.11868725642086     0.12246891634479     1.40049689298761     0.01477346489962
   15     1.44384194748592     0.12529562171826     0.11977477188499     0.11844809912209     0.01091360642779
   16     0.00000000000000     1.44492709154585     0.13274830278362     0.12447136735888     0.01373038858871
   17     1.44492709154585     0.00000000000000     1.39819957345495     0.12136449141818     0.10411133034587
   18     0.13274830278362     1.39819957345495     0.00000000000000     1.36633529573381     1.12461324944865
   19     0.12447136735888     0.12136449141818     1.36633529573381     0.00000000000000     0.12231171829826
   20     0.01373038858871     0.10411133034587     1.12461324944865     0.12231171829826     0.00000000000000
   21     0.00286124549097     0.03213661582149     0.08602105782262     0.02220538570009     1.31565490343574
   22     0.00035916209320     0.00330053658985     0.01452457877533     0.00200869572197     0.10311564734244
   23     0.00014619091783     0.00126491787621     0.00359431066562     0.00103072356898     0.04148869022708
   24     0.00002299127641     0.00016783441488     0.00040117935228     0.00012464047469     0.00357915367194
   25     0.00002956199877     0.00029117342062     0.00039536349350     0.00024460242969     0.00348973848731
   26     0.00002039442335     0.00013605308855     0.00048789095420     0.00010967946236     0.00245153803400
   27     0.00010600227908     0.00092127664577     0.00227974951174     0.00065827988102     0.01784594305117
   28     0.00000278367119     0.00002532070084     0.00003808699146     0.00001914106613     0.00027636195225
   29     0.00000163700607     0.00001426672779     0.00001995078094     0.00001225258117     0.00016393375335
   30     0.00000041916543     0.00000275354937     0.00000419196845     0.00000279411561     0.00003025390461
   31     0.00000043062978     0.00000273879632     0.00000397225088     0.00000318228961     0.00003383168612
   32     0.00000013270605     0.00000084568265     0.00000232779243     0.00000099840814     0.00000885313517
   33     0.00000007202471     0.00000043503360     0.00000054305358     0.00000037375600     0.00000195931430
   34     0.00000041023310     0.00000234072514     0.00000523219654     0.00000285449901     0.00003285171340
   35     0.00000060912531     0.00000364998022     0.00000571419969     0.00000184764323     0.00003457781815
   36     0.00377659554119     0.05152828436777     0.03189226094396     0.00530805859701     0.19168255495181
   37     0.11575622009433     0.01451384401093     0.00738420523237     0.01389593562248     0.00070359428862
   38     0.00000013698833     0.00000031429450     0.00000016964198     0.00000157928061     0.00000001985046
   39     0.00000061801266     0.00000069626381     0.00000139699944     0.00001159302176     0.00000013003838
   40     0.00000626069195     0.00000671582359     0.00000373472544     0.00003359880765     0.00000059172441
   41     0.00000006212991     0.00000008830653     0.00000019615626     0.00000136131284     0.00000001494757
   42     0.00000875841066     0.00003475111227     0.00001618129951     0.00012856348076     0.00000271320904
   43     0.00001797719911     0.00002718637789     0.00004903418180     0.00042303778220     0.00000819100280
   44     0.00162918762368     0.00124973361875     0.00133225027596     0.01099973365082     0.00025181451385
   45     0.87103258866946     0.07905274144645     0.01170436331579     0.00555220841933     0.00102675105956
   46     0.07751458989556     0.85864933495664     0.07516541067545     0.01121479778728     0.01485752488131
   47     0.00566967105542     0.01060308525455     0.07205277537527     0.84684202240600     0.02308009290672
   48     0.00139661994507     0.01023390522068     0.06241147214196     0.02108720941175     0.93886262757853
   49     0.00005388276582     0.00038173138289     0.00134479674601     0.00042125362823     0.01503785746862
   50     0.00000231896226     0.00001432744224     0.00003230138797     0.00001106631738     0.00021439588098
   51     0.00000247127691     0.00001611930013     0.00006694002992     0.00001687978383     0.00028168747870
   52     0.00002764057269     0.00019362606761     0.00025517025666     0.00007258545717     0.00165767226299
   53     0.00000048088850     0.00000359942172     0.00000649564913     0.00000272290401     0.00003494766851
   54     0.00000047336053     0.00000449447663     0.00000690026402     0.00000352324010     0.00005295366058
   55     0.00000006901641     0.00000038624721     0.00000070387536     0.00000034472975     0.00000494985998
   56     0.00000009427946     0.00000056310259     0.00000063070396     0.00000062496496     0.00000665210717
   57     0.00000003693534     0.00000020696391     0.00000022513217     0.00000035712739     0.00000202635934
   58     0.00000073192181     0.00000489180146     0.00000647487507     0.00000452805243     0.00003752970580
   59     0.00000001881498     0.00000008375897     0.00000008571956     0.00000008742678     0.00000035611222
   60     0.00000000963952     0.00000004845897     0.00000008211496     0.00000002896860     0.00000031681697
   61     0.00000001366678     0.00000005493037     0.00000009063846     0.00000004252308     0.00000031326155
   62     0.00000004010955     0.00000026024932     0.00000033878684     0.00000024161040     0.00000233167035
   63     0.00000043661955     0.00000393844631     0.00000686272626     0.00000418704192     0.00003684859099
   64     0.00000011248163     0.00000086259090     0.00000074393240     0.00000067518100     0.00000687171983
   65     0.00000009464828     0.00000050571850     0.00000152168782     0.00000040927870     0.00000857309641
   66     0.01462362877622     0.00127961462944     0.00273573100158     0.00119550709289     0.00032286533707
   67     0.01546871670464     0.00127661625673     0.00299661565800     0.00122826778771     0.00034771733135
   68     0.02393283106921     0.00192422855860     0.00055663375622     0.00107398563525     0.00008352340968

                21                  22                  23                  24                  25

    1     0.00000010495265     0.00000002607699     0.00000003800777     0.00000000699414     0.00000000735728
    2     0.00000033353639     0.00000004307022     0.00000010681701     0.00000002677638     0.00000001442870
    3     0.00000059402845     0.00000025544504     0.00000028535685     0.00000006079951     0.00000003515071
    4     0.00000047979589     0.00000011541460     0.00000011311599     0.00000002961919     0.00000002371973
    5     0.00000013056638     0.00000004828531     0.00000005735174     0.00000003516951     0.00000002060305
    6     0.00000008635410     0.00000001968671     0.00000007546076     0.00000002296025     0.00000001579768
    7     0.00000461942596     0.00000125722517     0.00000159185956     0.00000037899536     0.00000024503240
    8     0.00000806193926     0.00000174017132     0.00000278536699     0.00000057005741     0.00000040552258
    9     0.00001523387231     0.00000569667510     0.00001255862812     0.00000329759856     0.00000074632070
   10     0.00007053563584     0.00001109738640     0.00001892456758     0.00000159888668     0.00000104830594
   11     0.00006793141073     0.00001260429101     0.00000809424119     0.00000086451457     0.00000083482200
   12     0.00001642722404     0.00000380863964     0.00000249342738     0.00000072933344     0.00000051113977
   13     0.00031617514639     0.00005814407431     0.00001181238789     0.00000189729293     0.00000124207683
   14     0.00274876982604     0.00036383320798     0.00011714564502     0.00001199200506     0.00002481969217
   15     0.00582552903398     0.00028851379799     0.00039314444595     0.00004092965169     0.00018728430631
   16     0.00286124549097     0.00035916209320     0.00014619091783     0.00002299127641     0.00002956199877
   17     0.03213661582149     0.00330053658985     0.00126491787621     0.00016783441488     0.00029117342062
   18     0.08602105782262     0.01452457877533     0.00359431066562     0.00040117935228     0.00039536349350
   19     0.02220538570009     0.00200869572197     0.00103072356898     0.00012464047469     0.00024460242969
   20     1.31565490343574     0.10311564734244     0.04148869022708     0.00357915367194     0.00348973848731
   21     0.00000000000000     0.97319028577899     0.10429446432929     0.01445112769114     0.01102333363902
   22     0.97319028577899     0.00000000000000     1.40226091185768     0.12767669261697     0.12428911576252
   23     0.10429446432929     1.40226091185768     0.00000000000000     1.46103662517428     0.12579734900134
   24     0.01445112769114     0.12767669261697     1.46103662517428     0.00000000000000     1.40238953273751
   25     0.01102333363902     0.12428911576252     0.12579734900134     1.40238953273751     0.00000000000000
   26     0.01480548237390     0.12709440497681     0.12950816728800     0.12544200608452     1.39710495026480
   27     0.11146677728505     1.38484275604978     0.12375557079412     0.13075104464076     0.12742174525990
   28     0.00072357773587     0.00910123616444     0.01445854178644     0.10825941729214     1.01586377773016
   29     0.00038364828428     0.00439028814441     0.00199886180217     0.02181700925230     0.08768834589105
   30     0.00008704468684     0.00096752068041     0.00183091118138     0.01503786456899     0.01999743763952
   31     0.00007586492894     0.00145128824589     0.00901316351897     0.02351290467027     0.01750873689152
   32     0.00006820646783     0.00067476716535     0.00096957958184     0.00269037830532     0.00395796963826
   33     0.00000847881482     0.00011234074849     0.00024110937425     0.00067280144317     0.00106333040881
   34     0.00011062499889     0.00234641110321     0.00221332584102     0.00635147955482     0.02096369627421
   35     0.00010304688906     0.00106763352188     0.00098170237431     0.00485383011525     0.02181375410636
   36     2.17470257117725     0.13755229710342     0.02559555049130     0.00329220029208     0.00633902084036
[...]
   15     0.00000038692767     0.00000014040924     0.00000105286568     0.00000001918265     0.00000000952493
   16     0.00000009427946     0.00000003693534     0.00000073192181     0.00000001881498     0.00000000963952
   17     0.00000056310259     0.00000020696391     0.00000489180146     0.00000008375897     0.00000004845897
   18     0.00000063070396     0.00000022513217     0.00000647487507     0.00000008571956     0.00000008211496
   19     0.00000062496496     0.00000035712739     0.00000452805243     0.00000008742678     0.00000002896860
   20     0.00000665210717     0.00000202635934     0.00003752970580     0.00000035611222     0.00000031681697
   21     0.00002384808956     0.00000684190761     0.00007130376717     0.00000176437088     0.00000075626117
   22     0.00021816788996     0.00009941282052     0.00150081066197     0.00001121897541     0.00001143273006
   23     0.00032723148308     0.00024395291525     0.00780396137435     0.00002256645186     0.00002971261912
   24     0.00080938050195     0.00080115239724     0.02066217697839     0.00008102304832     0.00007313682309
   25     0.00138944219987     0.00061335047846     0.01078797937728     0.00016697322278     0.00009640234876
   26     0.00045871547863     0.00018496297558     0.00295243880452     0.00008130691389     0.00003982680913
   27     0.00012525217277     0.00009932260698     0.00185219671179     0.00002140013923     0.00002535467806
   28     0.01199597290032     0.00102320887723     0.00576443410265     0.00063129705297     0.00011506452142
   29     0.06388946525278     0.01217008944282     0.01199271279679     0.00295188125690     0.00065059334570
   30     0.79728986638015     0.05726852553872     0.04562229376495     0.01230864750057     0.00383942889418
   31     0.04910460715761     0.84682858062171     0.81612800295463     0.01631925707829     0.02026022702098
   32     0.01324385362313     0.05267883576944     0.05841345285520     0.06814297336559     0.06285101333184
   33     0.01398578097947     0.02244096251239     0.01157585294407     0.91035872097172     0.92000268011331
   34     0.00777740784217     0.01454843411873     0.01932348138589     0.01652286456147     0.01268730432264
   35     0.02111741422823     0.00198912351466     0.00704837038706     0.01245004385737     0.00169578880688
   36     0.00001375027024     0.00000418763161     0.00004177752734     0.00000087598781     0.00000053976201
   37     0.00000003041439     0.00000001303151     0.00000011558601     0.00000000267821     0.00000000218920
   38     0.00000000003733     0.00000000024461     0.00000000020060     0.00000000010755     0.00000000039494
   39     0.00000000217612     0.00000000979365     0.00000000693586     0.00000000131567     0.00000000657933
   40     0.00000000010785     0.00000000475369     0.00000000439733     0.00000000018467     0.00000000035841
   41     0.00000000001579     0.00000000054613     0.00000000062695     0.00000000002418     0.00000000008741
   42     0.00000001127379     0.00000009474188     0.00000003191108     0.00000000921833     0.00000003214578
   43     0.00000023097342     0.00000320425707     0.00000245746433     0.00000020807221     0.00000172636131
   44     0.00000000076043     0.00000000361800     0.00000003688288     0.00000000030465     0.00000000062045
   45     0.00000000615904     0.00000000133739     0.00000012640219     0.00000000216855     0.00000000057371
   46     0.00000004430931     0.00000003484185     0.00000201153209     0.00000000709309     0.00000000614378
   47     0.00000036211988     0.00000042404504     0.00000145650110     0.00000000697713     0.00000003193819
   48     0.00001706129784     0.00000578624049     0.00002583585625     0.00000034934825     0.00000037419214
   49     0.00004374684882     0.00002401377498     0.00063760666414     0.00000204483441     0.00000242344930
   50     0.00010677176339     0.00020367087218     0.00395539185530     0.00003785333063     0.00001943422452
   51     0.00011549830916     0.00001720052391     0.00016684397562     0.00003396534866     0.00000637680493
   52     0.00001227923553     0.00000348218095     0.00005076131906     0.00000202391232     0.00000130668335
   53     0.00116645875853     0.00009330038616     0.00087566877221     0.00006325812189     0.00001961661610
   54     0.00050383350104     0.00035327030586     0.00033630286087     0.00006524564235     0.00002177887879
   55     0.02130187689064     0.00564445285397     0.00790368009054     0.00047553912080     0.00012927111882
   56     0.00000000000000     0.00932066871430     0.01710795806060     0.00683296674715     0.00147667782456
   57     0.00932066871430     0.00000000000000     0.02031349776821     0.00312041718722     0.00717218323032
   58     0.01710795806060     0.02031349776821     0.00000000000000     0.00091762205217     0.00102147275446
   59     0.00683296674715     0.00312041718722     0.00091762205217     0.00000000000000     0.03488544463303
   60     0.00147667782456     0.00717218323032     0.00102147275446     0.03488544463303     0.00000000000000
   61     0.00058706621267     0.00116613898667     0.00068781367349     0.03488113922147     0.03774401004980
   62     0.00038220928848     0.00129297505624     0.00094120065938     0.00313166280103     0.00115352218596
   63     0.00079988900625     0.00096004466126     0.00510263193203     0.00093522168037     0.00067833592775
   64     0.00541601062555     0.00039186067550     0.00087602890867     0.00691349864185     0.00059064671798
   65     0.00084139068733     0.00042235972677     0.00039374348698     0.00048425572959     0.00022063293442
   66     0.00000001437679     0.00000000461777     0.00000002873977     0.00000000082962     0.00000000051479
   67     0.00000001970884     0.00000000727067     0.00000002841853     0.00000000161199     0.00000000030488
   68     0.00000000236413     0.00000000138631     0.00000000839302     0.00000000046553     0.00000000053510

                61                  62                  63                  64                  65

    1     0.00000000025670     0.00000000217072     0.00000000314076     0.00000000137257     0.00000000017204
    2     0.00000000080881     0.00000000278407     0.00000001011295     0.00000000143873     0.00000000036849
    3     0.00000000161688     0.00000000174853     0.00000000660748     0.00000000083254     0.00000000094749
    4     0.00000000026571     0.00000000055043     0.00000000253192     0.00000000151355     0.00000000036590
    5     0.00000000018917     0.00000000026973     0.00000000421768     0.00000000034362     0.00000000055816
    6     0.00000000014347     0.00000000020403     0.00000000160274     0.00000000025942     0.00000000031546
    7     0.00000000175695     0.00000000269461     0.00000002208108     0.00000000262895     0.00000000320630
    8     0.00000000968309     0.00000002854543     0.00000005210736     0.00000002713532     0.00000000405584
    9     0.00000003495864     0.00000004601634     0.00000014739073     0.00000006100760     0.00000003584311
   10     0.00000001662661     0.00000002196815     0.00000024862317     0.00000000924780     0.00000001033613
   11     0.00000000430389     0.00000001194956     0.00000010619658     0.00000002502165     0.00000000681525
   12     0.00000000171379     0.00000000295562     0.00000002800266     0.00000001012039     0.00000000304819
   13     0.00000000154275     0.00000000808443     0.00000004650158     0.00000001090785     0.00000001312614
   14     0.00000001111534     0.00000006000689     0.00000055688654     0.00000010969901     0.00000007741452
   15     0.00000001657827     0.00000014213644     0.00000134098711     0.00000044358805     0.00000010882939
   16     0.00000001366678     0.00000004010955     0.00000043661955     0.00000011248163     0.00000009464828
   17     0.00000005493037     0.00000026024932     0.00000393844631     0.00000086259090     0.00000050571850
   18     0.00000009063846     0.00000033878684     0.00000686272626     0.00000074393240     0.00000152168782
   19     0.00000004252308     0.00000024161040     0.00000418704192     0.00000067518100     0.00000040927870
   20     0.00000031326155     0.00000233167035     0.00003684859099     0.00000687171983     0.00000857309641
   21     0.00000113867126     0.00001232481851     0.00012873242275     0.00003371960316     0.00002050558585
   22     0.00001323396252     0.00013466005288     0.00258910414752     0.00025110540815     0.00019929596223
   23     0.00002458054816     0.00011926883008     0.00235756845168     0.00019867857474     0.00020597353607
   24     0.00004498914674     0.00027623552991     0.00492071737499     0.00051493533520     0.00057195762325
   25     0.00010104613961     0.00073218389872     0.01398441249207     0.00137293406976     0.00621194668799
   26     0.00006702831538     0.00078493653100     0.02006389954182     0.00084474956371     0.00657299136960
   27     0.00003352076141     0.00025098480243     0.00876612528583     0.00032470000713     0.00051989507933
   28     0.00011485672160     0.00105242374503     0.00642413954072     0.01188580606638     0.02043158630957
   29     0.00063875782001     0.01188592122996     0.01189760748709     0.06325689541158     0.05487868887074
   30     0.00168671299462     0.00204665991467     0.00712900998294     0.02109145471470     0.01248612941825
   31     0.01264549342230     0.01431884148852     0.01902379457582     0.00778940308223     0.00234341407619
   32     0.06288422700488     0.05345973890685     0.05869977584518     0.01320426938673     0.01081543471063
   33     0.91985770806410     0.02200962577408     0.01210442659246     0.01404664307912     0.00151505294829
   34     0.01999214289733     0.85209317783794     0.79014690130807     0.04821861560421     0.05818300258620
   35     0.00381268536301     0.05729032310065     0.04401045906448     0.79600661938414     0.87391515447791
   36     0.00000053960652     0.00000440291055     0.00008372539924     0.00001241186919     0.00000665347329
   37     0.00000000127965     0.00000001042151     0.00000012900588     0.00000002976806     0.00000000917238
   38     0.00000000005600     0.00000000002068     0.00000000019227     0.00000000005417     0.00000000001550
   39     0.00000000129852     0.00000000016543     0.00000000288884     0.00000000156585     0.00000000008940
   40     0.00000000007281     0.00000000010254     0.00000000024795     0.00000000082108     0.00000000005933
   41     0.00000000002603     0.00000000002232     0.00000000011644     0.00000000003393     0.00000000001338
   42     0.00000000391518     0.00000000196317     0.00000002399003     0.00000001441909     0.00000000168548
   43     0.00000007872372     0.00000004484626     0.00000045343217     0.00000002978019     0.00000000631115
   44     0.00000000041318     0.00000000100842     0.00000000909019     0.00000000222658     0.00000000249558
   45     0.00000000052934     0.00000000307197     0.00000005131192     0.00000000410937     0.00000001872219
   46     0.00000000642129     0.00000002556356     0.00000100826163     0.00000004964369     0.00000020914086
   47     0.00000000609095     0.00000001856287     0.00000047983865     0.00000007345519     0.00000008452275
   48     0.00000018661300     0.00000174284730     0.00000886496349     0.00000384929599     0.00000152050375
   49     0.00000118152505     0.00000511406376     0.00007281673975     0.00001539020003     0.00002261690495
   50     0.00000964763025     0.00002082696251     0.00039412702779     0.00012333660855     0.00007189944827
   51     0.00001510522939     0.00013092332353     0.00329918854043     0.00012208025121     0.00281639880819
   52     0.00000297515871     0.00002444188361     0.00069140633310     0.00003878212043     0.00002900656306
   53     0.00002135113102     0.00032671287787     0.00039302857556     0.00056409876016     0.00107719323004
   54     0.00002094105220     0.00010164767034     0.00086780405915     0.00115574078023     0.00585684898900
   55     0.00022343228231     0.00042221512110     0.00040758806322     0.00082703279424     0.00115244182958
   56     0.00058706621267     0.00038220928848     0.00079988900625     0.00541601062555     0.00084139068733
   57     0.00116613898667     0.00129297505624     0.00096004466126     0.00039186067550     0.00042235972677
   58     0.00068781367349     0.00094120065938     0.00510263193203     0.00087602890867     0.00039374348698
   59     0.03488113922147     0.00313166280103     0.00093522168037     0.00691349864185     0.00048425572959
   60     0.03774401004980     0.00115352218596     0.00067833592775     0.00059064671798     0.00022063293442
   61     0.00000000000000     0.00697823071881     0.00104582468098     0.00148496343436     0.00013048374311
   62     0.00697823071881     0.00000000000000     0.01888914756739     0.00902002363173     0.00566086849416
   63     0.00104582468098     0.01888914756739     0.00000000000000     0.01936694192089     0.00819168637937
   64     0.00148496343436     0.00902002363173     0.01936694192089     0.00000000000000     0.02143710843816
   65     0.00013048374311     0.00566086849416     0.00819168637937     0.02143710843816     0.00000000000000
   66     0.00000000072604     0.00000000861638     0.00000004495208     0.00000002270367     0.00000000238905
   67     0.00000000069283     0.00000000593674     0.00000007284520     0.00000002020805     0.00000000463621
   68     0.00000000019205     0.00000000055667     0.00000000741500     0.00000000048474     0.00000000127796

                66                  67                  68

    1     0.00000071540896     0.00000138010336     0.00000011126689
    2     0.00000130750116     0.00000264627817     0.00000032660811
    3     0.00000357325808     0.00000737604825     0.00000095953540
    4     0.00001236775069     0.00000715152769     0.00000073930243
    5     0.00000051783497     0.00000380110956     0.00000028836862
    6     0.00000031946892     0.00000120242554     0.00000010134948
    7     0.00002916239234     0.00003927918413     0.00000532807097
    8     0.00008583345168     0.00007815439876     0.00001915724641
    9     0.00003918293501     0.00005609225059     0.00001859136676
   10     0.00023157307017     0.00030706320645     0.00007477692094
   11     0.00087422780459     0.00082926669554     0.00024857863991
   12     0.00027714708708     0.00025288795780     0.00003733592033
   13     0.01060743198759     0.00959195602337     0.00206329254448
   14     0.01625644210550     0.01642586395345     0.00884233321352
   15     0.05703843817378     0.05866514815044     0.05975036747756
   16     0.01462362877622     0.01546871670464     0.02393283106921
   17     0.00127961462944     0.00127661625673     0.00192422855860
   18     0.00273573100158     0.00299661565800     0.00055663375622
   19     0.00119550709289     0.00122826778771     0.00107398563525
   20     0.00032286533707     0.00034771733135     0.00008352340968
   21     0.00020224603462     0.00021819527015     0.00003138381648
   22     0.00001001730996     0.00001352437933     0.00000656881544
   23     0.00001530695913     0.00001537395657     0.00000250800592
   24     0.00000157038093     0.00000174498237     0.00000033518868
   25     0.00000716470010     0.00000800018811     0.00000029009644
   26     0.00000101975158     0.00000135567586     0.00000029620525
   27     0.00001080462072     0.00001355560825     0.00000171371788
   28     0.00000056433943     0.00000053330309     0.00000004130785
   29     0.00000037944798     0.00000045013849     0.00000001745625
   30     0.00000005643044     0.00000007914998     0.00000001009601
   31     0.00000002164351     0.00000002224387     0.00000000794040
   32     0.00000000990493     0.00000001019989     0.00000001486970
   33     0.00000000441070     0.00000000527932     0.00000000214332
   34     0.00000003361030     0.00000003126208     0.00000000743741
   35     0.00000003380203     0.00000005233865     0.00000000486674
   36     0.00012883902463     0.00012606064307     0.00001691269240
   37     0.91866285738893     0.91960663306933     0.92045925861748
   38     0.00000012242848     0.00000049667954     0.00000001291233
   39     0.00000036482669     0.00000063203532     0.00000005679144
   40     0.00000984092672     0.00000299268527     0.00000149395473
   41     0.00000007589796     0.00000015620798     0.00000000910650
   42     0.00000313730719     0.00000399772286     0.00000089484736
   43     0.00000633153919     0.00000904094095     0.00000345510017
   44     0.00525721904049     0.00451925403174     0.00112204532329
   45     0.00120029045545     0.00129884598513     0.00776901165099
   46     0.00022065782237     0.00020679220943     0.00012974143003
   47     0.00019325350046     0.00019371467348     0.00036611514340
   48     0.00004042870398     0.00004158338949     0.00004099382776
   49     0.00000493098447     0.00000402163566     0.00000099155663
   50     0.00000006325461     0.00000010323399     0.00000005011542
   51     0.00000013036809     0.00000007653999     0.00000006651203
   52     0.00000106394635     0.00000072179422     0.00000048323316
   53     0.00000005687928     0.00000007491122     0.00000001061332
   54     0.00000008206835     0.00000011582645     0.00000000989791
   55     0.00000000479695     0.00000001037065     0.00000000126551
   56     0.00000001437679     0.00000001970884     0.00000000236413
   57     0.00000000461777     0.00000000727067     0.00000000138631
   58     0.00000002873977     0.00000002841853     0.00000000839302
   59     0.00000000082962     0.00000000161199     0.00000000046553
   60     0.00000000051479     0.00000000030488     0.00000000053510
   61     0.00000000072604     0.00000000069283     0.00000000019205
   62     0.00000000861638     0.00000000593674     0.00000000055667
   63     0.00000004495208     0.00000007284520     0.00000000741500
   64     0.00000002270367     0.00000002020805     0.00000000048474
   65     0.00000000238905     0.00000000463621     0.00000000127796
   66     0.00000000000000     0.03531009153421     0.03917084259049
   67     0.03531009153421     0.00000000000000     0.03906348363294
   68     0.03917084259049     0.03906348363294     0.00000000000000



  Atomic Valences: 

 #  #
 Irrep: 1
      1:  4.3935192
      2:  4.4263463
      3:  4.6074831
      4:  4.5583576
      5:  3.8832987
      6:  4.5462365
      7:  4.7430302
      8:  4.3780624
      9:  4.5303734
     10:  3.9201419
     11:  5.0344494
     12:  3.9318983
     13:  4.0180674
     14:  4.6741196
     15:  4.6236537
     16:  4.4395346
     17:  4.4037782
     18:  4.6632852
     19:  4.4015194
     20:  4.0697216
     21:  5.0009103
     22:  4.6183290
     23:  4.4429961
     24:  4.4764416
     25:  4.7179266
     26:  4.4746619
     27:  4.4375820
     28:  4.5035268
     29:  4.2466270
     30:  4.5598769
     31:  4.5757494
     32:  4.2195042
     33:  4.2851725
     34:  4.5703487
     35:  4.5595591
     36:  2.7693774
     37:  4.1510206
     38:  1.0988514
     39:  1.1031970
     40:  1.0994275
     41:  1.0910022
     42:  1.1095739
     43:  1.0865630
     44:  1.1789205
     45:  1.0998015
     46:  1.1086362
     47:  1.1180572
     48:  1.1806584
     49:  1.1046017
     50:  1.1074561
     51:  1.1061393
     52:  1.0979790
     53:  1.1083830
     54:  1.1082282
     55:  1.0965951
     56:  1.0478128
     57:  1.0615171
     58:  1.0829278
     59:  1.1328564
     60:  1.1075256
     61:  1.1069199
     62:  1.0649588
     63:  1.0644921
     64:  1.0474106
     65:  1.0976998
     66:  1.1060756
     67:  1.1082492
     68:  1.1068227


    Psi4 stopped on: Tuesday, 14 April 2020 01:07PM
    Psi4 wall time for execution: 0:24:03.86

*** Psi4 exiting successfully. Buy a developer a beer!
