
    -----------------------------------------------------------------------
          Psi4: An Open-Source Ab Initio Electronic Structure Package
                               Psi4 1.3.2 release

                         Git: Rev {HEAD} ecbda83 


    R. M. Parrish, L. A. Burns, D. G. A. Smith, A. C. Simmonett,
    A. E. DePrince III, E. G. Hohenstein, U. Bozkaya, A. Yu. Sokolov,
    R. Di Remigio, R. M. Richard, J. F. Gonthier, A. M. James,
    H. R. McAlexander, A. Kumar, M. Saitow, X. Wang, B. P. Pritchard,
    P. Verma, H. F. Schaefer III, K. Patkowski, R. A. King, E. F. Valeev,
    F. A. Evangelista, J. M. Turney, T. D. Crawford, and C. D. Sherrill,
    J. Chem. Theory Comput. 13(7) pp 3185--3197 (2017).
    (doi: 10.1021/acs.jctc.7b00174)


                         Additional Contributions by
    P. Kraus, H. Kruse, M. H. Lechner, M. C. Schieber, R. A. Shaw,
    A. Alenaizan, R. Galvelis, Z. L. Glick, S. Lehtola, and J. P. Misiewicz

    -----------------------------------------------------------------------


    Psi4 started on: Wednesday, 11 March 2020 01:33PM

    Process ID: 94271
    Host:       node44.bme.utexas.edu
    PSIDATADIR: /home/bdw2292/miniconda3/envs/p4env/share/psi4
    Memory:     500.0 MiB
    Threads:    1
    
  ==> Input File <==

--------------------------------------------------------------------------
molecule { 
0 1
 C    0.352798    4.677073   -1.836995
 C    1.679955    4.538784   -1.407206
 C    2.194207    3.261052   -1.109062
 C    1.297443    2.180118   -1.298201
 N    0.029071    2.289198   -1.713311
 C   -0.428972    3.523819   -1.970333
 C    3.609973    3.016802   -0.645984
 C    4.612667    3.992413   -0.529314
 C    5.868774    3.525223   -0.126473
 N    6.145924    2.254760    0.153492
 C    5.116517    1.389397    0.039571
 N    3.882935    1.733202   -0.341643
 N    5.408319    0.068677    0.351033
 C    4.643325   -1.153752    0.294207
 C    5.318579   -2.410998    0.337582
 C    4.526189   -3.568551    0.247790
 C    3.131124   -3.554355    0.130298
 C    2.481623   -2.315878    0.125909
 C    3.246705   -1.141048    0.199736
 N    1.070589   -2.105022    0.020672
 C    0.036891   -2.971813   -0.244631
 C   -1.315128   -2.355141   -0.549325
 C   -1.465710   -1.149998   -1.256403
 C   -2.734084   -0.605188   -1.462855
 C   -3.895641   -1.251569   -0.999816
 C   -3.732417   -2.474704   -0.321241
 C   -2.466816   -3.025962   -0.106307
 C   -5.274140   -0.609827   -1.176163
 N   -5.743617    0.407819   -0.208982
 C   -4.779085    1.043986    0.718457
 C   -4.631394    0.295168    2.067949
 N   -5.909061    0.053382    2.779776
 C   -6.409007    1.156188    3.610081
 C   -6.884930   -0.559937    1.845491
 C   -7.028052    0.177617    0.489390
 O    0.173472   -4.184848   -0.221716
 C    6.828073   -2.545666    0.439999
 H   -0.065082    5.652828   -2.066272
 H    2.283109    5.437283   -1.302001
 H    1.635054    1.163348   -1.130050
 H   -1.463155    3.587461   -2.305272
 H    4.469874    5.041176   -0.759118
 H    6.705358    4.216510   -0.029183
 H    6.387398   -0.015685    0.580117
 H    5.008938   -4.544978    0.260197
 H    2.557555   -4.470380    0.057261
 H    2.753876   -0.182469    0.190232
 H    0.793225   -1.135455    0.083975
 H   -0.587466   -0.620184   -1.618246
 H   -2.809525    0.350224   -1.981866
 H   -4.603136   -3.006126    0.061971
 H   -2.349202   -3.965472    0.427923
 H   -5.319019   -0.133439   -2.165889
 H   -6.011613   -1.426017   -1.172289
 H   -3.917048    1.215518    0.269553
 H   -5.367801    2.467125    1.093880
 H   -3.758178    1.112263    2.932446
 H   -4.054234   -0.849302    1.879858
 H   -6.677244    2.021911    2.994035
 H   -5.645724    1.460342    4.335475
 H   -7.294262    0.835040    4.171278
 H   -7.873286   -0.671706    2.360016
 H   -6.363036   -1.970853    1.514872
 H   -7.647711    1.563860    0.812799
 H   -7.784486   -0.373457   -0.219730
 H    7.203729   -2.134100    1.387380
 H    7.335293   -2.012620   -0.376662
 H    7.169811   -3.588872    0.392519
}
memory 20GB
set_num_threads(6)
psi4_io.set_default_path("/scratch/bdw2292")
set freeze_core True
E, wfn = energy('mp2/6-311++G**',return_wfn=True)
oeprop(wfn,"WIBERG_LOWDIN_INDICES")
clean()
--------------------------------------------------------------------------

  Memory set to  18.626 GiB by Python driver.
  Threads set to 6 by Python driver.
    SCF Algorithm Type (re)set to DF.

*** tstart() called on node44.bme.utexas.edu
*** at Wed Mar 11 13:33:43 2020

   => Loading Basis Set <=

    Name: 6-311++G**
    Role: ORBITAL
    Keyword: BASIS
    atoms 1-4, 6-9, 11, 14-19, 21-28, 30-31, 33-35, 37 entry C          line   119 file /home/bdw2292/miniconda3/envs/p4env/share/psi4/basis/6-311ppgss.gbs 
    atoms 5, 10, 12-13, 20, 29, 32                     entry N          line   140 file /home/bdw2292/miniconda3/envs/p4env/share/psi4/basis/6-311ppgss.gbs 
    atoms 36                                           entry O          line   161 file /home/bdw2292/miniconda3/envs/p4env/share/psi4/basis/6-311ppgss.gbs 
    atoms 38-68                                        entry H          line    42 file /home/bdw2292/miniconda3/envs/p4env/share/psi4/basis/6-311ppgss.gbs 


         ---------------------------------------------------------
                                   SCF
               by Justin Turney, Rob Parrish, Andy Simmonett
                          and Daniel G. A. Smith
                              RHF Reference
                        6 Threads,  19073 MiB Core
         ---------------------------------------------------------

  ==> Geometry <==

    Molecular point group: c1
    Full point group: C1

    Geometry (in Angstrom), charge = 0, multiplicity = 1:

       Center              X                  Y                   Z               Mass       
    ------------   -----------------  -----------------  -----------------  -----------------
         C            0.185751055758     4.642672183273    -1.771852704331    12.000000000000
         C            1.512908055758     4.504383183273    -1.342063704331    12.000000000000
         C            2.027160055758     3.226651183273    -1.043919704331    12.000000000000
         C            1.130396055758     2.145717183273    -1.233058704331    12.000000000000
         N           -0.137975944242     2.254797183273    -1.648168704331    14.003074004430
         C           -0.596018944242     3.489418183273    -1.905190704331    12.000000000000
         C            3.442926055758     2.982401183273    -0.580841704331    12.000000000000
         C            4.445620055758     3.958012183273    -0.464171704331    12.000000000000
         C            5.701727055758     3.490822183273    -0.061330704331    12.000000000000
         N            5.978877055758     2.220359183273     0.218634295669    14.003074004430
         C            4.949470055758     1.354996183273     0.104713295669    12.000000000000
         N            3.715888055758     1.698801183273    -0.276500704331    14.003074004430
         N            5.241272055758     0.034276183273     0.416175295669    14.003074004430
         C            4.476278055758    -1.188152816727     0.359349295669    12.000000000000
         C            5.151532055758    -2.445398816727     0.402724295669    12.000000000000
         C            4.359142055758    -3.602951816727     0.312932295669    12.000000000000
         C            2.964077055758    -3.588755816727     0.195440295669    12.000000000000
         C            2.314576055758    -2.350278816727     0.191051295669    12.000000000000
         C            3.079658055758    -1.175448816727     0.264878295669    12.000000000000
         N            0.903542055758    -2.139422816727     0.085814295669    14.003074004430
         C           -0.130155944242    -3.006213816727    -0.179488704331    12.000000000000
         C           -1.482174944242    -2.389541816727    -0.484182704331    12.000000000000
         C           -1.632756944242    -1.184398816727    -1.191260704331    12.000000000000
         C           -2.901130944242    -0.639588816727    -1.397712704331    12.000000000000
         C           -4.062687944242    -1.285969816727    -0.934673704331    12.000000000000
         C           -3.899463944242    -2.509104816727    -0.256098704331    12.000000000000
         C           -2.633862944242    -3.060362816727    -0.041164704331    12.000000000000
         C           -5.441186944242    -0.644227816727    -1.111020704331    12.000000000000
         N           -5.910663944242     0.373418183273    -0.143839704331    14.003074004430
         C           -4.946131944242     1.009585183273     0.783599295669    12.000000000000
         C           -4.798440944242     0.260767183273     2.133091295669    12.000000000000
         N           -6.076107944242     0.018981183273     2.844918295669    14.003074004430
         C           -6.576053944242     1.121787183273     3.675223295669    12.000000000000
         C           -7.051976944242    -0.594337816727     1.910633295669    12.000000000000
         C           -7.195098944242     0.143216183273     0.554532295669    12.000000000000
         O            0.006425055758    -4.219248816727    -0.156573704331    15.994914619570
         C            6.661026055758    -2.580066816727     0.505141295669    12.000000000000
         H           -0.232128944242     5.618427183273    -2.001129704331     1.007825032230
         H            2.116062055758     5.402882183273    -1.236858704331     1.007825032230
         H            1.468007055758     1.128947183273    -1.064907704331     1.007825032230
         H           -1.630201944242     3.553060183273    -2.240129704331     1.007825032230
         H            4.302827055758     5.006775183273    -0.693975704331     1.007825032230
         H            6.538311055758     4.182109183273     0.035959295669     1.007825032230
         H            6.220351055758    -0.050085816727     0.645259295669     1.007825032230
         H            4.841891055758    -4.579378816727     0.325339295669     1.007825032230
         H            2.390508055758    -4.504780816727     0.122403295669     1.007825032230
         H            2.586829055758    -0.216869816727     0.255374295669     1.007825032230
         H            0.626178055758    -1.169855816727     0.149117295669     1.007825032230
         H           -0.754512944242    -0.654584816727    -1.553103704331     1.007825032230
         H           -2.976571944242     0.315823183273    -1.916723704331     1.007825032230
         H           -4.770182944242    -3.040526816727     0.127113295669     1.007825032230
         H           -2.516248944242    -3.999872816727     0.493065295669     1.007825032230
         H           -5.486065944242    -0.167839816727    -2.100746704331     1.007825032230
         H           -6.178659944242    -1.460417816727    -1.107146704331     1.007825032230
         H           -4.084094944242     1.181117183273     0.334695295669     1.007825032230
         H           -5.534847944242     2.432724183273     1.159022295669     1.007825032230
         H           -3.925224944242     1.077862183273     2.997588295669     1.007825032230
         H           -4.221280944242    -0.883702816727     1.945000295669     1.007825032230
         H           -6.844290944242     1.987510183273     3.059177295669     1.007825032230
         H           -5.812770944242     1.425941183273     4.400617295669     1.007825032230
         H           -7.461308944242     0.800639183273     4.236420295669     1.007825032230
         H           -8.040332944242    -0.706106816727     2.425158295669     1.007825032230
         H           -6.530082944242    -2.005253816727     1.580014295669     1.007825032230
         H           -7.814757944242     1.529459183273     0.877941295669     1.007825032230
         H           -7.951532944242    -0.407857816727    -0.154587704331     1.007825032230
         H            7.036682055758    -2.168500816727     1.452522295669     1.007825032230
         H            7.168246055758    -2.047020816727    -0.311519704331     1.007825032230
         H            7.002764055758    -3.623272816727     0.457661295669     1.007825032230

  Running in c1 symmetry.

  Rotational constants: A =      0.00455  B =      0.00173  C =      0.00138 [cm^-1]
  Rotational constants: A =    136.29903  B =     51.87222  C =     41.51603 [MHz]
  Nuclear repulsion = 3713.529334396122522

  Charge       = 0
  Multiplicity = 1
  Electrons    = 262
  Nalpha       = 131
  Nbeta        = 131

  ==> Algorithm <==

  SCF Algorithm Type is DF.
  DIIS enabled.
  MOM disabled.
  Fractional occupation disabled.
  Guess Type is SAD.
  Energy threshold   = 1.00e-08
  Density threshold  = 1.00e-08
  Integral threshold = 0.00e+00

  ==> Primary Basis <==

  Basis Set: 6-311++G**
    Blend: 6-311++G**
    Number of shells: 525
    Number of basis function: 1031
    Number of Cartesian functions: 1068
    Spherical Harmonics?: true
    Max angular momentum: 2

   => Loading Basis Set <=

    Name: (6-311++G** AUX)
    Role: JKFIT
    Keyword: DF_BASIS_SCF
    atoms 1-4, 6-9, 11, 14-19, 21-28, 30-31, 33-35, 37 entry C          line   162 file /home/bdw2292/miniconda3/envs/p4env/share/psi4/basis/aug-cc-pvtz-jkfit.gbs 
    atoms 5, 10, 12-13, 20, 29, 32                     entry N          line   224 file /home/bdw2292/miniconda3/envs/p4env/share/psi4/basis/aug-cc-pvtz-jkfit.gbs 
    atoms 36                                           entry O          line   286 file /home/bdw2292/miniconda3/envs/p4env/share/psi4/basis/aug-cc-pvtz-jkfit.gbs 
    atoms 38-68                                        entry H          line    70 file /home/bdw2292/miniconda3/envs/p4env/share/psi4/basis/aug-cc-pvtz-jkfit.gbs 

  ==> Pre-Iterations <==

   -------------------------------------------------------
    Irrep   Nso     Nmo     Nalpha   Nbeta   Ndocc  Nsocc
   -------------------------------------------------------
     A       1031    1031       0       0       0       0
   -------------------------------------------------------
    Total    1031    1031     131     131     131       0
   -------------------------------------------------------

  ==> Integral Setup <==

  ==> DiskDFJK: Density-Fitted J/K Matrices <==

    J tasked:                  Yes
    K tasked:                  Yes
    wK tasked:                  No
    OpenMP threads:              6
    Integrals threads:           6
    Memory [MiB]:            14305
    Algorithm:                Core
    Integral Cache:           NONE
    Schwarz Cutoff:          1E-12
    Fitting Condition:       1E-10

   => Auxiliary Basis Set <=

  Basis Set: (6-311++G** AUX)
    Blend: AUG-CC-PVTZ-JKFIT
    Number of shells: 1544
    Number of basis function: 5274
    Number of Cartesian functions: 6552
    Spherical Harmonics?: true
    Max angular momentum: 4

  Minimum eigenvalue in the overlap matrix is 1.2236750021E-07.
  Using Symmetric Orthogonalization.

  SCF Guess: Superposition of Atomic Densities via on-the-fly atomic UHF.

  ==> Iterations <==

                           Total Energy        Delta E     RMS |[F,P]|

   @DF-RHF iter SAD: -1571.19551913867053   -1.57120e+03   0.00000e+00 
   @DF-RHF iter   1: -1571.30653258128541   -1.11013e-01   1.21591e-03 DIIS
   @DF-RHF iter   2: -1572.08113739006671   -7.74605e-01   6.45641e-04 DIIS
   @DF-RHF iter   3: -1572.27879307140370   -1.97656e-01   1.64910e-04 DIIS
   @DF-RHF iter   4: -1572.29625780401466   -1.74647e-02   6.64490e-05 DIIS
   @DF-RHF iter   5: -1572.29893507023462   -2.67727e-03   1.39976e-05 DIIS
   @DF-RHF iter   6: -1572.29910229908978   -1.67229e-04   6.11577e-06 DIIS
   @DF-RHF iter   7: -1572.29914094960918   -3.86505e-05   2.02294e-06 DIIS
   @DF-RHF iter   8: -1572.29914682450499   -5.87490e-06   7.88749e-07 DIIS
   @DF-RHF iter   9: -1572.29914774649160   -9.21987e-07   3.19478e-07 DIIS
   @DF-RHF iter  10: -1572.29914792447403   -1.77982e-07   1.46562e-07 DIIS
   @DF-RHF iter  11: -1572.29914796281923   -3.83452e-08   6.86549e-08 DIIS
   @DF-RHF iter  12: -1572.29914797346692   -1.06477e-08   2.80277e-08 DIIS
   @DF-RHF iter  13: -1572.29914797555966   -2.09275e-09   1.16527e-08 DIIS
   @DF-RHF iter  14: -1572.29914797568085   -1.21190e-10   5.59756e-09 DIIS
  Energy and wave function converged.


  ==> Post-Iterations <==

    Orbital Energies [Eh]
    ---------------------

    Doubly Occupied:                                                      

       1A    -20.522667     2A    -15.604556     3A    -15.602518  
       4A    -15.587656     5A    -15.574890     6A    -15.569827  
       7A    -15.567612     8A    -15.560296     9A    -11.376278  
      10A    -11.365034    11A    -11.335112    12A    -11.317376  
      13A    -11.314725    14A    -11.313022    15A    -11.311359  
      16A    -11.302089    17A    -11.301547    18A    -11.301184  
      19A    -11.295340    20A    -11.293448    21A    -11.289759  
      22A    -11.280933    23A    -11.278307    24A    -11.265804  
      25A    -11.261997    26A    -11.259006    27A    -11.254558  
      28A    -11.253038    29A    -11.250687    30A    -11.248333  
      31A    -11.247915    32A    -11.247656    33A    -11.247519  
      34A    -11.240563    35A    -11.235743    36A    -11.231267  
      37A    -11.225604    38A     -1.387646    39A     -1.344953  
      40A     -1.279035    41A     -1.252374    42A     -1.246530  
      43A     -1.241970    44A     -1.210289    45A     -1.201362  
      46A     -1.163467    47A     -1.140289    48A     -1.116203  
      49A     -1.075919    50A     -1.061178    51A     -1.049035  
      52A     -1.038536    53A     -1.024998    54A     -1.008576  
      55A     -1.002985    56A     -0.977834    57A     -0.947405  
      58A     -0.928594    59A     -0.926910    60A     -0.901423  
      61A     -0.873164    62A     -0.871005    63A     -0.858534  
      64A     -0.848623    65A     -0.838570    66A     -0.832629  
      67A     -0.826055    68A     -0.806651    69A     -0.778852  
      70A     -0.754586    71A     -0.740026    72A     -0.731966  
      73A     -0.722273    74A     -0.707129    75A     -0.699763  
      76A     -0.683517    77A     -0.679436    78A     -0.668195  
      79A     -0.661908    80A     -0.657833    81A     -0.652418  
      82A     -0.646295    83A     -0.638338    84A     -0.630259  
      85A     -0.622429    86A     -0.619705    87A     -0.614305  
      88A     -0.609748    89A     -0.606741    90A     -0.603874  
      91A     -0.602681    92A     -0.597526    93A     -0.595031  
      94A     -0.593702    95A     -0.591898    96A     -0.583618  
      97A     -0.581241    98A     -0.574006    99A     -0.565635  
     100A     -0.561918   101A     -0.548509   102A     -0.545067  
     103A     -0.544602   104A     -0.531973   105A     -0.524087  
     106A     -0.517511   107A     -0.514565   108A     -0.509771  
     109A     -0.507050   110A     -0.504057   111A     -0.500824  
     112A     -0.487519   113A     -0.485284   114A     -0.481350  
     115A     -0.458060   116A     -0.452691   117A     -0.443540  
     118A     -0.429384   119A     -0.426774   120A     -0.421861  
     121A     -0.415219   122A     -0.400738   123A     -0.392239  
     124A     -0.379682   125A     -0.374249   126A     -0.347641  
     127A     -0.346592   128A     -0.342949   129A     -0.315778  
     130A     -0.314220   131A     -0.290859  

    Virtual:                                                              

     132A      0.026736   133A      0.035782   134A      0.041119  
     135A      0.041289   136A      0.043966   137A      0.047622  
     138A      0.049217   139A      0.052776   140A      0.057384  
     141A      0.060678   142A      0.063242   143A      0.065509  
     144A      0.067898   145A      0.070338   146A      0.071888  
     147A      0.073364   148A      0.076176   149A      0.081965  
     150A      0.083069   151A      0.083811   152A      0.086123  
     153A      0.090741   154A      0.094475   155A      0.095789  
     156A      0.097564   157A      0.098266   158A      0.100610  
     159A      0.101710   160A      0.106434   161A      0.109425  
     162A      0.110446   163A      0.113708   164A      0.114927  
     165A      0.117219   166A      0.118718   167A      0.120917  
     168A      0.125489   169A      0.126683   170A      0.130339  
     171A      0.133467   172A      0.135429   173A      0.139131  
     174A      0.143237   175A      0.145342   176A      0.146063  
     177A      0.150018   178A      0.151020   179A      0.153760  
     180A      0.154396   181A      0.156310   182A      0.158544  
     183A      0.159578   184A      0.160495   185A      0.165104  
     186A      0.165815   187A      0.166975   188A      0.170057  
     189A      0.172296   190A      0.175252   191A      0.176227  
     192A      0.179417   193A      0.180767   194A      0.181427  
     195A      0.183500   196A      0.185789   197A      0.187042  
     198A      0.187436   199A      0.189426   200A      0.190226  
     201A      0.191747   202A      0.196175   203A      0.198125  
     204A      0.199039   205A      0.202228   206A      0.203911  
     207A      0.205056   208A      0.206581   209A      0.208184  
     210A      0.208942   211A      0.212730   212A      0.213450  
     213A      0.214797   214A      0.215949   215A      0.217835  
     216A      0.218806   217A      0.221120   218A      0.223861  
     219A      0.225084   220A      0.227386   221A      0.228546  
     222A      0.230468   223A      0.232755   224A      0.235422  
     225A      0.236746   226A      0.237865   227A      0.240142  
     228A      0.240344   229A      0.245899   230A      0.247034  
     231A      0.248752   232A      0.250718   233A      0.253649  
     234A      0.255384   235A      0.256637   236A      0.261003  
     237A      0.263523   238A      0.265637   239A      0.266450  
     240A      0.269187   241A      0.270015   242A      0.272202  
     243A      0.274293   244A      0.277601   245A      0.280254  
     246A      0.281909   247A      0.283424   248A      0.285473  
     249A      0.287263   250A      0.291729   251A      0.293933  
     252A      0.294799   253A      0.301238   254A      0.301766  
     255A      0.304221   256A      0.306232   257A      0.308808  
     258A      0.311565   259A      0.312163   260A      0.314907  
     261A      0.320104   262A      0.320921   263A      0.322922  
     264A      0.325633   265A      0.326459   266A      0.328864  
     267A      0.332011   268A      0.334266   269A      0.335449  
     270A      0.337196   271A      0.340856   272A      0.341444  
     273A      0.345080   274A      0.347484   275A      0.348443  
     276A      0.349357   277A      0.352719   278A      0.353151  
     279A      0.355745   280A      0.359942   281A      0.360617  
     282A      0.362268   283A      0.364945   284A      0.367701  
     285A      0.369534   286A      0.370151   287A      0.373498  
     288A      0.373842   289A      0.375718   290A      0.377948  
     291A      0.379228   292A      0.379631   293A      0.380982  
     294A      0.385224   295A      0.385612   296A      0.386273  
     297A      0.387776   298A      0.391236   299A      0.392760  
     300A      0.393990   301A      0.395360   302A      0.395981  
     303A      0.398563   304A      0.399395   305A      0.401585  
     306A      0.403030   307A      0.405613   308A      0.406629  
     309A      0.409613   310A      0.415130   311A      0.416051  
     312A      0.418050   313A      0.421004   314A      0.421831  
     315A      0.424325   316A      0.425199   317A      0.428110  
     318A      0.428406   319A      0.430181   320A      0.430471  
     321A      0.431538   322A      0.436259   323A      0.437612  
     324A      0.440443   325A      0.442024   326A      0.442430  
     327A      0.445046   328A      0.447073   329A      0.447437  
     330A      0.451841   331A      0.453825   332A      0.454043  
     333A      0.458183   334A      0.460817   335A      0.463457  
     336A      0.464742   337A      0.466609   338A      0.470586  
     339A      0.471995   340A      0.474076   341A      0.475125  
     342A      0.477896   343A      0.479682   344A      0.483178  
     345A      0.485894   346A      0.487625   347A      0.488336  
     348A      0.492739   349A      0.497334   350A      0.503268  
     351A      0.504953   352A      0.507040   353A      0.507884  
     354A      0.510969   355A      0.513387   356A      0.516568  
     357A      0.519121   358A      0.519546   359A      0.522748  
     360A      0.526937   361A      0.530382   362A      0.533969  
     363A      0.536611   364A      0.540127   365A      0.544122  
     366A      0.549043   367A      0.553746   368A      0.560213  
     369A      0.563867   370A      0.565057   371A      0.567554  
     372A      0.570294   373A      0.570944   374A      0.581957  
     375A      0.587103   376A      0.598133   377A      0.601294  
     378A      0.604175   379A      0.607962   380A      0.612591  
     381A      0.618849   382A      0.621243   383A      0.623556  
     384A      0.628313   385A      0.631567   386A      0.638076  
     387A      0.652228   388A      0.658436   389A      0.672560  
     390A      0.676619   391A      0.685262   392A      0.687077  
     393A      0.695666   394A      0.706492   395A      0.708963  
     396A      0.710116   397A      0.718611   398A      0.722285  
     399A      0.723101   400A      0.730290   401A      0.734548  
     402A      0.738443   403A      0.746392   404A      0.752317  
     405A      0.754241   406A      0.758466   407A      0.760192  
     408A      0.762595   409A      0.765564   410A      0.769915  
     411A      0.771472   412A      0.774697   413A      0.780029  
     414A      0.784322   415A      0.789047   416A      0.789406  
     417A      0.797331   418A      0.799145   419A      0.805059  
     420A      0.808418   421A      0.811993   422A      0.815050  
     423A      0.820454   424A      0.822161   425A      0.825772  
     426A      0.828053   427A      0.830829   428A      0.832073  
     429A      0.839635   430A      0.840586   431A      0.845959  
     432A      0.850042   433A      0.851344   434A      0.855082  
     435A      0.857470   436A      0.861455   437A      0.867388  
     438A      0.869064   439A      0.873382   440A      0.874308  
     441A      0.880034   442A      0.881572   443A      0.887664  
     444A      0.888047   445A      0.890489   446A      0.894719  
     447A      0.899423   448A      0.901838   449A      0.907418  
     450A      0.908994   451A      0.911131   452A      0.916771  
     453A      0.918488   454A      0.925578   455A      0.930170  
     456A      0.931318   457A      0.932685   458A      0.935916  
     459A      0.936739   460A      0.940110   461A      0.943123  
     462A      0.945633   463A      0.951471   464A      0.952402  
     465A      0.957351   466A      0.961406   467A      0.963157  
     468A      0.967073   469A      0.972174   470A      0.973925  
     471A      0.976169   472A      0.983317   473A      0.985223  
     474A      0.989510   475A      0.993620   476A      0.994533  
     477A      1.000519   478A      1.004158   479A      1.008090  
     480A      1.011888   481A      1.013113   482A      1.018578  
     483A      1.023683   484A      1.028490   485A      1.032610  
     486A      1.036113   487A      1.041657   488A      1.044898  
     489A      1.048990   490A      1.053262   491A      1.055753  
     492A      1.058716   493A      1.065826   494A      1.071148  
     495A      1.075260   496A      1.078063   497A      1.080987  
     498A      1.085620   499A      1.090276   500A      1.096493  
     501A      1.099124   502A      1.103506   503A      1.109284  
     504A      1.112485   505A      1.118398   506A      1.125145  
     507A      1.128385   508A      1.132990   509A      1.135571  
     510A      1.140405   511A      1.144120   512A      1.148631  
     513A      1.150446   514A      1.158514   515A      1.160189  
     516A      1.164214   517A      1.170187   518A      1.173898  
     519A      1.178389   520A      1.180193   521A      1.182410  
     522A      1.185283   523A      1.188052   524A      1.191680  
     525A      1.195576   526A      1.200943   527A      1.202221  
     528A      1.207729   529A      1.212254   530A      1.219495  
     531A      1.220113   532A      1.221506   533A      1.225790  
     534A      1.231378   535A      1.235853   536A      1.239315  
     537A      1.246896   538A      1.247568   539A      1.254932  
     540A      1.259130   541A      1.262979   542A      1.266296  
     543A      1.270753   544A      1.275084   545A      1.277939  
     546A      1.280783   547A      1.283852   548A      1.285149  
     549A      1.289522   550A      1.298043   551A      1.305378  
     552A      1.309431   553A      1.312628   554A      1.321054  
     555A      1.327141   556A      1.330490   557A      1.336678  
     558A      1.342908   559A      1.346146   560A      1.350563  
     561A      1.351741   562A      1.366761   563A      1.372084  
     564A      1.380181   565A      1.384388   566A      1.386719  
     567A      1.398396   568A      1.410056   569A      1.415266  
     570A      1.419759   571A      1.425387   572A      1.431077  
     573A      1.439927   574A      1.442074   575A      1.449938  
     576A      1.451132   577A      1.457934   578A      1.465203  
     579A      1.473674   580A      1.478485   581A      1.489890  
     582A      1.499305   583A      1.502714   584A      1.506628  
     585A      1.522149   586A      1.529116   587A      1.530490  
     588A      1.538469   589A      1.540800   590A      1.547618  
     591A      1.555906   592A      1.565786   593A      1.569689  
     594A      1.585695   595A      1.601203   596A      1.609070  
     597A      1.619300   598A      1.621327   599A      1.632815  
     600A      1.652090   601A      1.653206   602A      1.659477  
     603A      1.681901   604A      1.689570   605A      1.696339  
     606A      1.697397   607A      1.705974   608A      1.709358  
     609A      1.722754   610A      1.728772   611A      1.731780  
     612A      1.743198   613A      1.749730   614A      1.750923  
     615A      1.758088   616A      1.760926   617A      1.766021  
     618A      1.772193   619A      1.781520   620A      1.783546  
     621A      1.790394   622A      1.791135   623A      1.796015  
     624A      1.803036   625A      1.808888   626A      1.810742  
     627A      1.817882   628A      1.819337   629A      1.820853  
     630A      1.824564   631A      1.832480   632A      1.835534  
     633A      1.839483   634A      1.842838   635A      1.847056  
     636A      1.850439   637A      1.852564   638A      1.854683  
     639A      1.856947   640A      1.861968   641A      1.865706  
     642A      1.866922   643A      1.874207   644A      1.880652  
     645A      1.883597   646A      1.898967   647A      1.900360  
     648A      1.907461   649A      1.911914   650A      1.915478  
     651A      1.921791   652A      1.927970   653A      1.933230  
     654A      1.934213   655A      1.944753   656A      1.946227  
     657A      1.947738   658A      1.954146   659A      1.956703  
     660A      1.959444   661A      1.963019   662A      1.968316  
     663A      1.971042   664A      1.977848   665A      1.984542  
     666A      1.986543   667A      1.993039   668A      1.996494  
     669A      2.004741   670A      2.008735   671A      2.011132  
     672A      2.015470   673A      2.022098   674A      2.028225  
     675A      2.030389   676A      2.044953   677A      2.047626  
     678A      2.051982   679A      2.055601   680A      2.060954  
     681A      2.070093   682A      2.071462   683A      2.076656  
     684A      2.081347   685A      2.083025   686A      2.087464  
     687A      2.089323   688A      2.094699   689A      2.104172  
     690A      2.106315   691A      2.117017   692A      2.126782  
     693A      2.133146   694A      2.139963   695A      2.146508  
     696A      2.151614   697A      2.162294   698A      2.170515  
     699A      2.171583   700A      2.179543   701A      2.182556  
     702A      2.184431   703A      2.193141   704A      2.195124  
     705A      2.203603   706A      2.209211   707A      2.211801  
     708A      2.219959   709A      2.227082   710A      2.236959  
     711A      2.242068   712A      2.246214   713A      2.249629  
     714A      2.255442   715A      2.257371   716A      2.264274  
     717A      2.268815   718A      2.273961   719A      2.278191  
     720A      2.279860   721A      2.283959   722A      2.288195  
     723A      2.298966   724A      2.301218   725A      2.310459  
     726A      2.311550   727A      2.316455   728A      2.321010  
     729A      2.327486   730A      2.340278   731A      2.344813  
     732A      2.346307   733A      2.347729   734A      2.355154  
     735A      2.357461   736A      2.368829   737A      2.377666  
     738A      2.380083   739A      2.383966   740A      2.391791  
     741A      2.400309   742A      2.402843   743A      2.406198  
     744A      2.422283   745A      2.424895   746A      2.436820  
     747A      2.448094   748A      2.448420   749A      2.455265  
     750A      2.459941   751A      2.475392   752A      2.480027  
     753A      2.492241   754A      2.496785   755A      2.507519  
     756A      2.514748   757A      2.522447   758A      2.533540  
     759A      2.536731   760A      2.540314   761A      2.553059  
     762A      2.555387   763A      2.560037   764A      2.576931  
     765A      2.583268   766A      2.590238   767A      2.603465  
     768A      2.621718   769A      2.630087   770A      2.650177  
     771A      2.652146   772A      2.658834   773A      2.668584  
     774A      2.680848   775A      2.684657   776A      2.697687  
     777A      2.708094   778A      2.722572   779A      2.733588  
     780A      2.743650   781A      2.746614   782A      2.756068  
     783A      2.770535   784A      2.779221   785A      2.780148  
     786A      2.786743   787A      2.797951   788A      2.807190  
     789A      2.813155   790A      2.820663   791A      2.826308  
     792A      2.830038   793A      2.830199   794A      2.852113  
     795A      2.853861   796A      2.858603   797A      2.865164  
     798A      2.874777   799A      2.879899   800A      2.883425  
     801A      2.892947   802A      2.894950   803A      2.906891  
     804A      2.919498   805A      2.926456   806A      2.931061  
     807A      2.944337   808A      2.948488   809A      2.959939  
     810A      2.962164   811A      2.964236   812A      2.974975  
     813A      2.981925   814A      2.983447   815A      2.994226  
     816A      3.000798   817A      3.006190   818A      3.009717  
     819A      3.018532   820A      3.022857   821A      3.031501  
     822A      3.032260   823A      3.040742   824A      3.045051  
     825A      3.055371   826A      3.056503   827A      3.059088  
     828A      3.070649   829A      3.072221   830A      3.073039  
     831A      3.079556   832A      3.087353   833A      3.093861  
     834A      3.097089   835A      3.102862   836A      3.109231  
     837A      3.112443   838A      3.113598   839A      3.116133  
     840A      3.119763   841A      3.123534   842A      3.126747  
     843A      3.134285   844A      3.143644   845A      3.153252  
     846A      3.159304   847A      3.162925   848A      3.166076  
     849A      3.170587   850A      3.181711   851A      3.194411  
     852A      3.200244   853A      3.202003   854A      3.207458  
     855A      3.217824   856A      3.218382   857A      3.232096  
     858A      3.236179   859A      3.242413   860A      3.249958  
     861A      3.254829   862A      3.264298   863A      3.268235  
     864A      3.272826   865A      3.280342   866A      3.284800  
     867A      3.288808   868A      3.296432   869A      3.297967  
     870A      3.302281   871A      3.309069   872A      3.316311  
     873A      3.327355   874A      3.330798   875A      3.333440  
     876A      3.339578   877A      3.341082   878A      3.349997  
     879A      3.359720   880A      3.362080   881A      3.365123  
     882A      3.371115   883A      3.384404   884A      3.387829  
     885A      3.390792   886A      3.394572   887A      3.398425  
     888A      3.405392   889A      3.418550   890A      3.431874  
     891A      3.441245   892A      3.461121   893A      3.469691  
     894A      3.507636   895A      3.519118   896A      3.533152  
     897A      3.570137   898A      3.588882   899A      3.596013  
     900A      3.605655   901A      3.611246   902A      3.616141  
     903A      3.631983   904A      3.651081   905A      3.662450  
     906A      3.671597   907A      3.678040   908A      3.682875  
     909A      3.720648   910A      3.762926   911A      3.766602  
     912A      3.774216   913A      3.780113   914A      3.795142  
     915A      3.803165   916A      3.811164   917A      3.817340  
     918A      3.857675   919A      3.871799   920A      3.886604  
     921A      3.903215   922A      3.917941   923A      3.924144  
     924A      3.932727   925A      3.935399   926A      3.950564  
     927A      3.957319   928A      3.959884   929A      3.972943  
     930A      3.983426   931A      4.003034   932A      4.007693  
     933A      4.045669   934A      4.060694   935A      4.078060  
     936A      4.090364   937A      4.099400   938A      4.121125  
     939A      4.127168   940A      4.128177   941A      4.147561  
     942A      4.158957   943A      4.183339   944A      4.187203  
     945A      4.191882   946A      4.198685   947A      4.203649  
     948A      4.208022   949A      4.247323   950A      4.353688  
     951A      4.355207   952A      4.361236   953A      4.380974  
     954A      4.398605   955A      4.411817   956A      4.417876  
     957A      4.425181   958A      4.429581   959A      4.433317  
     960A      4.438826   961A      4.450034   962A      4.491434  
     963A      4.519010   964A      4.544704   965A      4.551798  
     966A      4.579817   967A      4.584655   968A      4.626078  
     969A      4.637425   970A      4.662950   971A      4.703108  
     972A      4.768057   973A      4.769940   974A      4.785749  
     975A      4.908537   976A      4.939912   977A      5.009984  
     978A      5.046521   979A      5.246886   980A      5.249214  
     981A      5.269564   982A      5.275520   983A      5.293068  
     984A      5.340150   985A      5.352427   986A      5.384241  
     987A      5.413707   988A      5.605895   989A      5.688459  
     990A      5.695984   991A      5.799516   992A      5.851462  
     993A      5.868163   994A      6.393303   995A     24.769922  
     996A     24.790511   997A     24.811561   998A     24.841707  
     999A     24.846731  1000A     24.915288  1001A     24.936902  
    1002A     25.012809  1003A     25.016602  1004A     25.036545  
    1005A     25.069298  1006A     25.070432  1007A     25.086634  
    1008A     25.091675  1009A     25.100973  1010A     25.117526  
    1011A     25.122368  1012A     25.130467  1013A     25.134734  
    1014A     25.145486  1015A     25.170280  1016A     25.202218  
    1017A     25.207684  1018A     25.234640  1019A     25.245741  
    1020A     25.246115  1021A     25.252565  1022A     25.319935  
    1023A     25.327607  1024A     36.937196  1025A     36.994637  
    1026A     37.022058  1027A     37.069649  1028A     37.075395  
    1029A     37.132046  1030A     37.152004  1031A     51.760107  

    Final Occupation by Irrep:
              A 
    DOCC [   131 ]

  @DF-RHF Final Energy: -1572.29914797568085

   => Energetics <=

    Nuclear Repulsion Energy =           3713.5293343961225219
    One-Electron Energy =               -9524.9580458508826268
    Two-Electron Energy =                4239.1295634790794793
    Total Energy =                      -1572.2991479756810804

Computation Completed


Properties will be evaluated at   0.000000,   0.000000,   0.000000 [a0]

Properties computed using the SCF density matrix

  Nuclear Dipole Moment: [e a0]
     X:   -37.9468      Y:     3.6767      Z:    11.8995

  Electronic Dipole Moment: [e a0]
     X:    38.3314      Y:    -1.0526      Z:   -12.2526

  Dipole Moment: [e a0]
     X:     0.3846      Y:     2.6241      Z:    -0.3532     Total:     2.6755

  Dipole Moment: [D]
     X:     0.9775      Y:     6.6698      Z:    -0.8977     Total:     6.8006


*** tstop() called on node44.bme.utexas.edu at Wed Mar 11 13:46:52 2020
Module time:
	user time   =    4543.21 seconds =      75.72 minutes
	system time =      20.22 seconds =       0.34 minutes
	total time  =        789 seconds =      13.15 minutes
Total time:
	user time   =    4543.21 seconds =      75.72 minutes
	system time =      20.22 seconds =       0.34 minutes
	total time  =        789 seconds =      13.15 minutes

*** tstart() called on node44.bme.utexas.edu
*** at Wed Mar 11 13:46:52 2020


  //>>>>>>>>>>>>>>>>>>>>>>>>>>>>>>>>>>>//
  //               DFMP2               //
  //<<<<<<<<<<<<<<<<<<<<<<<<<<<<<<<<<<<//

   => Loading Basis Set <=

    Name: (6-311++G** AUX)
    Role: RIFIT
    Keyword: DF_BASIS_MP2
    atoms 1-4, 6-9, 11, 14-19, 21-28, 30-31, 33-35, 37 entry C          line   148 file /home/bdw2292/miniconda3/envs/p4env/share/psi4/basis/aug-cc-pvtz-ri.gbs 
    atoms 5, 10, 12-13, 20, 29, 32                     entry N          line   206 file /home/bdw2292/miniconda3/envs/p4env/share/psi4/basis/aug-cc-pvtz-ri.gbs 
    atoms 36                                           entry O          line   264 file /home/bdw2292/miniconda3/envs/p4env/share/psi4/basis/aug-cc-pvtz-ri.gbs 
    atoms 38-68                                        entry H          line    30 file /home/bdw2292/miniconda3/envs/p4env/share/psi4/basis/aug-cc-pvtz-ri.gbs 

	 --------------------------------------------------------
	                          DF-MP2                         
	      2nd-Order Density-Fitted Moller-Plesset Theory     
	              RMP2 Wavefunction,   6 Threads             
	                                                         
	        Rob Parrish, Justin Turney, Andy Simmonett,      
	           Ed Hohenstein, and C. David Sherrill          
	 --------------------------------------------------------

   => Auxiliary Basis Set <=

  Basis Set: (6-311++G** AUX)
    Blend: AUG-CC-PVTZ-RI
    Number of shells: 1470
    Number of basis function: 5348
    Number of Cartesian functions: 6737
    Spherical Harmonics?: true
    Max angular momentum: 4

	 --------------------------------------------------------
	                 NBF =  1031, NAUX =  5348
	 --------------------------------------------------------
	   CLASS    FOCC     OCC    AOCC    AVIR     VIR    FVIR
	   PAIRS      37     131      94     900     900       0
	 --------------------------------------------------------

	-----------------------------------------------------------
	 ==================> DF-MP2 Energies <==================== 
	-----------------------------------------------------------
	 Reference Energy          =   -1572.2991479756808531 [Eh]
	 Singles Energy            =      -0.0000000000000000 [Eh]
	 Same-Spin Energy          =      -1.4698228264682940 [Eh]
	 Opposite-Spin Energy      =      -4.0480171900893138 [Eh]
	 Correlation Energy        =      -5.5178400165576083 [Eh]
	 Total Energy              =   -1577.8169879922384098 [Eh]
	-----------------------------------------------------------
	 ================> DF-SCS-MP2 Energies <================== 
	-----------------------------------------------------------
	 SCS Same-Spin Scale       =       0.3333333333333333 [-]
	 SCS Opposite-Spin Scale   =       1.2000000000000000 [-]
	 SCS Same-Spin Energy      =      -0.4899409421560980 [Eh]
	 SCS Opposite-Spin Energy  =      -4.8576206281071768 [Eh]
	 SCS Correlation Energy    =      -5.3475615702632746 [Eh]
	 SCS Total Energy          =   -1577.6467095459440770 [Eh]
	-----------------------------------------------------------


*** tstop() called on node44.bme.utexas.edu at Wed Mar 11 13:54:39 2020
Module time:
	user time   =    2644.15 seconds =      44.07 minutes
	system time =      15.01 seconds =       0.25 minutes
	total time  =        467 seconds =       7.78 minutes
Total time:
	user time   =    7187.37 seconds =     119.79 minutes
	system time =      35.23 seconds =       0.59 minutes
	total time  =       1256 seconds =      20.93 minutes


Properties will be evaluated at   0.000000,   0.000000,   0.000000 [a0]
OEProp: No title given, name of density matrix used for the following properties is 'SCF density'


  Wiberg Bond Indices using Orthogonal Lowdin Orbitals:

  Irrep: 1 Size: 68 x 68

                 1                   2                   3                   4                   5

    1     0.00000000000000     1.46448489790172     0.12492295000053     0.14057132924864     0.12369026029929
    2     1.46448489790172     0.00000000000000     1.40110660809744     0.12869292100434     0.12145112097311
    3     0.12492295000053     1.40110660809744     0.00000000000000     1.36132590678413     0.11844964317751
    4     0.14057132924864     0.12869292100434     1.36132590678413     0.00000000000000     1.66150828309182
    5     0.12369026029929     0.12145112097311     0.11844964317751     1.66150828309182     0.00000000000000
    6     1.46574880909399     0.13831051970258     0.13560782107220     0.15377262401405     1.62633970898532
    7     0.01457438089649     0.10286281207277     1.01990428388751     0.10331347064310     0.01383471486305
    8     0.00353405234800     0.04131540294292     0.09775865886018     0.02381945250104     0.00217365235714
    9     0.00036216924634     0.00466157765855     0.01475862123429     0.00409860960468     0.00068465129045
   10     0.00040554011378     0.00535677988715     0.00575354949106     0.00604637267883     0.00032418961969
   11     0.00088353035382     0.00335323113721     0.01811126038763     0.00687196170310     0.00042920666007
   12     0.00279614227900     0.02212956470310     0.11978246918938     0.06215806673919     0.00409037092323
   13     0.00016875534947     0.00048068018787     0.00163431634487     0.00094138964336     0.00008883799839
   14     0.00003114799888     0.00009402506675     0.00056581810933     0.00130180691379     0.00011399066261
   15     0.00001047790345     0.00002277196783     0.00006636132363     0.00014884899609     0.00001601641836
   16     0.00000207993982     0.00000556278888     0.00004006626576     0.00025646236753     0.00001258327272
   17     0.00001266079688     0.00001916918591     0.00005475409632     0.00027718228688     0.00004149370180
   18     0.00002434172837     0.00005306152809     0.00028800939166     0.00182445672618     0.00022180998089
   19     0.00015735579921     0.00025286485148     0.00202152169049     0.01081351885692     0.00063108731209
   20     0.00005138763355     0.00007145053012     0.00032983938056     0.00313663514411     0.00060840392641
   21     0.00001185245444     0.00001250156271     0.00005309471223     0.00039693773273     0.00018758014412
   22     0.00005325320724     0.00003560700534     0.00004636978758     0.00063567703514     0.00145781303709
   23     0.00047839993429     0.00028712202078     0.00039691401792     0.00656821071969     0.02102020118035
   24     0.00022639702907     0.00020126616824     0.00028531240985     0.00157048477684     0.01257348808798
   25     0.00001760831976     0.00001584444323     0.00002199694004     0.00012265985057     0.00065897419742
   26     0.00000941708176     0.00000586763699     0.00001562218363     0.00023011266279     0.00058326304956
   27     0.00000989999269     0.00000581244124     0.00001470340138     0.00018904457436     0.00057346667549
   28     0.00000686178947     0.00000293412028     0.00000299815554     0.00001937990921     0.00006613245753
   29     0.00000628057545     0.00000195901563     0.00000189446490     0.00000806539628     0.00004396119198
   30     0.00003749524634     0.00006690193298     0.00007614505318     0.00002854019678     0.00016714807835
   31     0.00001165898153     0.00000920342758     0.00000812381285     0.00001470661950     0.00004243483838
   32     0.00000202168829     0.00000088331622     0.00000095555694     0.00000295312494     0.00000953417551
   33     0.00000100429664     0.00000038441601     0.00000030453977     0.00000097747412     0.00000267132311
   34     0.00000110226747     0.00000034188357     0.00000040278915     0.00000382312581     0.00000916233545
   35     0.00000138110887     0.00000059328299     0.00000044670561     0.00000337475421     0.00000955061201
   36     0.00000185215131     0.00000251549464     0.00001298588122     0.00010993697162     0.00003566625307
   37     0.00000211760611     0.00000720434755     0.00003203649013     0.00003685603969     0.00000307379655
   38     0.88608432479000     0.07924913669775     0.01175135156776     0.00636308557469     0.01069824379167
   39     0.07762876959335     0.87058004379957     0.07266392493519     0.01177072658743     0.00394277857646
   40     0.00566503134147     0.01056046197446     0.06942005265210     0.84986344125250     0.08668737941333
   41     0.07720860884241     0.01178128295452     0.00602414819849     0.01591591325675     0.08779060871929
   42     0.00107071607263     0.01407385116634     0.01424551845071     0.00135227889772     0.00028684586838
   43     0.00004410172590     0.00028109979872     0.00144638084972     0.00031524760636     0.00007731284751
   44     0.00002466956527     0.00008310064314     0.00035056107159     0.00009019224688     0.00000770382819
   45     0.00000032522137     0.00000100764788     0.00000664591627     0.00001859838748     0.00000163291894
   46     0.00000090980175     0.00000163122183     0.00000717492350     0.00002609453947     0.00000783401046
   47     0.00011737489848     0.00021169353103     0.00207596754382     0.00819200648624     0.00061469344076
   48     0.00010834324494     0.00007824497968     0.00022285206996     0.00250163376270     0.00073487615509
   49     0.00031725967488     0.00013699071815     0.00025041441349     0.00477546694635     0.01116962218140
   50     0.00009210582590     0.00007691344991     0.00012448709088     0.00038853218741     0.00372708450449
   51     0.00000083505674     0.00000048104712     0.00000135198432     0.00001542202018     0.00003196143824
   52     0.00000122215765     0.00000056052448     0.00000102812871     0.00000994368381     0.00003772689895
   53     0.00000245062055     0.00000119786871     0.00000084426484     0.00000301408432     0.00000831920295
   54     0.00000037078406     0.00000007798033     0.00000019033145     0.00000575624567     0.00000680239695
   55     0.00001904466003     0.00004167967528     0.00006026214532     0.00001890232275     0.00023916192995
   56     0.00000441541078     0.00000520705808     0.00000777781631     0.00000589709505     0.00002178867784
   57     0.00000627439874     0.00000678738509     0.00000460428479     0.00000596189506     0.00001017710620
   58     0.00000085882958     0.00000126616891     0.00000106780307     0.00000847270010     0.00001666080573
   59     0.00000033981182     0.00000005827503     0.00000007729503     0.00000039635066     0.00000115231600
   60     0.00000006681228     0.00000005979196     0.00000003897935     0.00000012461747     0.00000040494739
   61     0.00000016907438     0.00000004221127     0.00000003705560     0.00000013585043     0.00000050890358
   62     0.00000028394346     0.00000006288508     0.00000004985410     0.00000027004141     0.00000117674232
   63     0.00000081784207     0.00000025853239     0.00000018544456     0.00000318596754     0.00000665284962
   64     0.00000068694293     0.00000029049343     0.00000018200214     0.00000337264885     0.00000625990838
   65     0.00000009776676     0.00000007120158     0.00000007125599     0.00000035859538     0.00000137772161
   66     0.00000071543321     0.00000184736944     0.00001087448588     0.00000842178243     0.00000058673255
   67     0.00000116119741     0.00000280415177     0.00001040608581     0.00000865290424     0.00000078081704
   68     0.00000024492062     0.00000074670156     0.00000390559258     0.00000822387432     0.00000046699059

                 6                   7                   8                   9                  10

    1     1.46574880909399     0.01457438089649     0.00353405234800     0.00036216924634     0.00040554011378
    2     0.13831051970258     0.10286281207277     0.04131540294292     0.00466157765855     0.00535677988715
    3     0.13560782107220     1.01990428388751     0.09775865886018     0.01475862123429     0.00575354949106
    4     0.15377262401405     0.10331347064310     0.02381945250104     0.00409860960468     0.00604637267883
    5     1.62633970898532     0.01383471486305     0.00217365235714     0.00068465129045     0.00032418961969
    6     0.00000000000000     0.00966784097811     0.00681773172695     0.00119927003685     0.00335082848132
    7     0.00966784097811     0.00000000000000     1.38976885289766     0.14716483030604     0.11216190531899
    8     0.00681773172695     1.38976885289766     0.00000000000000     1.43163209120147     0.13067780318246
    9     0.00119927003685     0.14716483030604     1.43163209120147     0.00000000000000     1.66324618355511
   10     0.00335082848132     0.11216190531899     0.13067780318246     1.66324618355511     0.00000000000000
   11     0.00084930635759     0.14156782179950     0.11312501266707     0.15271347657580     1.50689037421697
   12     0.00602489235605     1.52979528598521     0.12600021664551     0.11097251207249     0.10993414506371
   13     0.00007381370110     0.01925413817870     0.02043465628164     0.02418431914584     0.15911224618994
   14     0.00004458072907     0.00286728461296     0.00246292106560     0.00325280169136     0.01679086674289
   15     0.00000572162846     0.00050034705130     0.00143668026177     0.00093171727273     0.00311625451498
   16     0.00000413594239     0.00016252222025     0.00019379636830     0.00016358735884     0.00047407559916
   17     0.00000787486487     0.00024881060808     0.00129202682224     0.00044178356592     0.00126178256712
   18     0.00004283466166     0.00055462358547     0.00026291611848     0.00014228618860     0.00040829642804
   19     0.00019556936395     0.00574733434173     0.00311302733822     0.00153658341599     0.00429359451416
   20     0.00007398793035     0.00013527404615     0.00002928125388     0.00001808753796     0.00005870935478
   21     0.00002176831848     0.00002184122342     0.00000811843156     0.00000477540510     0.00001574588544
   22     0.00014175258778     0.00000787158654     0.00000271857938     0.00000120107787     0.00000342077310
   23     0.00190283562435     0.00006450451870     0.00001499330748     0.00000392999251     0.00000347964962
   24     0.00240347025727     0.00003216897986     0.00001600957943     0.00000259717390     0.00000195135561
   25     0.00023827768139     0.00000332334568     0.00000215420355     0.00000037556348     0.00000060790610
   26     0.00013066987059     0.00000199876675     0.00000061676202     0.00000018617154     0.00000030099547
   27     0.00011608336057     0.00000284267856     0.00000121918219     0.00000040486001     0.00000087165572
   28     0.00005667223009     0.00000090011215     0.00000027725560     0.00000005029483     0.00000009714402
   29     0.00011017384423     0.00000047138403     0.00000027416820     0.00000006246083     0.00000005177022
   30     0.00024846120342     0.00000336828193     0.00000665553896     0.00000103201053     0.00000270282269
   31     0.00008795866641     0.00000061165623     0.00000052213638     0.00000011555834     0.00000018100238
   32     0.00002727631457     0.00000032147688     0.00000012826295     0.00000003405961     0.00000005032228
   33     0.00000386387476     0.00000008485471     0.00000004148022     0.00000001279098     0.00000001246153
   34     0.00001063946229     0.00000012766203     0.00000007123781     0.00000001041288     0.00000001179525
   35     0.00001639687352     0.00000010062026     0.00000007824042     0.00000001436422     0.00000001939819
   36     0.00000719142761     0.00000993399868     0.00000826630255     0.00000401305086     0.00001101609236
   37     0.00000194460101     0.00014294579772     0.00013536490059     0.00013334858424     0.00072791384090
   38     0.08242064393097     0.00128262221673     0.00024502008725     0.00003863327617     0.00002516108986
   39     0.01171348430054     0.01610944064541     0.01471155675030     0.00113478201313     0.00039333070815
   40     0.01471836673226     0.01561366491812     0.00166821166159     0.00039794849431     0.00061579201612
   41     0.87883319515724     0.00053920621796     0.00026338644159     0.00005195442754     0.00010361472121
   42     0.00047964865967     0.07574956374922     0.87616503993139     0.08043127237247     0.01040462530415
   43     0.00004353970604     0.01180799083904     0.07625678426696     0.87538820959415     0.08896909223829
   44     0.00001153816702     0.00205470259991     0.00200227499271     0.00362900079375     0.03104583899679
   45     0.00000041161646     0.00001838365013     0.00000784013828     0.00002317986441     0.00005221426549
   46     0.00000116145517     0.00002315955938     0.00004130528804     0.00001657272238     0.00005168964527
   47     0.00020590451827     0.00425502425920     0.00094413047228     0.00043499965216     0.00076789816033
   48     0.00009451272482     0.00009206207078     0.00002812698635     0.00001008095321     0.00002117298569
   49     0.00107803302703     0.00004727444967     0.00001059620969     0.00000302689257     0.00000269224624
   50     0.00150498308299     0.00001336457199     0.00000506544221     0.00000085021386     0.00000030814556
   51     0.00000608677715     0.00000011562987     0.00000006172162     0.00000001901504     0.00000003136438
   52     0.00000992431646     0.00000038577794     0.00000011638033     0.00000006457333     0.00000014748530
   53     0.00001366391579     0.00000025063211     0.00000006087850     0.00000001281736     0.00000001477187
   54     0.00000283020697     0.00000004044694     0.00000001783185     0.00000000407287     0.00000000873791
   55     0.00022301068733     0.00000297597229     0.00000550582808     0.00000086391455     0.00000356683430
   56     0.00001085149327     0.00000042247992     0.00000075593779     0.00000011297131     0.00000030146242
   57     0.00001318887982     0.00000069105677     0.00000015037332     0.00000005235917     0.00000004071469
   58     0.00000604368137     0.00000023772007     0.00000010148347     0.00000002107466     0.00000002310572
   59     0.00000070379509     0.00000002010167     0.00000000595508     0.00000000323698     0.00000000508630
   60     0.00000036333611     0.00000002040354     0.00000000579990     0.00000000104358     0.00000000716552
   61     0.00000199140849     0.00000000741078     0.00000000536610     0.00000000068800     0.00000000222445
   62     0.00000308935320     0.00000000765698     0.00000001048484     0.00000000130344     0.00000000188561
   63     0.00000978829786     0.00000006261204     0.00000003179847     0.00000000533903     0.00000000676366
   64     0.00000721345274     0.00000004019870     0.00000003038151     0.00000000402112     0.00000000682642
   65     0.00000086594547     0.00000001743556     0.00000000619854     0.00000000142760     0.00000000191433
   66     0.00000038714581     0.00004174246601     0.00007408769956     0.00004072670260     0.00023608698248
   67     0.00000142343211     0.00004689738951     0.00011346482075     0.00004270272998     0.00032553973196
   68     0.00000016734165     0.00001417750329     0.00000577993422     0.00000436905509     0.00003269429561

                11                  12                  13                  14                  15

    1     0.00088353035382     0.00279614227900     0.00016875534947     0.00003114799888     0.00001047790345
    2     0.00335323113721     0.02212956470310     0.00048068018787     0.00009402506675     0.00002277196783
    3     0.01811126038763     0.11978246918938     0.00163431634487     0.00056581810933     0.00006636132363
    4     0.00687196170310     0.06215806673919     0.00094138964336     0.00130180691379     0.00014884899609
    5     0.00042920666007     0.00409037092323     0.00008883799839     0.00011399066261     0.00001601641836
    6     0.00084930635759     0.00602489235605     0.00007381370110     0.00004458072907     0.00000572162846
    7     0.14156782179950     1.52979528598521     0.01925413817870     0.00286728461296     0.00050034705130
    8     0.11312501266707     0.12600021664551     0.02043465628164     0.00246292106560     0.00143668026177
    9     0.15271347657580     0.11097251207249     0.02418431914584     0.00325280169136     0.00093171727273
   10     1.50689037421697     0.10993414506371     0.15911224618994     0.01679086674289     0.00311625451498
   11     0.00000000000000     1.53347959911057     1.26861020813839     0.08221189134490     0.01780991496862
   12     1.53347959911057     0.00000000000000     0.14139043827086     0.02925487940687     0.00345606496574
   13     1.26861020813839     0.14139043827086     0.00000000000000     1.12563105043568     0.10556052495889
   14     0.08221189134490     0.02925487940687     1.12563105043568     0.00000000000000     1.31600534357609
   15     0.01780991496862     0.00345606496574     0.10556052495889     1.31600534357609     0.00000000000000
   16     0.00238434330381     0.00115236532449     0.01434145384021     0.12591328595709     1.44200597413602
   17     0.00410883275154     0.00248474774915     0.01186414436377     0.11937181001881     0.12415530272898
   18     0.00243200847899     0.00485733807287     0.01323525751562     0.12288908076966     0.12004290368122
   19     0.02848714951943     0.05556206497454     0.11079868274280     1.40390753685743     0.11934337669084
   20     0.00034700106729     0.00112756071861     0.00133626885285     0.01519360718426     0.01136526893080
   21     0.00006194514557     0.00013199697461     0.00030651667568     0.00278418153661     0.00576569388540
   22     0.00001197265879     0.00002883522254     0.00005613723455     0.00035725244958     0.00033565912428
   23     0.00001500571780     0.00012314394896     0.00001406205643     0.00011705699718     0.00035556748850
   24     0.00000265639139     0.00001436074439     0.00000268657833     0.00001249779324     0.00003532706265
   25     0.00000085108358     0.00000291170429     0.00000183772144     0.00002262569999     0.00014514516399
   26     0.00000062603024     0.00000149745269     0.00000223056270     0.00001753108993     0.00003203283605
   27     0.00000336987971     0.00000434729507     0.00001309903633     0.00009634973902     0.00029564105640
   28     0.00000012235017     0.00000045896774     0.00000020799604     0.00000207647421     0.00001065900549
   29     0.00000007175239     0.00000026820209     0.00000010503165     0.00000123392502     0.00000707339500
   30     0.00000046277590     0.00000444870090     0.00000015724785     0.00000058249351     0.00000175620615
   31     0.00000013389862     0.00000074792531     0.00000007833063     0.00000080756289     0.00000060531304
   32     0.00000018666283     0.00000022145640     0.00000004383137     0.00000119605634     0.00000019596853
   33     0.00000004325569     0.00000006837670     0.00000001484967     0.00000031506784     0.00000006397803
   34     0.00000004086837     0.00000007501754     0.00000003760495     0.00000028751451     0.00000017010254
   35     0.00000003183443     0.00000006459993     0.00000002829474     0.00000034532272     0.00000101290899
   36     0.00003952471838     0.00005367634654     0.00015151516801     0.00102772628789     0.00336074694874
   37     0.00360549179774     0.00077805916858     0.03783724579217     0.09660944195159     1.06093556112169
   38     0.00009017506215     0.00031301653454     0.00001621979856     0.00000699716892     0.00000079736605
   39     0.00028559075532     0.00108537002829     0.00006626424214     0.00002554254716     0.00000396851055
   40     0.00279259468979     0.02562231371540     0.00043072399580     0.00123282812309     0.00016419689154
   41     0.00004316562235     0.00025225957171     0.00000559600460     0.00000409588745     0.00000059030963
   42     0.00572916869159     0.01068789701544     0.00103475779684     0.00011909306855     0.00006467667693
   43     0.01580763516633     0.00400216599176     0.00133685115592     0.00038238640401     0.00006182652442
   44     0.07336083861581     0.01148372848268     0.93478176857873     0.05950779527553     0.01488656738431
   45     0.00036775996895     0.00006217990920     0.00115659465434     0.01143645450747     0.07478395441207
   46     0.00014697939000     0.00015666818370     0.00051318069849     0.00525338473695     0.01052200185841
   47     0.00980021542435     0.03847860473329     0.01602919258647     0.07345914802870     0.00966022224232
   48     0.00012360852434     0.00070318070483     0.00017860127474     0.00209349537921     0.00111964291535
   49     0.00000984291752     0.00005952827737     0.00000559554492     0.00003972817160     0.00011364797255
   50     0.00000082080125     0.00000317053402     0.00000034877278     0.00000146035969     0.00000161012924
   51     0.00000007853452     0.00000020911505     0.00000050412428     0.00000277702143     0.00000328651041
   52     0.00000070433111     0.00000065769278     0.00000236980987     0.00001549447945     0.00001928667159
   53     0.00000002827598     0.00000010341033     0.00000005948381     0.00000033390090     0.00000139311069
   54     0.00000001774805     0.00000003944032     0.00000004534589     0.00000036758341     0.00000206656804
   55     0.00000059352884     0.00000094788831     0.00000046658996     0.00000042882038     0.00000071364004
   56     0.00000005144970     0.00000033079865     0.00000001550896     0.00000003538730     0.00000014068722
   57     0.00000005651990     0.00000032246498     0.00000003852721     0.00000016487665     0.00000056275916
   58     0.00000003614368     0.00000032376211     0.00000004733327     0.00000030599991     0.00000071835090
   59     0.00000000645921     0.00000001747831     0.00000000228429     0.00000004353065     0.00000000954989
   60     0.00000001171839     0.00000001736814     0.00000000285339     0.00000007555790     0.00000001357690
   61     0.00000000403720     0.00000000754104     0.00000000198276     0.00000000936861     0.00000000988606
   62     0.00000000476713     0.00000000588370     0.00000000289036     0.00000002974755     0.00000001630950
   63     0.00000001488770     0.00000004956234     0.00000001525714     0.00000006645100     0.00000003570722
   64     0.00000001259710     0.00000005038255     0.00000000897857     0.00000009205160     0.00000046080754
   65     0.00000000508833     0.00000001742107     0.00000000431662     0.00000004303882     0.00000007585064
   66     0.00071524877474     0.00025237608580     0.00874900058180     0.01646655135817     0.05843753748210
   67     0.00098387212236     0.00030632892699     0.01069346847001     0.01671181657647     0.05827782105128
   68     0.00023268376402     0.00006221434914     0.00199943653081     0.00896252232559     0.05947754304208

                16                  17                  18                  19                  20

    1     0.00000207993982     0.00001266079688     0.00002434172837     0.00015735579921     0.00005138763355
    2     0.00000556278888     0.00001916918591     0.00005306152809     0.00025286485148     0.00007145053012
    3     0.00004006626576     0.00005475409632     0.00028800939166     0.00202152169049     0.00032983938056
    4     0.00025646236753     0.00027718228688     0.00182445672618     0.01081351885692     0.00313663514411
    5     0.00001258327272     0.00004149370180     0.00022180998089     0.00063108731209     0.00060840392641
    6     0.00000413594239     0.00000787486487     0.00004283466166     0.00019556936395     0.00007398793035
    7     0.00016252222025     0.00024881060808     0.00055462358547     0.00574733434173     0.00013527404615
    8     0.00019379636830     0.00129202682224     0.00026291611848     0.00311302733822     0.00002928125388
    9     0.00016358735884     0.00044178356592     0.00014228618860     0.00153658341599     0.00001808753796
   10     0.00047407559916     0.00126178256712     0.00040829642804     0.00429359451416     0.00005870935478
   11     0.00238434330381     0.00410883275154     0.00243200847899     0.02848714951943     0.00034700106729
   12     0.00115236532449     0.00248474774915     0.00485733807287     0.05556206497454     0.00112756071861
   13     0.01434145384021     0.01186414436377     0.01323525751562     0.11079868274280     0.00133626885285
   14     0.12591328595709     0.11937181001881     0.12288908076966     1.40390753685743     0.01519360718426
   15     1.44200597413602     0.12415530272898     0.12004290368122     0.11934337669084     0.01136526893080
   16     0.00000000000000     1.44393077960667     0.13327442944287     0.12555293987210     0.01366346536945
   17     1.44393077960667     0.00000000000000     1.40011385120599     0.12149264299991     0.10453853449498
   18     0.13327442944287     1.40011385120599     0.00000000000000     1.36090108460556     1.12711519919268
   19     0.12555293987210     0.12149264299991     1.36090108460556     0.00000000000000     0.12486593795336
   20     0.01366346536945     0.10453853449498     1.12711519919268     0.12486593795336     0.00000000000000
   21     0.00276712276997     0.03119195600843     0.08645740267299     0.02263484746857     1.31363314342703
   22     0.00035498201112     0.00328448086056     0.01462100957380     0.00211066592859     0.10530377910765
   23     0.00014642625239     0.00119741035713     0.00408476172565     0.00130096662615     0.04274781003830
   24     0.00002126009816     0.00015896347189     0.00042742410689     0.00013601707633     0.00372575859223
   25     0.00002557459103     0.00024689076007     0.00045711241104     0.00021079967557     0.00337458649214
   26     0.00002156786340     0.00013699697030     0.00049446399280     0.00010304893381     0.00244132274328
   27     0.00010196895253     0.00087013491276     0.00232664321205     0.00064833997472     0.01785667973383
   28     0.00000233261519     0.00002171183990     0.00004280875230     0.00001825773459     0.00026003360053
   29     0.00000131796014     0.00001055432876     0.00002012862651     0.00000965353061     0.00014508449888
   30     0.00000050922264     0.00000390097740     0.00000727353975     0.00000345803754     0.00004342371664
   31     0.00000046958647     0.00000255721492     0.00000768158541     0.00000368757782     0.00003574087620
   32     0.00000014515634     0.00000047482266     0.00000176585112     0.00000225775459     0.00000523464360
   33     0.00000003787259     0.00000020181311     0.00000061312048     0.00000048667676     0.00000173660313
   34     0.00000019650767     0.00000079355963     0.00000363941368     0.00000084499251     0.00001480237444
   35     0.00000027516042     0.00000165187884     0.00000408461227     0.00000139221832     0.00002196277605
   36     0.00343449108597     0.04831867063069     0.03182674090246     0.00525418423897     0.19238600357492
   37     0.11547444534496     0.01435640509265     0.00736378695267     0.01397632231104     0.00072294625409
   38     0.00000032136911     0.00000067208171     0.00000509430656     0.00002275776111     0.00000514448997
   39     0.00000155602171     0.00000171361104     0.00000619686188     0.00003784359115     0.00000757461412
   40     0.00021343281001     0.00024582584018     0.00186686877334     0.00895794425925     0.00227800248443
   41     0.00000043454634     0.00000069216961     0.00000268270893     0.00001405912439     0.00000548997537
   42     0.00001056894580     0.00004678093672     0.00002977147558     0.00020060308543     0.00000688331364
   43     0.00001568207615     0.00001151647611     0.00001498892053     0.00010561839495     0.00000172968863
   44     0.00151337105235     0.00107689993474     0.00130302608858     0.01048503957932     0.00024236621081
   45     0.87157537984264     0.07897893313285     0.01177606892783     0.00565452372152     0.00103231720174
   46     0.07708976875417     0.86003448813806     0.07572732478157     0.01123315911945     0.01455530295499
   47     0.00565728128352     0.01015707844764     0.07120587646636     0.83712366561146     0.02419733690398
   48     0.00136792676966     0.01011660371790     0.06252448370718     0.02177357530011     0.93572805521356
   49     0.00005226574218     0.00035884331982     0.00156280736863     0.00065557880274     0.01539446220449
   50     0.00000209715578     0.00001250977588     0.00003219060254     0.00000994373559     0.00020764935767
   51     0.00000281717016     0.00001841791779     0.00006597739512     0.00001768980190     0.00028069593072
   52     0.00002616500991     0.00016201394600     0.00024778406019     0.00007237370681     0.00164646281998
   53     0.00000052371714     0.00000396080187     0.00000819648093     0.00000281018953     0.00003636434833
   54     0.00000046408174     0.00000431956090     0.00000799124422     0.00000373278299     0.00005126480551
   55     0.00000021127498     0.00000168418267     0.00000247674002     0.00000161609919     0.00001528888574
   56     0.00000005082899     0.00000024718406     0.00000081540829     0.00000032122746     0.00000419291582
   57     0.00000012244205     0.00000127938257     0.00000201366416     0.00000202988091     0.00000542020321
   58     0.00000038722840     0.00000231772345     0.00000529933184     0.00000261919260     0.00002608196506
   59     0.00000000738628     0.00000002543530     0.00000012171478     0.00000008809090     0.00000045304707
   60     0.00000000906027     0.00000004513036     0.00000008977670     0.00000010621267     0.00000020789036
   61     0.00000000421305     0.00000002057260     0.00000003679718     0.00000002330500     0.00000036195100
   62     0.00000001253742     0.00000004585161     0.00000025605247     0.00000006987251     0.00000069520704
   63     0.00000012274039     0.00000050741997     0.00000235350455     0.00000041600989     0.00001118271111
   64     0.00000011023924     0.00000079332466     0.00000292945664     0.00000075477873     0.00001243947970
   65     0.00000001829726     0.00000015253034     0.00000034716585     0.00000016321774     0.00000199455111
   66     0.01544441368876     0.00127328500155     0.00302047517016     0.00120747144827     0.00037812767666
   67     0.01482067235348     0.00125589380264     0.00273136545588     0.00126466756131     0.00032487649353
   68     0.02374214689446     0.00189169387590     0.00055720113623     0.00108740990048     0.00008399447854

                21                  22                  23                  24                  25

    1     0.00001185245444     0.00005325320724     0.00047839993429     0.00022639702907     0.00001760831976
    2     0.00001250156271     0.00003560700534     0.00028712202078     0.00020126616824     0.00001584444323
    3     0.00005309471223     0.00004636978758     0.00039691401792     0.00028531240985     0.00002199694004
    4     0.00039693773273     0.00063567703514     0.00656821071969     0.00157048477684     0.00012265985057
    5     0.00018758014412     0.00145781303709     0.02102020118035     0.01257348808798     0.00065897419742
    6     0.00002176831848     0.00014175258778     0.00190283562435     0.00240347025727     0.00023827768139
    7     0.00002184122342     0.00000787158654     0.00006450451870     0.00003216897986     0.00000332334568
    8     0.00000811843156     0.00000271857938     0.00001499330748     0.00001600957943     0.00000215420355
    9     0.00000477540510     0.00000120107787     0.00000392999251     0.00000259717390     0.00000037556348
   10     0.00001574588544     0.00000342077310     0.00000347964962     0.00000195135561     0.00000060790610
   11     0.00006194514557     0.00001197265879     0.00001500571780     0.00000265639139     0.00000085108358
   12     0.00013199697461     0.00002883522254     0.00012314394896     0.00001436074439     0.00000291170429
   13     0.00030651667568     0.00005613723455     0.00001406205643     0.00000268657833     0.00000183772144
   14     0.00278418153661     0.00035725244958     0.00011705699718     0.00001249779324     0.00002262569999
   15     0.00576569388540     0.00033565912428     0.00035556748850     0.00003532706265     0.00014514516399
   16     0.00276712276997     0.00035498201112     0.00014642625239     0.00002126009816     0.00002557459103
   17     0.03119195600843     0.00328448086056     0.00119741035713     0.00015896347189     0.00024689076007
   18     0.08645740267299     0.01462100957380     0.00408476172565     0.00042742410689     0.00045711241104
   19     0.02263484746857     0.00211066592859     0.00130096662615     0.00013601707633     0.00021079967557
   20     1.31363314342703     0.10530377910765     0.04274781003830     0.00372575859223     0.00337458649214
   21     0.00000000000000     0.97178829671611     0.10503189876484     0.01442934902804     0.01107168808606
   22     0.97178829671611     0.00000000000000     1.40220075935660     0.12756419995048     0.12415044580512
   23     0.10503189876484     1.40220075935660     0.00000000000000     1.45519726796952     0.12678731884853
   24     0.01442934902804     0.12756419995048     1.45519726796952     0.00000000000000     1.40862570262083
   25     0.01107168808606     0.12415044580512     0.12678731884853     1.40862570262083     0.00000000000000
   26     0.01469887864390     0.12732478270869     0.13085451551307     0.12592975103798     1.39459550238236
   27     0.11084632237862     1.38489407262867     0.12416705706984     0.13163912670072     0.12657719308447
   28     0.00071145042910     0.00899399419560     0.01461607358765     0.11005397928819     1.01836475504912
   29     0.00034311579523     0.00400068772523     0.00177933405207     0.02124474345841     0.07514837104905
   30     0.00012943131123     0.00152877773030     0.00457429425662     0.02255057616536     0.03219185956162
   31     0.00009085270979     0.00184898347244     0.00202156439941     0.00730468912041     0.02081308418515
   32     0.00002477991574     0.00027866701592     0.00025750709014     0.00087743038655     0.00271364560562
   33     0.00000498779105     0.00007402576804     0.00007896997821     0.00021937973577     0.00075395950660
   34     0.00003334172942     0.00027928233816     0.00032520302030     0.00083669007899     0.00689007319378
   35     0.00005280231511     0.00060232288773     0.00038693141050     0.00287485547391     0.01333387951607
   36     2.17976250831252     0.13652349243716     0.02526664119641     0.00305671445234     0.00614774210019
[...]
   15     0.00000014068722     0.00000056275916     0.00000071835090     0.00000000954989     0.00000001357690
   16     0.00000005082899     0.00000012244205     0.00000038722840     0.00000000738628     0.00000000906027
   17     0.00000024718406     0.00000127938257     0.00000231772345     0.00000002543530     0.00000004513036
   18     0.00000081540829     0.00000201366416     0.00000529933184     0.00000012171478     0.00000008977670
   19     0.00000032122746     0.00000202988091     0.00000261919260     0.00000008809090     0.00000010621267
   20     0.00000419291582     0.00000542020321     0.00002608196506     0.00000045304707     0.00000020789036
   21     0.00000546234864     0.00001034563959     0.00008260998484     0.00000100581591     0.00000102801305
   22     0.00009073232639     0.00010194500471     0.00171079642085     0.00000665319490     0.00001135070154
   23     0.00033227079957     0.00011151155116     0.00167632801181     0.00001652172201     0.00000975661834
   24     0.00051693153951     0.00021641029878     0.00388634554915     0.00007164631383     0.00002499585730
   25     0.00111954591051     0.00079432365108     0.01228689828011     0.00015734974741     0.00007707910487
   26     0.00069174995431     0.00045609645622     0.01745022021941     0.00007691935502     0.00006155374165
   27     0.00060399356161     0.00018839104375     0.00651980143154     0.00002980639942     0.00002531193881
   28     0.01283786386746     0.00105594790804     0.00631003869460     0.00070053234629     0.00012745908780
   29     0.06329856078681     0.01398640895443     0.01263941226895     0.00294502794321     0.00074159619357
   30     0.76718706765169     0.05837069290201     0.04545893896740     0.01286098083439     0.00392379817273
   31     0.05136019910180     0.82216548222128     0.81873139263217     0.01675005174197     0.02190862795554
   32     0.01452701145650     0.05100495749264     0.05862336022075     0.06748838803196     0.06217655768375
   33     0.01580962555261     0.02558138949933     0.01114330863440     0.91059795570170     0.91988123320628
   34     0.00888886147919     0.01543823460728     0.01892246422919     0.01639347962358     0.01250820271411
   35     0.02563614049119     0.00194764912970     0.00677000503905     0.01192492544696     0.00170028860963
   36     0.00000376266736     0.00000946097874     0.00006087704815     0.00000032491468     0.00000049239520
   37     0.00000006417633     0.00000005576561     0.00000007573581     0.00000000286466     0.00000000451035
   38     0.00000225374140     0.00000091582899     0.00000005584655     0.00000004887759     0.00000001145431
   39     0.00000018152463     0.00000018989418     0.00000005086352     0.00000000401209     0.00000000359771
   40     0.00000046876736     0.00000290045433     0.00000178625310     0.00000006767284     0.00000004298822
   41     0.00000537253715     0.00000334126481     0.00000257923741     0.00000023191810     0.00000023684220
   42     0.00000002042000     0.00000003520706     0.00000000234829     0.00000000050348     0.00000000083259
   43     0.00000000155532     0.00000000115396     0.00000000173731     0.00000000008974     0.00000000013489
   44     0.00000000302653     0.00000000484721     0.00000000655248     0.00000000039147     0.00000000062990
   45     0.00000000233703     0.00000000789349     0.00000004475601     0.00000000105063     0.00000000060818
   46     0.00000006270030     0.00000013583540     0.00000085053317     0.00000000804436     0.00000000595721
   47     0.00000017563859     0.00000101448934     0.00000036378853     0.00000000784217     0.00000001419926
   48     0.00000346123467     0.00000170106369     0.00000895068880     0.00000063128079     0.00000036902291
   49     0.00001779116067     0.00000897408280     0.00003685438147     0.00000129409447     0.00000095461000
   50     0.00008781272790     0.00002456733505     0.00026729908331     0.00001944886668     0.00000652216097
   51     0.00007409920588     0.00006482961946     0.00290874874151     0.00002863382032     0.00000950785103
   52     0.00003572914240     0.00002838201482     0.00046814635423     0.00000163540890     0.00000203117651
   53     0.00069764387108     0.00032340070685     0.00041678948606     0.00006593692882     0.00003108507336
   54     0.00128812578080     0.00013138952554     0.00100530246432     0.00006653879563     0.00001554036020
   55     0.02957149033753     0.00641448156398     0.00802840645954     0.00066693915159     0.00019790625913
   56     0.00000000000000     0.01045834839127     0.01758645607702     0.00824606724022     0.00160277751645
   57     0.01045834839127     0.00000000000000     0.01957456595099     0.00360832941386     0.00845392115624
   58     0.01758645607702     0.01957456595099     0.00000000000000     0.00091570183897     0.00103630913430
   59     0.00824606724022     0.00360832941386     0.00091570183897     0.00000000000000     0.03475161290929
   60     0.00160277751645     0.00845392115624     0.00103630913430     0.03475161290929     0.00000000000000
   61     0.00068996822092     0.00134061604684     0.00068492765711     0.03498884711290     0.03780186431071
   62     0.00056432787212     0.00128605640036     0.00085512152617     0.00285975735638     0.00116386014939
   63     0.00084224556048     0.00111119390097     0.00503451543395     0.00104730505277     0.00062932089514
   64     0.00735888448324     0.00040091994522     0.00100257467816     0.00706315244790     0.00057573925365
   65     0.00111079265477     0.00051136680663     0.00036807603606     0.00045361681440     0.00022987800151
   66     0.00000000254480     0.00000002092960     0.00000002161781     0.00000000054880     0.00000000065916
   67     0.00000000515391     0.00000001341025     0.00000004134600     0.00000000043598     0.00000000043199
   68     0.00000000307497     0.00000000440323     0.00000000797455     0.00000000030577     0.00000000047906

                61                  62                  63                  64                  65

    1     0.00000016907438     0.00000028394346     0.00000081784207     0.00000068694293     0.00000009776676
    2     0.00000004221127     0.00000006288508     0.00000025853239     0.00000029049343     0.00000007120158
    3     0.00000003705560     0.00000004985410     0.00000018544456     0.00000018200214     0.00000007125599
    4     0.00000013585043     0.00000027004141     0.00000318596754     0.00000337264885     0.00000035859538
    5     0.00000050890358     0.00000117674232     0.00000665284962     0.00000625990838     0.00000137772161
    6     0.00000199140849     0.00000308935320     0.00000978829786     0.00000721345274     0.00000086594547
    7     0.00000000741078     0.00000000765698     0.00000006261204     0.00000004019870     0.00000001743556
    8     0.00000000536610     0.00000001048484     0.00000003179847     0.00000003038151     0.00000000619854
    9     0.00000000068800     0.00000000130344     0.00000000533903     0.00000000402112     0.00000000142760
   10     0.00000000222445     0.00000000188561     0.00000000676366     0.00000000682642     0.00000000191433
   11     0.00000000403720     0.00000000476713     0.00000001488770     0.00000001259710     0.00000000508833
   12     0.00000000754104     0.00000000588370     0.00000004956234     0.00000005038255     0.00000001742107
   13     0.00000000198276     0.00000000289036     0.00000001525714     0.00000000897857     0.00000000431662
   14     0.00000000936861     0.00000002974755     0.00000006645100     0.00000009205160     0.00000004303882
   15     0.00000000988606     0.00000001630950     0.00000003570722     0.00000046080754     0.00000007585064
   16     0.00000000421305     0.00000001253742     0.00000012274039     0.00000011023924     0.00000001829726
   17     0.00000002057260     0.00000004585161     0.00000050741997     0.00000079332466     0.00000015253034
   18     0.00000003679718     0.00000025605247     0.00000235350455     0.00000292945664     0.00000034716585
   19     0.00000002330500     0.00000006987251     0.00000041600989     0.00000075477873     0.00000016321774
   20     0.00000036195100     0.00000069520704     0.00001118271111     0.00001243947970     0.00000199455111
   21     0.00000046400467     0.00000151403932     0.00002143741553     0.00002454250194     0.00000468858375
   22     0.00000741830841     0.00001057786690     0.00015890818949     0.00026737860870     0.00003581553380
   23     0.00000593648722     0.00000990901241     0.00016530431841     0.00011389338344     0.00004560813585
   24     0.00001608701936     0.00004499082742     0.00047652629514     0.00052615229250     0.00031723836707
   25     0.00006027757369     0.00031809102379     0.00521131916322     0.00219483140447     0.00168140817980
   26     0.00006219857740     0.00045461166399     0.01191852204198     0.00102925864660     0.00050183375417
   27     0.00001167949471     0.00004867096611     0.00111671380336     0.00017900892564     0.00005613653877
   28     0.00014718228947     0.00145461659834     0.01149685259991     0.01227474198566     0.02098543245499
   29     0.00062224971213     0.01087545024301     0.01533675769375     0.06056789313024     0.05571099335496
   30     0.00180950435956     0.00279886393110     0.00878866725072     0.02490678536257     0.01267607070052
   31     0.01296343347042     0.01303018010229     0.02067731472920     0.00868632105808     0.00239898016709
   32     0.06300647208752     0.05903638230207     0.06258262790821     0.01394219960339     0.01067737665909
   33     0.91971043581305     0.02021242198886     0.01315031364632     0.01456912229758     0.00149817171276
   34     0.01827755183044     0.89208364756264     0.76716148690251     0.04859253369163     0.05841833627287
   35     0.00366342678813     0.06050609114892     0.04851837469512     0.77674130461021     0.88183233664535
   36     0.00000031602121     0.00000066575615     0.00000884371435     0.00002091458084     0.00000311192564
   37     0.00000000162619     0.00000000262650     0.00000001316702     0.00000003642706     0.00000000614859
   38     0.00000002644860     0.00000002601315     0.00000002806233     0.00000002059991     0.00000001048413
   39     0.00000000066397     0.00000000714218     0.00000001853645     0.00000002192585     0.00000000461211
   40     0.00000002160432     0.00000002154468     0.00000037958351     0.00000061404295     0.00000007518743
   41     0.00000058925217     0.00000049290093     0.00000334730639     0.00000021366607     0.00000038926299
   42     0.00000000033994     0.00000000033805     0.00000000247889     0.00000000191155     0.00000000035339
   43     0.00000000008489     0.00000000021741     0.00000000035613     0.00000000054294     0.00000000018604
   44     0.00000000027736     0.00000000051013     0.00000000402191     0.00000000351763     0.00000000049912
   45     0.00000000066784     0.00000000096251     0.00000001933340     0.00000001214986     0.00000000264653
   46     0.00000000399462     0.00000000774300     0.00000020696831     0.00000003118051     0.00000005287591
   47     0.00000000567976     0.00000000730970     0.00000007699023     0.00000019057532     0.00000002033507
   48     0.00000015691181     0.00000036990569     0.00000395593996     0.00000634366658     0.00000069938980
   49     0.00000035559643     0.00000131929911     0.00002123871431     0.00001676423576     0.00001110647972
   50     0.00000267362350     0.00000873705232     0.00008266544478     0.00012533299865     0.00007826658016
   51     0.00002474701589     0.00024309632231     0.00673842271421     0.00049871603260     0.00027258313128
   52     0.00000061975728     0.00000244033600     0.00005708568645     0.00001787111684     0.00000503714286
   53     0.00002442820870     0.00025588962271     0.00040721403509     0.00050407832760     0.00151248687687
   54     0.00003004256589     0.00044253152181     0.00388308516424     0.00096713802212     0.00793700662641
   55     0.00021822131189     0.00029767174253     0.00064487768705     0.00107133248242     0.00114633211930
   56     0.00068996822092     0.00056432787212     0.00084224556048     0.00735888448324     0.00111079265477
   57     0.00134061604684     0.00128605640036     0.00111119390097     0.00040091994522     0.00051136680663
   58     0.00068492765711     0.00085512152617     0.00503451543395     0.00100257467816     0.00036807603606
   59     0.03498884711290     0.00285975735638     0.00104730505277     0.00706315244790     0.00045361681440
   60     0.03780186431071     0.00116386014939     0.00062932089514     0.00057573925365     0.00022987800151
   61     0.00000000000000     0.00631967223795     0.00114254364232     0.00162460962230     0.00012653475100
   62     0.00631967223795     0.00000000000000     0.02260029555938     0.00927578302390     0.00563669527987
   63     0.00114254364232     0.02260029555938     0.00000000000000     0.02663208565234     0.00940156732976
   64     0.00162460962230     0.00927578302390     0.02663208565234     0.00000000000000     0.02146119654321
   65     0.00012653475100     0.00563669527987     0.00940156732976     0.02146119654321     0.00000000000000
   66     0.00000000014619     0.00000000070143     0.00000000479700     0.00000002289553     0.00000000287223
   67     0.00000000038454     0.00000000076227     0.00000000171650     0.00000001703404     0.00000000342509
   68     0.00000000032068     0.00000000030547     0.00000000179217     0.00000000383689     0.00000000089511

                66                  67                  68

    1     0.00000071543321     0.00000116119741     0.00000024492062
    2     0.00000184736944     0.00000280415177     0.00000074670156
    3     0.00001087448588     0.00001040608581     0.00000390559258
    4     0.00000842178243     0.00000865290424     0.00000822387432
    5     0.00000058673255     0.00000078081704     0.00000046699059
    6     0.00000038714581     0.00000142343211     0.00000016734165
    7     0.00004174246601     0.00004689738951     0.00001417750329
    8     0.00007408769956     0.00011346482075     0.00000577993422
    9     0.00004072670260     0.00004270272998     0.00000436905509
   10     0.00023608698248     0.00032553973196     0.00003269429561
   11     0.00071524877474     0.00098387212236     0.00023268376402
   12     0.00025237608580     0.00030632892699     0.00006221434914
   13     0.00874900058180     0.01069346847001     0.00199943653081
   14     0.01646655135817     0.01671181657647     0.00896252232559
   15     0.05843753748210     0.05827782105128     0.05947754304208
   16     0.01544441368876     0.01482067235348     0.02374214689446
   17     0.00127328500155     0.00125589380264     0.00189169387590
   18     0.00302047517016     0.00273136545588     0.00055720113623
   19     0.00120747144827     0.00126466756131     0.00108740990048
   20     0.00037812767666     0.00032487649353     0.00008399447854
   21     0.00021710920802     0.00020034536295     0.00003092614450
   22     0.00001195407484     0.00001448546884     0.00000700041425
   23     0.00001454273441     0.00001347030981     0.00000285112066
   24     0.00000148060815     0.00000145725298     0.00000031218352
   25     0.00000625016335     0.00000553224852     0.00000027585733
   26     0.00000111318889     0.00000127806033     0.00000029894006
   27     0.00001104148416     0.00001180278042     0.00000155534080
   28     0.00000048032231     0.00000036431781     0.00000003342567
   29     0.00000030110717     0.00000029398131     0.00000001653634
   30     0.00000007175491     0.00000007380060     0.00000001167356
   31     0.00000001880409     0.00000002615456     0.00000001288697
   32     0.00000000605854     0.00000001855772     0.00000002182089
   33     0.00000000232755     0.00000000335014     0.00000000279198
   34     0.00000000367567     0.00000000749341     0.00000000457152
   35     0.00000003500993     0.00000004686146     0.00000001050751
   36     0.00012798065205     0.00012107203430     0.00001652577568
   37     0.91941510094695     0.91843479113569     0.92014452141930
   38     0.00000008557562     0.00000010057556     0.00000003844669
   39     0.00000024131119     0.00000031704744     0.00000009989094
   40     0.00000726245273     0.00000772697643     0.00000832453800
   41     0.00000005185100     0.00000007566635     0.00000004176977
   42     0.00000323746647     0.00000451340688     0.00000045652242
   43     0.00000262627369     0.00000311666287     0.00000061720421
   44     0.00460169360496     0.00450207964684     0.00103542620514
   45     0.00127796712200     0.00119836217519     0.00762225627838
   46     0.00020601333554     0.00022151805561     0.00012793410436
   47     0.00018110325151     0.00018388284669     0.00034824304662
   48     0.00003861788379     0.00004225447911     0.00003859226657
   49     0.00000454523367     0.00000376354109     0.00000112250155
   50     0.00000006965013     0.00000012125288     0.00000004817955
   51     0.00000020458734     0.00000012713892     0.00000008262126
   52     0.00000090182851     0.00000073861361     0.00000045084124
   53     0.00000005364593     0.00000006141873     0.00000001354232
   54     0.00000008500775     0.00000009043793     0.00000000826912
   55     0.00000003932653     0.00000002817578     0.00000000458163
   56     0.00000000254480     0.00000000515391     0.00000000307497
   57     0.00000002092960     0.00000001341025     0.00000000440323
   58     0.00000002161781     0.00000004134600     0.00000000797455
   59     0.00000000054880     0.00000000043598     0.00000000030577
   60     0.00000000065916     0.00000000043199     0.00000000047906
   61     0.00000000014619     0.00000000038454     0.00000000032068
   62     0.00000000070143     0.00000000076227     0.00000000030547
   63     0.00000000479700     0.00000000171650     0.00000000179217
   64     0.00000002289553     0.00000001703404     0.00000000383689
   65     0.00000000287223     0.00000000342509     0.00000000089511
   66     0.00000000000000     0.03489895319156     0.03834726827820
   67     0.03489895319156     0.00000000000000     0.03849631036783
   68     0.03834726827820     0.03849631036783     0.00000000000000



  Atomic Valences: 

 #  #
 Irrep: 1
      1:  4.3917135
      2:  4.4225609
      3:  4.6021452
      4:  4.5825008
      5:  3.9182927
      6:  4.5450803
      7:  4.7420945
      8:  4.3685953
      9:  4.5239668
     10:  3.8634839
     11:  4.9989005
     12:  3.9611280
     13:  4.0345284
     14:  4.6646788
     15:  4.6248882
     16:  4.4374254
     17:  4.4011812
     18:  4.6695442
     19:  4.4260278
     20:  4.0833284
     21:  5.0023664
     22:  4.6166089
     23:  4.4537508
     24:  4.4635942
     25:  4.6994638
     26:  4.4764849
     27:  4.4324886
     28:  4.4807995
     29:  4.2242480
     30:  4.5709789
     31:  4.5689846
     32:  4.2202232
     33:  4.2867685
     34:  4.5575374
     35:  4.5563298
     36:  2.7594816
     37:  4.1507198
     38:  1.0979312
     39:  1.1013666
     40:  1.1153986
     41:  1.0916774
     42:  1.1092913
     43:  1.0860571
     44:  1.1752855
     45:  1.0998110
     46:  1.1065338
     47:  1.1363941
     48:  1.1849925
     49:  1.1135794
     50:  1.1043621
     51:  1.1126963
     52:  1.0971374
     53:  1.1070252
     54:  1.1204745
     55:  1.1792774
     56:  1.0432181
     57:  1.0452509
     58:  1.0825503
     59:  1.1348109
     60:  1.1096905
     61:  1.1053895
     62:  1.1127070
     63:  1.0471095
     64:  1.0432763
     65:  1.0971130
     66:  1.1057386
     67:  1.1062939
     68:  1.1043994


    Psi4 stopped on: Wednesday, 11 March 2020 01:54PM
    Psi4 wall time for execution: 0:20:57.56

*** Psi4 exiting successfully. Buy a developer a beer!
