
    -----------------------------------------------------------------------
          Psi4: An Open-Source Ab Initio Electronic Structure Package
                               Psi4 1.3.2 release

                         Git: Rev {HEAD} ecbda83 


    R. M. Parrish, L. A. Burns, D. G. A. Smith, A. C. Simmonett,
    A. E. DePrince III, E. G. Hohenstein, U. Bozkaya, A. Yu. Sokolov,
    R. Di Remigio, R. M. Richard, J. F. Gonthier, A. M. James,
    H. R. McAlexander, A. Kumar, M. Saitow, X. Wang, B. P. Pritchard,
    P. Verma, H. F. Schaefer III, K. Patkowski, R. A. King, E. F. Valeev,
    F. A. Evangelista, J. M. Turney, T. D. Crawford, and C. D. Sherrill,
    J. Chem. Theory Comput. 13(7) pp 3185--3197 (2017).
    (doi: 10.1021/acs.jctc.7b00174)


                         Additional Contributions by
    P. Kraus, H. Kruse, M. H. Lechner, M. C. Schieber, R. A. Shaw,
    A. Alenaizan, R. Galvelis, Z. L. Glick, S. Lehtola, and J. P. Misiewicz

    -----------------------------------------------------------------------


    Psi4 started on: Tuesday, 10 March 2020 01:40PM

    Process ID: 27632
    Host:       node36.bme.utexas.edu
    PSIDATADIR: /home/bdw2292/miniconda3/envs/p4env/share/psi4
    Memory:     500.0 MiB
    Threads:    1
    
  ==> Input File <==

--------------------------------------------------------------------------
molecule { 
0 1
 C   -1.158714    5.004657   -0.004949
 C   -2.465404    4.533686    0.183191
 C   -2.718643    3.147474    0.202186
 C   -1.582748    2.314901    0.045790
 N   -0.326943    2.743134   -0.134786
 C   -0.129001    4.069855   -0.161791
 C   -4.095857    2.552973    0.371600
 C   -5.277201    3.279808    0.590977
 C   -6.444174    2.517940    0.715293
 N   -6.490573    1.192122    0.623458
 C   -5.311406    0.576513    0.394892
 N   -4.140740    1.209669    0.274861
 N   -5.375309   -0.804451    0.279999
 C   -4.376580   -1.835846    0.140238
 C   -4.719595   -3.190014    0.436524
 C   -3.709617   -4.155262    0.284940
 C   -2.403195   -3.861430   -0.122734
 C   -2.081332   -2.530590   -0.408874
 C   -3.074335   -1.545253   -0.284042
 N   -0.795370   -2.042511   -0.815562
 C    0.431411   -2.660795   -0.881053
 C    1.680581   -1.843781   -1.175748
 C    2.879226   -2.559048   -1.355410
 C    4.074661   -1.893820   -1.636743
 C    4.126333   -0.491848   -1.742508
 C    2.921745    0.214732   -1.572022
 C    1.720929   -0.443113   -1.297058
 C    5.442326    0.239136   -2.011499
 N    6.275261    0.658547   -0.869944
 C    6.965713   -0.381236   -0.073737
 C    6.214637   -0.831136    1.205354
 N    5.803600    0.277515    2.096911
 C    6.829131    0.796995    3.009438
 C    5.057829    1.279698    1.299273
 C    5.785617    1.744542    0.010498
 O    0.536890   -3.868550   -0.723936
 C   -6.098145   -3.621695    0.907139
 H   -0.943008    6.068744   -0.031424
 H   -3.263379    5.263628    0.294329
 H   -1.694143    1.237430    0.087959
 H    0.899739    4.394254   -0.310360
 H   -5.320713    4.358844    0.675271
 H   -7.401382    3.005794    0.896682
 H   -6.323977   -1.111241    0.434877
 H   -3.933306   -5.198211    0.506156
 H   -1.649879   -4.634660   -0.207817
 H   -2.840153   -0.518013   -0.510501
 H   -0.793104   -1.062477   -1.054098
 H    2.856726   -3.642673   -1.267982
 H    4.983333   -2.482958   -1.759238
 H    2.915402    1.302933   -1.635439
 H    0.823536    0.150092   -1.142774
 H    6.070463   -0.400412   -2.648793
 H    5.222111    1.143613   -2.596769
 H    7.243405   -1.221434   -0.699484
 H    8.309970    0.258648    0.439653
 H    7.036236   -1.709542    1.921069
 H    5.068493   -1.515409    0.838521
 H    7.646708    1.270967    2.454549
 H    7.240052   -0.016423    3.618342
 H    6.389821    1.535431    3.690077
 H    4.788389    2.202768    1.985219
 H    3.807614    0.654798    0.902898
 H    7.058025    2.528998    0.517563
 H    5.184199    2.458907   -0.560342
 H   -6.863149   -3.422019    0.143549
 H   -6.396173   -3.088652    1.821078
 H   -6.156570   -4.694357    1.138169
}
memory 20GB
set_num_threads(6)
psi4_io.set_default_path("/scratch/bdw2292")
set freeze_core True
E, wfn = energy('mp2/6-311++G**',return_wfn=True)
oeprop(wfn,"WIBERG_LOWDIN_INDICES")
clean()
--------------------------------------------------------------------------

  Memory set to  18.626 GiB by Python driver.
  Threads set to 6 by Python driver.
    SCF Algorithm Type (re)set to DF.

*** tstart() called on node36.bme.utexas.edu
*** at Tue Mar 10 13:40:33 2020

   => Loading Basis Set <=

    Name: 6-311++G**
    Role: ORBITAL
    Keyword: BASIS
    atoms 1-4, 6-9, 11, 14-19, 21-28, 30-31, 33-35, 37 entry C          line   119 file /home/bdw2292/miniconda3/envs/p4env/share/psi4/basis/6-311ppgss.gbs 
    atoms 5, 10, 12-13, 20, 29, 32                     entry N          line   140 file /home/bdw2292/miniconda3/envs/p4env/share/psi4/basis/6-311ppgss.gbs 
    atoms 36                                           entry O          line   161 file /home/bdw2292/miniconda3/envs/p4env/share/psi4/basis/6-311ppgss.gbs 
    atoms 38-68                                        entry H          line    42 file /home/bdw2292/miniconda3/envs/p4env/share/psi4/basis/6-311ppgss.gbs 


         ---------------------------------------------------------
                                   SCF
               by Justin Turney, Rob Parrish, Andy Simmonett
                          and Daniel G. A. Smith
                              RHF Reference
                        6 Threads,  19073 MiB Core
         ---------------------------------------------------------

  ==> Geometry <==

    Molecular point group: c1
    Full point group: C1

    Geometry (in Angstrom), charge = 0, multiplicity = 1:

       Center              X                  Y                   Z               Mass       
    ------------   -----------------  -----------------  -----------------  -----------------
         C           -1.077538127109     5.021509318748     0.032298461463    12.000000000000
         C           -2.384228127109     4.550538318748     0.220438461463    12.000000000000
         C           -2.637467127109     3.164326318748     0.239433461463    12.000000000000
         C           -1.501572127109     2.331753318748     0.083037461463    12.000000000000
         N           -0.245767127109     2.759986318748    -0.097538538537    14.003074004430
         C           -0.047825127109     4.086707318748    -0.124543538537    12.000000000000
         C           -4.014681127109     2.569825318748     0.408847461463    12.000000000000
         C           -5.196025127109     3.296660318748     0.628224461463    12.000000000000
         C           -6.362998127109     2.534792318748     0.752540461463    12.000000000000
         N           -6.409397127109     1.208974318748     0.660705461463    14.003074004430
         C           -5.230230127109     0.593365318748     0.432139461463    12.000000000000
         N           -4.059564127109     1.226521318748     0.312108461463    14.003074004430
         N           -5.294133127109    -0.787598681252     0.317246461463    14.003074004430
         C           -4.295404127109    -1.818993681252     0.177485461463    12.000000000000
         C           -4.638419127109    -3.173161681252     0.473771461463    12.000000000000
         C           -3.628441127109    -4.138409681252     0.322187461463    12.000000000000
         C           -2.322019127109    -3.844577681252    -0.085486538537    12.000000000000
         C           -2.000156127109    -2.513737681252    -0.371626538537    12.000000000000
         C           -2.993159127109    -1.528400681252    -0.246794538537    12.000000000000
         N           -0.714194127109    -2.025658681252    -0.778314538537    14.003074004430
         C            0.512586872891    -2.643942681252    -0.843805538537    12.000000000000
         C            1.761756872891    -1.826928681252    -1.138500538537    12.000000000000
         C            2.960401872891    -2.542195681252    -1.318162538537    12.000000000000
         C            4.155836872891    -1.876967681252    -1.599495538537    12.000000000000
         C            4.207508872891    -0.474995681252    -1.705260538537    12.000000000000
         C            3.002920872891     0.231584318748    -1.534774538537    12.000000000000
         C            1.802104872891    -0.426260681252    -1.259810538537    12.000000000000
         C            5.523501872891     0.255988318748    -1.974251538537    12.000000000000
         N            6.356436872891     0.675399318748    -0.832696538537    14.003074004430
         C            7.046888872891    -0.364383681252    -0.036489538537    12.000000000000
         C            6.295812872891    -0.814283681252     1.242601461463    12.000000000000
         N            5.884775872891     0.294367318748     2.134158461463    14.003074004430
         C            6.910306872891     0.813847318748     3.046685461463    12.000000000000
         C            5.139004872891     1.296550318748     1.336520461463    12.000000000000
         C            5.866792872891     1.761394318748     0.047745461463    12.000000000000
         O            0.618065872891    -3.851697681252    -0.686688538537    15.994914619570
         C           -6.016969127109    -3.604842681252     0.944386461463    12.000000000000
         H           -0.861832127109     6.085596318748     0.005823461463     1.007825032230
         H           -3.182203127109     5.280480318748     0.331576461463     1.007825032230
         H           -1.612967127109     1.254282318748     0.125206461463     1.007825032230
         H            0.980914872891     4.411106318748    -0.273112538537     1.007825032230
         H           -5.239537127109     4.375696318748     0.712518461463     1.007825032230
         H           -7.320206127109     3.022646318748     0.933929461463     1.007825032230
         H           -6.242801127109    -1.094388681252     0.472124461463     1.007825032230
         H           -3.852130127109    -5.181358681252     0.543403461463     1.007825032230
         H           -1.568703127109    -4.617807681252    -0.170569538537     1.007825032230
         H           -2.758977127109    -0.501160681252    -0.473253538537     1.007825032230
         H           -0.711928127109    -1.045624681252    -1.016850538537     1.007825032230
         H            2.937901872891    -3.625820681252    -1.230734538537     1.007825032230
         H            5.064508872891    -2.466105681252    -1.721990538537     1.007825032230
         H            2.996577872891     1.319785318748    -1.598191538537     1.007825032230
         H            0.904711872891     0.166944318748    -1.105526538537     1.007825032230
         H            6.151638872891    -0.383559681252    -2.611545538537     1.007825032230
         H            5.303286872891     1.160465318748    -2.559521538537     1.007825032230
         H            7.324580872891    -1.204581681252    -0.662236538537     1.007825032230
         H            8.391145872891     0.275500318748     0.476900461463     1.007825032230
         H            7.117411872891    -1.692689681252     1.958316461463     1.007825032230
         H            5.149668872891    -1.498556681252     0.875768461463     1.007825032230
         H            7.727883872891     1.287819318748     2.491796461463     1.007825032230
         H            7.321227872891     0.000429318748     3.655589461463     1.007825032230
         H            6.470996872891     1.552283318748     3.727324461463     1.007825032230
         H            4.869564872891     2.219620318748     2.022466461463     1.007825032230
         H            3.888789872891     0.671650318748     0.940145461463     1.007825032230
         H            7.139200872891     2.545850318748     0.554810461463     1.007825032230
         H            5.265374872891     2.475759318748    -0.523094538537     1.007825032230
         H           -6.781973127109    -3.405166681252     0.180796461463     1.007825032230
         H           -6.314997127109    -3.071799681252     1.858325461463     1.007825032230
         H           -6.075394127109    -4.677504681252     1.175416461463     1.007825032230

  Running in c1 symmetry.

  Rotational constants: A =      0.00464  B =      0.00170  C =      0.00135 [cm^-1]
  Rotational constants: A =    139.12269  B =     50.84255  C =     40.36282 [MHz]
  Nuclear repulsion = 3702.896898582753238

  Charge       = 0
  Multiplicity = 1
  Electrons    = 262
  Nalpha       = 131
  Nbeta        = 131

  ==> Algorithm <==

  SCF Algorithm Type is DF.
  DIIS enabled.
  MOM disabled.
  Fractional occupation disabled.
  Guess Type is SAD.
  Energy threshold   = 1.00e-08
  Density threshold  = 1.00e-08
  Integral threshold = 0.00e+00

  ==> Primary Basis <==

  Basis Set: 6-311++G**
    Blend: 6-311++G**
    Number of shells: 525
    Number of basis function: 1031
    Number of Cartesian functions: 1068
    Spherical Harmonics?: true
    Max angular momentum: 2

   => Loading Basis Set <=

    Name: (6-311++G** AUX)
    Role: JKFIT
    Keyword: DF_BASIS_SCF
    atoms 1-4, 6-9, 11, 14-19, 21-28, 30-31, 33-35, 37 entry C          line   162 file /home/bdw2292/miniconda3/envs/p4env/share/psi4/basis/aug-cc-pvtz-jkfit.gbs 
    atoms 5, 10, 12-13, 20, 29, 32                     entry N          line   224 file /home/bdw2292/miniconda3/envs/p4env/share/psi4/basis/aug-cc-pvtz-jkfit.gbs 
    atoms 36                                           entry O          line   286 file /home/bdw2292/miniconda3/envs/p4env/share/psi4/basis/aug-cc-pvtz-jkfit.gbs 
    atoms 38-68                                        entry H          line    70 file /home/bdw2292/miniconda3/envs/p4env/share/psi4/basis/aug-cc-pvtz-jkfit.gbs 

  ==> Pre-Iterations <==

   -------------------------------------------------------
    Irrep   Nso     Nmo     Nalpha   Nbeta   Ndocc  Nsocc
   -------------------------------------------------------
     A       1031    1031       0       0       0       0
   -------------------------------------------------------
    Total    1031    1031     131     131     131       0
   -------------------------------------------------------

  ==> Integral Setup <==

  ==> DiskDFJK: Density-Fitted J/K Matrices <==

    J tasked:                  Yes
    K tasked:                  Yes
    wK tasked:                  No
    OpenMP threads:              6
    Integrals threads:           6
    Memory [MiB]:            14305
    Algorithm:                Core
    Integral Cache:           NONE
    Schwarz Cutoff:          1E-12
    Fitting Condition:       1E-10

   => Auxiliary Basis Set <=

  Basis Set: (6-311++G** AUX)
    Blend: AUG-CC-PVTZ-JKFIT
    Number of shells: 1544
    Number of basis function: 5274
    Number of Cartesian functions: 6552
    Spherical Harmonics?: true
    Max angular momentum: 4

  Minimum eigenvalue in the overlap matrix is 9.1687335875E-08.
  Using Canonical Orthogonalization with cutoff of 1.0000000000E-07.
  Overall, 1 of 1031 possible MOs eliminated.

  SCF Guess: Superposition of Atomic Densities via on-the-fly atomic UHF.

  ==> Iterations <==

                           Total Energy        Delta E     RMS |[F,P]|

   @DF-RHF iter SAD: -1571.21079254705546   -1.57121e+03   0.00000e+00 
   @DF-RHF iter   1: -1571.33962145644409   -1.28829e-01   1.21483e-03 DIIS
   @DF-RHF iter   2: -1572.10681218075865   -7.67191e-01   6.44224e-04 DIIS
   @DF-RHF iter   3: -1572.30215728298958   -1.95345e-01   1.66921e-04 DIIS
   @DF-RHF iter   4: -1572.31971842216262   -1.75611e-02   6.66668e-05 DIIS
   @DF-RHF iter   5: -1572.32241361994920   -2.69520e-03   1.37288e-05 DIIS
   @DF-RHF iter   6: -1572.32257712062028   -1.63501e-04   6.04055e-06 DIIS
   @DF-RHF iter   7: -1572.32261489231360   -3.77717e-05   2.00601e-06 DIIS
   @DF-RHF iter   8: -1572.32262076161533   -5.86930e-06   7.87746e-07 DIIS
   @DF-RHF iter   9: -1572.32262171346702   -9.51852e-07   3.27692e-07 DIIS
   @DF-RHF iter  10: -1572.32262191446534   -2.00998e-07   1.51185e-07 DIIS
   @DF-RHF iter  11: -1572.32262195888620   -4.44209e-08   7.26989e-08 DIIS
   @DF-RHF iter  12: -1572.32262197124624   -1.23600e-08   2.93035e-08 DIIS
   @DF-RHF iter  13: -1572.32262197354225   -2.29602e-09   1.23544e-08 DIIS
   @DF-RHF iter  14: -1572.32262197378918   -2.46928e-10   5.84530e-09 DIIS
  Energy and wave function converged.


  ==> Post-Iterations <==

    Orbital Energies [Eh]
    ---------------------

    Doubly Occupied:                                                      

       1A    -20.518935     2A    -15.603890     3A    -15.602373  
       4A    -15.588051     5A    -15.574603     6A    -15.572729  
       7A    -15.569966     8A    -15.554710     9A    -11.375971  
      10A    -11.365697    11A    -11.335165    12A    -11.314486  
      13A    -11.313180    14A    -11.309248    15A    -11.306344  
      16A    -11.302076    17A    -11.301398    18A    -11.301358  
      19A    -11.301179    20A    -11.293667    21A    -11.290077  
      22A    -11.281205    23A    -11.281087    24A    -11.266328  
      25A    -11.259540    26A    -11.259128    27A    -11.257492  
      28A    -11.252904    29A    -11.249320    30A    -11.247196  
      31A    -11.247132    32A    -11.245431    33A    -11.243836  
      34A    -11.239496    35A    -11.235402    36A    -11.231385  
      37A    -11.224488    38A     -1.386770    39A     -1.344796  
      40A     -1.279360    41A     -1.250231    42A     -1.245887  
      43A     -1.241021    44A     -1.210162    45A     -1.200087  
      46A     -1.162482    47A     -1.139680    48A     -1.116453  
      49A     -1.075813    50A     -1.059878    51A     -1.049149  
      52A     -1.038387    53A     -1.024574    54A     -1.007845  
      55A     -0.997167    56A     -0.977104    57A     -0.945951  
      58A     -0.927481    59A     -0.926861    60A     -0.901271  
      61A     -0.873279    62A     -0.866856    63A     -0.858471  
      64A     -0.843616    65A     -0.839896    66A     -0.831242  
      67A     -0.825214    68A     -0.806654    69A     -0.778791  
      70A     -0.754934    71A     -0.741535    72A     -0.731925  
      73A     -0.722630    74A     -0.700262    75A     -0.697647  
      76A     -0.683645    77A     -0.678736    78A     -0.668497  
      79A     -0.659996    80A     -0.657054    81A     -0.651959  
      82A     -0.645792    83A     -0.636336    84A     -0.630920  
      85A     -0.623279    86A     -0.617887    87A     -0.612172  
      88A     -0.607599    89A     -0.602844    90A     -0.602389  
      91A     -0.600685    92A     -0.596990    93A     -0.594867  
      94A     -0.593100    95A     -0.589108    96A     -0.581148  
      97A     -0.579279    98A     -0.573382    99A     -0.564435  
     100A     -0.562214   101A     -0.547964   102A     -0.544933  
     103A     -0.538737   104A     -0.526015   105A     -0.524769  
     106A     -0.522369   107A     -0.513452   108A     -0.510056  
     109A     -0.506498   110A     -0.501248   111A     -0.497921  
     112A     -0.492882   113A     -0.485497   114A     -0.481179  
     115A     -0.459604   116A     -0.452657   117A     -0.443619  
     118A     -0.428348   119A     -0.426908   120A     -0.424270  
     121A     -0.415341   122A     -0.400953   123A     -0.389306  
     124A     -0.379581   125A     -0.374150   126A     -0.347958  
     127A     -0.346378   128A     -0.341476   129A     -0.315024  
     130A     -0.309946   131A     -0.289978  

    Virtual:                                                              

     132A      0.025829   133A      0.034116   134A      0.040864  
     135A      0.041212   136A      0.044412   137A      0.047680  
     138A      0.049205   139A      0.056244   140A      0.057387  
     141A      0.060409   142A      0.063733   143A      0.066990  
     144A      0.068130   145A      0.069514   146A      0.072030  
     147A      0.073154   148A      0.074334   149A      0.078752  
     150A      0.084393   151A      0.085844   152A      0.086878  
     153A      0.089580   154A      0.094189   155A      0.094776  
     156A      0.097331   157A      0.099542   158A      0.101272  
     159A      0.102490   160A      0.109161   161A      0.111398  
     162A      0.112475   163A      0.113744   164A      0.115455  
     165A      0.118312   166A      0.119238   167A      0.122043  
     168A      0.124116   169A      0.127726   170A      0.128659  
     171A      0.131838   172A      0.137317   173A      0.140799  
     174A      0.142735   175A      0.146987   176A      0.148164  
     177A      0.149695   178A      0.150170   179A      0.153900  
     180A      0.154751   181A      0.156149   182A      0.159718  
     183A      0.160693   184A      0.164542   185A      0.166179  
     186A      0.166991   187A      0.167856   188A      0.169246  
     189A      0.171995   190A      0.174422   191A      0.177170  
     192A      0.178698   193A      0.180082   194A      0.181328  
     195A      0.183610   196A      0.184349   197A      0.186240  
     198A      0.187039   199A      0.189691   200A      0.190345  
     201A      0.192213   202A      0.197395   203A      0.199710  
     204A      0.202376   205A      0.202757   206A      0.203655  
     207A      0.206315   208A      0.207696   209A      0.210555  
     210A      0.210908   211A      0.212500   212A      0.213019  
     213A      0.215816   214A      0.217313   215A      0.218647  
     216A      0.221613   217A      0.222105   218A      0.222634  
     219A      0.226733   220A      0.227456   221A      0.228542  
     222A      0.230650   223A      0.233206   224A      0.235120  
     225A      0.236370   226A      0.239807   227A      0.240739  
     228A      0.242190   229A      0.243684   230A      0.246408  
     231A      0.248237   232A      0.252300   233A      0.253606  
     234A      0.255621   235A      0.256535   236A      0.260168  
     237A      0.262118   238A      0.264239   239A      0.267069  
     240A      0.268521   241A      0.271149   242A      0.272472  
     243A      0.274513   244A      0.279075   245A      0.282347  
     246A      0.284490   247A      0.286276   248A      0.287362  
     249A      0.289199   250A      0.290999   251A      0.293878  
     252A      0.294913   253A      0.299433   254A      0.301607  
     255A      0.304258   256A      0.305993   257A      0.306172  
     258A      0.311681   259A      0.313236   260A      0.315560  
     261A      0.319177   262A      0.320918   263A      0.322472  
     264A      0.324457   265A      0.326633   266A      0.328608  
     267A      0.333740   268A      0.334813   269A      0.336801  
     270A      0.338085   271A      0.339917   272A      0.343669  
     273A      0.345518   274A      0.347387   275A      0.347508  
     276A      0.350060   277A      0.351803   278A      0.355839  
     279A      0.357147   280A      0.359228   281A      0.363619  
     282A      0.364010   283A      0.365270   284A      0.367943  
     285A      0.370107   286A      0.372697   287A      0.373077  
     288A      0.375775   289A      0.376240   290A      0.377308  
     291A      0.381242   292A      0.381636   293A      0.384455  
     294A      0.385308   295A      0.387158   296A      0.390274  
     297A      0.392321   298A      0.393044   299A      0.394272  
     300A      0.397055   301A      0.398370   302A      0.399358  
     303A      0.401178   304A      0.403834   305A      0.405338  
     306A      0.407414   307A      0.407858   308A      0.410008  
     309A      0.412757   310A      0.413337   311A      0.415109  
     312A      0.418021   313A      0.419142   314A      0.419858  
     315A      0.423117   316A      0.424176   317A      0.425310  
     318A      0.428279   319A      0.430017   320A      0.431921  
     321A      0.433495   322A      0.435697   323A      0.439657  
     324A      0.441013   325A      0.442155   326A      0.445487  
     327A      0.448180   328A      0.451069   329A      0.452709  
     330A      0.454804   331A      0.457068   332A      0.458310  
     333A      0.459221   334A      0.460451   335A      0.464523  
     336A      0.468888   337A      0.470754   338A      0.474002  
     339A      0.475231   340A      0.480208   341A      0.481924  
     342A      0.484467   343A      0.486033   344A      0.487497  
     345A      0.490241   346A      0.492428   347A      0.493765  
     348A      0.497505   349A      0.502351   350A      0.506418  
     351A      0.507398   352A      0.509422   353A      0.512975  
     354A      0.515043   355A      0.516999   356A      0.521533  
     357A      0.522968   358A      0.523270   359A      0.527501  
     360A      0.531040   361A      0.535200   362A      0.536579  
     363A      0.544622   364A      0.545495   365A      0.554007  
     366A      0.554924   367A      0.556237   368A      0.560862  
     369A      0.566889   370A      0.571556   371A      0.576415  
     372A      0.578051   373A      0.582442   374A      0.589794  
     375A      0.593081   376A      0.599718   377A      0.606437  
     378A      0.608678   379A      0.613644   380A      0.617123  
     381A      0.622310   382A      0.631274   383A      0.634369  
     384A      0.636401   385A      0.648131   386A      0.649848  
     387A      0.658249   388A      0.681793   389A      0.684586  
     390A      0.687614   391A      0.694730   392A      0.702313  
     393A      0.705332   394A      0.710000   395A      0.713523  
     396A      0.714264   397A      0.723298   398A      0.726327  
     399A      0.730521   400A      0.739750   401A      0.745045  
     402A      0.750282   403A      0.753821   404A      0.757334  
     405A      0.757813   406A      0.760877   407A      0.764216  
     408A      0.765738   409A      0.769231   410A      0.773002  
     411A      0.774343   412A      0.780251   413A      0.787034  
     414A      0.789330   415A      0.792919   416A      0.798742  
     417A      0.802135   418A      0.806964   419A      0.809134  
     420A      0.812522   421A      0.813347   422A      0.817244  
     423A      0.820484   424A      0.821342   425A      0.826916  
     426A      0.828934   427A      0.838975   428A      0.839498  
     429A      0.841908   430A      0.843771   431A      0.849201  
     432A      0.856051   433A      0.858450   434A      0.863911  
     435A      0.864767   436A      0.868218   437A      0.869788  
     438A      0.877810   439A      0.881452   440A      0.883554  
     441A      0.886128   442A      0.891044   443A      0.891627  
     444A      0.894947   445A      0.897852   446A      0.902052  
     447A      0.903535   448A      0.906627   449A      0.911544  
     450A      0.914729   451A      0.916333   452A      0.922294  
     453A      0.923098   454A      0.925474   455A      0.929841  
     456A      0.932926   457A      0.936679   458A      0.937898  
     459A      0.939406   460A      0.942877   461A      0.946277  
     462A      0.949553   463A      0.953580   464A      0.954381  
     465A      0.957189   466A      0.959928   467A      0.968305  
     468A      0.971783   469A      0.975958   470A      0.977875  
     471A      0.980989   472A      0.985121   473A      0.987589  
     474A      0.991887   475A      0.995327   476A      0.998817  
     477A      1.002943   478A      1.004776   479A      1.007447  
     480A      1.014567   481A      1.017024   482A      1.025217  
     483A      1.027829   484A      1.035719   485A      1.039011  
     486A      1.043869   487A      1.050218   488A      1.051120  
     489A      1.057670   490A      1.059722   491A      1.066937  
     492A      1.067569   493A      1.074361   494A      1.075306  
     495A      1.083621   496A      1.086102   497A      1.089746  
     498A      1.095411   499A      1.100332   500A      1.104496  
     501A      1.107009   502A      1.111958   503A      1.121332  
     504A      1.125136   505A      1.131302   506A      1.135824  
     507A      1.139964   508A      1.141295   509A      1.147521  
     510A      1.149517   511A      1.151577   512A      1.157129  
     513A      1.163189   514A      1.166165   515A      1.170047  
     516A      1.173357   517A      1.175243   518A      1.182751  
     519A      1.183413   520A      1.184217   521A      1.190064  
     522A      1.194530   523A      1.195710   524A      1.198934  
     525A      1.206135   526A      1.206580   527A      1.210118  
     528A      1.212483   529A      1.220771   530A      1.225157  
     531A      1.231957   532A      1.234060   533A      1.235822  
     534A      1.239111   535A      1.244914   536A      1.249025  
     537A      1.249647   538A      1.254715   539A      1.254858  
     540A      1.261709   541A      1.264314   542A      1.269502  
     543A      1.276082   544A      1.277575   545A      1.280697  
     546A      1.282668   547A      1.285339   548A      1.290869  
     549A      1.295575   550A      1.300324   551A      1.303051  
     552A      1.310182   553A      1.315737   554A      1.326778  
     555A      1.327528   556A      1.338415   557A      1.342298  
     558A      1.345883   559A      1.348002   560A      1.353245  
     561A      1.363957   562A      1.370106   563A      1.377388  
     564A      1.381496   565A      1.384056   566A      1.391198  
     567A      1.399184   568A      1.403545   569A      1.411367  
     570A      1.420276   571A      1.421049   572A      1.431657  
     573A      1.438747   574A      1.443106   575A      1.449627  
     576A      1.453381   577A      1.458888   578A      1.464896  
     579A      1.468836   580A      1.481728   581A      1.485697  
     582A      1.497306   583A      1.501597   584A      1.511653  
     585A      1.527412   586A      1.532183   587A      1.537479  
     588A      1.556960   589A      1.559603   590A      1.567956  
     591A      1.577713   592A      1.591361   593A      1.601035  
     594A      1.606796   595A      1.619219   596A      1.620534  
     597A      1.628450   598A      1.632400   599A      1.634781  
     600A      1.653504   601A      1.671706   602A      1.675153  
     603A      1.690899   604A      1.692220   605A      1.697907  
     606A      1.708708   607A      1.716297   608A      1.721212  
     609A      1.724414   610A      1.731655   611A      1.744104  
     612A      1.749747   613A      1.756102   614A      1.763209  
     615A      1.769518   616A      1.773956   617A      1.778137  
     618A      1.780431   619A      1.781961   620A      1.789780  
     621A      1.793402   622A      1.797564   623A      1.803943  
     624A      1.807901   625A      1.809966   626A      1.810396  
     627A      1.814323   628A      1.818540   629A      1.821599  
     630A      1.822606   631A      1.830915   632A      1.836954  
     633A      1.838899   634A      1.842542   635A      1.848973  
     636A      1.850078   637A      1.855867   638A      1.860436  
     639A      1.862808   640A      1.863550   641A      1.865825  
     642A      1.876065   643A      1.883265   644A      1.885273  
     645A      1.896989   646A      1.899343   647A      1.905851  
     648A      1.913622   649A      1.921176   650A      1.926821  
     651A      1.931419   652A      1.932941   653A      1.938965  
     654A      1.944732   655A      1.945336   656A      1.957427  
     657A      1.960507   658A      1.962265   659A      1.967444  
     660A      1.973002   661A      1.974005   662A      1.978776  
     663A      1.981610   664A      1.988454   665A      1.994816  
     666A      1.997348   667A      2.000343   668A      2.001300  
     669A      2.006348   670A      2.007234   671A      2.013976  
     672A      2.016922   673A      2.028347   674A      2.029884  
     675A      2.043040   676A      2.044218   677A      2.047639  
     678A      2.057205   679A      2.059187   680A      2.063783  
     681A      2.067923   682A      2.070060   683A      2.073371  
     684A      2.079881   685A      2.081832   686A      2.090534  
     687A      2.098115   688A      2.101427   689A      2.106677  
     690A      2.121562   691A      2.125002   692A      2.138948  
     693A      2.144163   694A      2.153447   695A      2.162613  
     696A      2.166107   697A      2.170690   698A      2.171623  
     699A      2.179672   700A      2.180213   701A      2.192090  
     702A      2.194635   703A      2.200009   704A      2.211011  
     705A      2.219630   706A      2.221422   707A      2.222496  
     708A      2.227530   709A      2.238662   710A      2.241376  
     711A      2.247927   712A      2.249460   713A      2.253568  
     714A      2.259911   715A      2.263657   716A      2.266080  
     717A      2.270790   718A      2.272115   719A      2.281492  
     720A      2.285994   721A      2.290237   722A      2.295528  
     723A      2.299810   724A      2.301708   725A      2.309199  
     726A      2.313852   727A      2.320885   728A      2.331015  
     729A      2.333047   730A      2.335553   731A      2.344659  
     732A      2.355186   733A      2.359598   734A      2.362667  
     735A      2.368118   736A      2.373816   737A      2.381678  
     738A      2.382733   739A      2.395597   740A      2.400846  
     741A      2.405447   742A      2.411827   743A      2.422254  
     744A      2.426900   745A      2.434117   746A      2.443097  
     747A      2.446534   748A      2.456850   749A      2.460083  
     750A      2.461689   751A      2.482011   752A      2.493337  
     753A      2.502869   754A      2.515647   755A      2.531184  
     756A      2.533417   757A      2.537247   758A      2.540793  
     759A      2.547471   760A      2.555644   761A      2.557677  
     762A      2.571744   763A      2.575406   764A      2.588232  
     765A      2.594685   766A      2.610924   767A      2.617875  
     768A      2.628829   769A      2.630071   770A      2.652317  
     771A      2.654686   772A      2.663223   773A      2.677247  
     774A      2.685231   775A      2.699046   776A      2.707095  
     777A      2.716262   778A      2.726070   779A      2.733268  
     780A      2.742409   781A      2.747696   782A      2.778974  
     783A      2.779956   784A      2.788617   785A      2.792001  
     786A      2.799457   787A      2.801200   788A      2.812841  
     789A      2.821823   790A      2.830046   791A      2.830194  
     792A      2.839825   793A      2.851999   794A      2.853915  
     795A      2.860972   796A      2.864019   797A      2.878227  
     798A      2.879990   799A      2.893363   800A      2.897063  
     801A      2.902805   802A      2.906652   803A      2.918352  
     804A      2.934084   805A      2.942493   806A      2.945983  
     807A      2.946785   808A      2.958893   809A      2.962428  
     810A      2.969374   811A      2.972138   812A      2.977403  
     813A      2.983632   814A      2.991805   815A      2.996621  
     816A      3.002837   817A      3.006073   818A      3.013430  
     819A      3.019350   820A      3.023462   821A      3.030440  
     822A      3.040108   823A      3.045775   824A      3.055553  
     825A      3.056329   826A      3.058263   827A      3.060339  
     828A      3.067718   829A      3.071654   830A      3.078290  
     831A      3.090001   832A      3.093957   833A      3.100115  
     834A      3.103607   835A      3.108312   836A      3.112012  
     837A      3.115331   838A      3.117421   839A      3.121858  
     840A      3.124128   841A      3.127899   842A      3.129308  
     843A      3.136511   844A      3.144744   845A      3.151651  
     846A      3.153823   847A      3.164114   848A      3.171097  
     849A      3.174068   850A      3.193353   851A      3.195018  
     852A      3.203606   853A      3.207510   854A      3.211713  
     855A      3.218249   856A      3.226230   857A      3.236112  
     858A      3.240957   859A      3.245779   860A      3.251515  
     861A      3.259663   862A      3.268127   863A      3.275039  
     864A      3.280988   865A      3.292640   866A      3.299730  
     867A      3.301586   868A      3.302691   869A      3.312537  
     870A      3.314111   871A      3.320850   872A      3.325510  
     873A      3.329741   874A      3.333638   875A      3.338728  
     876A      3.344753   877A      3.350562   878A      3.356179  
     879A      3.357323   880A      3.360492   881A      3.368572  
     882A      3.374861   883A      3.381821   884A      3.388748  
     885A      3.394185   886A      3.398263   887A      3.400509  
     888A      3.415329   889A      3.427938   890A      3.434916  
     891A      3.462404   892A      3.475737   893A      3.508078  
     894A      3.518042   895A      3.519888   896A      3.570203  
     897A      3.575205   898A      3.599805   899A      3.604387  
     900A      3.610413   901A      3.633249   902A      3.635172  
     903A      3.650394   904A      3.658795   905A      3.676119  
     906A      3.682302   907A      3.690141   908A      3.718815  
     909A      3.762869   910A      3.774416   911A      3.780386  
     912A      3.796791   913A      3.798221   914A      3.816059  
     915A      3.825054   916A      3.846332   917A      3.858962  
     918A      3.864489   919A      3.873694   920A      3.903382  
     921A      3.910327   922A      3.924992   923A      3.930819  
     924A      3.939550   925A      3.949703   926A      3.954744  
     927A      3.958675   928A      3.976117   929A      3.989405  
     930A      4.008021   931A      4.014704   932A      4.045106  
     933A      4.057450   934A      4.072752   935A      4.093617  
     936A      4.098013   937A      4.111263   938A      4.123039  
     939A      4.127421   940A      4.149427   941A      4.156198  
     942A      4.182764   943A      4.187419   944A      4.191857  
     945A      4.203973   946A      4.204362   947A      4.208566  
     948A      4.253371   949A      4.318138   950A      4.353253  
     951A      4.362905   952A      4.380753   953A      4.403137  
     954A      4.413820   955A      4.414674   956A      4.418948  
     957A      4.426888   958A      4.430743   959A      4.446250  
     960A      4.448042   961A      4.467916   962A      4.519233  
     963A      4.548019   964A      4.552221   965A      4.585089  
     966A      4.595778   967A      4.601098   968A      4.627945  
     969A      4.683837   970A      4.716204   971A      4.768646  
     972A      4.769476   973A      4.811459   974A      4.907706  
     975A      4.939564   976A      5.006872   977A      5.047497  
     978A      5.231783   979A      5.247301   980A      5.267780  
     981A      5.283204   982A      5.294423   983A      5.337656  
     984A      5.361306   985A      5.381513   986A      5.415818  
     987A      5.632786   988A      5.678387   989A      5.688633  
     990A      5.800398   991A      5.852901   992A      5.891578  
     993A      6.408732   994A     24.770553   995A     24.776512  
     996A     24.818081   997A     24.838889   998A     24.866672  
     999A     24.921047  1000A     24.936145  1001A     24.997017  
    1002A     25.009012  1003A     25.014298  1004A     25.037603  
    1005A     25.069185  1006A     25.070543  1007A     25.091923  
    1008A     25.100764  1009A     25.119211  1010A     25.122434  
    1011A     25.129581  1012A     25.136185  1013A     25.144934  
    1014A     25.170221  1015A     25.203463  1016A     25.208479  
    1017A     25.234763  1018A     25.246162  1019A     25.248006  
    1020A     25.252924  1021A     25.320322  1022A     25.328653  
    1023A     36.948470  1024A     36.985321  1025A     37.022283  
    1026A     37.075580  1027A     37.081237  1028A     37.131959  
    1029A     37.151674  1030A     51.781048  

    Final Occupation by Irrep:
              A 
    DOCC [   131 ]

  @DF-RHF Final Energy: -1572.32262197378918

   => Energetics <=

    Nuclear Repulsion Energy =           3702.8968985827532379
    One-Electron Energy =               -9503.9367403944706894
    Two-Electron Energy =                4228.7172198379284964
    Total Energy =                      -1572.3226219737889551

Computation Completed


Properties will be evaluated at   0.000000,   0.000000,   0.000000 [a0]

Properties computed using the SCF density matrix

  Nuclear Dipole Moment: [e a0]
     X:    39.8413      Y:     3.3839      Z:     8.5186

  Electronic Dipole Moment: [e a0]
     X:   -40.9781      Y:    -0.8099      Z:    -8.6558

  Dipole Moment: [e a0]
     X:    -1.1368      Y:     2.5741      Z:    -0.1372     Total:     2.8173

  Dipole Moment: [D]
     X:    -2.8895      Y:     6.5427      Z:    -0.3487     Total:     7.1608


*** tstop() called on node36.bme.utexas.edu at Tue Mar 10 14:17:45 2020
Module time:
	user time   =   12383.59 seconds =     206.39 minutes
	system time =     285.80 seconds =       4.76 minutes
	total time  =       2232 seconds =      37.20 minutes
Total time:
	user time   =   12383.59 seconds =     206.39 minutes
	system time =     285.80 seconds =       4.76 minutes
	total time  =       2232 seconds =      37.20 minutes

*** tstart() called on node36.bme.utexas.edu
*** at Tue Mar 10 14:17:45 2020


  //>>>>>>>>>>>>>>>>>>>>>>>>>>>>>>>>>>>//
  //               DFMP2               //
  //<<<<<<<<<<<<<<<<<<<<<<<<<<<<<<<<<<<//

   => Loading Basis Set <=

    Name: (6-311++G** AUX)
    Role: RIFIT
    Keyword: DF_BASIS_MP2
    atoms 1-4, 6-9, 11, 14-19, 21-28, 30-31, 33-35, 37 entry C          line   148 file /home/bdw2292/miniconda3/envs/p4env/share/psi4/basis/aug-cc-pvtz-ri.gbs 
    atoms 5, 10, 12-13, 20, 29, 32                     entry N          line   206 file /home/bdw2292/miniconda3/envs/p4env/share/psi4/basis/aug-cc-pvtz-ri.gbs 
    atoms 36                                           entry O          line   264 file /home/bdw2292/miniconda3/envs/p4env/share/psi4/basis/aug-cc-pvtz-ri.gbs 
    atoms 38-68                                        entry H          line    30 file /home/bdw2292/miniconda3/envs/p4env/share/psi4/basis/aug-cc-pvtz-ri.gbs 

	 --------------------------------------------------------
	                          DF-MP2                         
	      2nd-Order Density-Fitted Moller-Plesset Theory     
	              RMP2 Wavefunction,   6 Threads             
	                                                         
	        Rob Parrish, Justin Turney, Andy Simmonett,      
	           Ed Hohenstein, and C. David Sherrill          
	 --------------------------------------------------------

   => Auxiliary Basis Set <=

  Basis Set: (6-311++G** AUX)
    Blend: AUG-CC-PVTZ-RI
    Number of shells: 1470
    Number of basis function: 5348
    Number of Cartesian functions: 6737
    Spherical Harmonics?: true
    Max angular momentum: 4

	 --------------------------------------------------------
	                 NBF =  1031, NAUX =  5348
	 --------------------------------------------------------
	   CLASS    FOCC     OCC    AOCC    AVIR     VIR    FVIR
	   PAIRS      37     131      94     899     899       0
	 --------------------------------------------------------

	-----------------------------------------------------------
	 ==================> DF-MP2 Energies <==================== 
	-----------------------------------------------------------
	 Reference Energy          =   -1572.3226219737891824 [Eh]
	 Singles Energy            =      -0.0000000000000000 [Eh]
	 Same-Spin Energy          =      -1.4704768740413581 [Eh]
	 Opposite-Spin Energy      =      -4.0482770735554325 [Eh]
	 Correlation Energy        =      -5.5187539475967906 [Eh]
	 Total Energy              =   -1577.8413759213858611 [Eh]
	-----------------------------------------------------------
	 ================> DF-SCS-MP2 Energies <================== 
	-----------------------------------------------------------
	 SCS Same-Spin Scale       =       0.3333333333333333 [-]
	 SCS Opposite-Spin Scale   =       1.2000000000000000 [-]
	 SCS Same-Spin Energy      =      -0.4901589580137860 [Eh]
	 SCS Opposite-Spin Energy  =      -4.8579324882665187 [Eh]
	 SCS Correlation Energy    =      -5.3480914462803044 [Eh]
	 SCS Total Energy          =   -1577.6707134200694327 [Eh]
	-----------------------------------------------------------


*** tstop() called on node36.bme.utexas.edu at Tue Mar 10 14:36:30 2020
Module time:
	user time   =    6233.72 seconds =     103.90 minutes
	system time =     117.93 seconds =       1.97 minutes
	total time  =       1125 seconds =      18.75 minutes
Total time:
	user time   =   18617.31 seconds =     310.29 minutes
	system time =     403.73 seconds =       6.73 minutes
	total time  =       3357 seconds =      55.95 minutes


Properties will be evaluated at   0.000000,   0.000000,   0.000000 [a0]
OEProp: No title given, name of density matrix used for the following properties is 'SCF density'


  Wiberg Bond Indices using Orthogonal Lowdin Orbitals:

  Irrep: 1 Size: 68 x 68

                 1                   2                   3                   4                   5

    1     0.00000000000000     1.46447571194074     0.12491184065293     0.14044479641946     0.12373705679969
    2     1.46447571194074     0.00000000000000     1.40141381913298     0.12879558011887     0.12150546650188
    3     0.12491184065293     1.40141381913298     0.00000000000000     1.36153822274151     0.11851401229417
    4     0.14044479641946     0.12879558011887     1.36153822274151     0.00000000000000     1.66370484551082
    5     0.12373705679969     0.12150546650188     0.11851401229417     1.66370484551082     0.00000000000000
    6     1.46636991565347     0.13822946345736     0.13581377060542     0.15392332682177     1.62794895138460
    7     0.01457994931481     0.10290723593386     1.01993078054676     0.10313082097691     0.01382784091471
    8     0.00356107553616     0.04153215060567     0.09786526873306     0.02382517829033     0.00217583389405
    9     0.00036347200074     0.00468605570587     0.01475177539360     0.00408262757679     0.00068499262903
   10     0.00040618384968     0.00536585905490     0.00574120323299     0.00604971740127     0.00032204411790
   11     0.00088479575470     0.00336330406971     0.01810312624191     0.00681797283872     0.00042588088406
   12     0.00278600981390     0.02216290064852     0.11960048083067     0.06186168599220     0.00406021551769
   13     0.00016998516407     0.00048594512805     0.00163279355732     0.00093475566928     0.00008809339068
   14     0.00003119335481     0.00009288545480     0.00055199736087     0.00123250670265     0.00010576615843
   15     0.00001102276270     0.00002307173178     0.00006672407769     0.00014769975420     0.00001605128800
   16     0.00000205745548     0.00000502563888     0.00003897137360     0.00022174277891     0.00001100675581
   17     0.00001269487863     0.00002020861585     0.00005443492222     0.00028146800972     0.00004180581463
   18     0.00002319456531     0.00005146779659     0.00027458540004     0.00167030918409     0.00020358500561
   19     0.00015097648219     0.00024973877963     0.00195117233123     0.01062377658713     0.00059728192235
   20     0.00003941706290     0.00007074901415     0.00032606846863     0.00308193507428     0.00050122261752
   21     0.00001055696177     0.00001220474500     0.00005198342556     0.00035585841543     0.00015485561325
   22     0.00004113190564     0.00002316868948     0.00003971190737     0.00048055973259     0.00116566416345
   23     0.00000580871457     0.00000352072708     0.00000841860171     0.00012147869068     0.00037290313091
   24     0.00000487080035     0.00000253437819     0.00000606016749     0.00010093284537     0.00031121989127
   25     0.00000861444942     0.00000498864123     0.00001093971948     0.00007745518431     0.00025862180350
   26     0.00011358192970     0.00011550672668     0.00016974684514     0.00073473708721     0.00633473909862
   27     0.00038826120472     0.00025681908136     0.00029871674563     0.00501851488823     0.01707121969592
   28     0.00000221417106     0.00000114787114     0.00000196637989     0.00001264522278     0.00003032822178
   29     0.00000161098755     0.00000064481892     0.00000114512637     0.00000585303524     0.00001140232496
   30     0.00000060188902     0.00000046168882     0.00000043598537     0.00000222424544     0.00000524866274
   31     0.00000128258455     0.00000054679850     0.00000089323962     0.00000250526416     0.00000784722276
   32     0.00000294549399     0.00000118462409     0.00000173803021     0.00001196240394     0.00001985665187
   33     0.00000080649837     0.00000019337063     0.00000033835271     0.00000158314927     0.00000370765638
   34     0.00002461583703     0.00002733231834     0.00002401941927     0.00001794389777     0.00008702711709
   35     0.00001333574752     0.00000698439609     0.00000548636542     0.00001445558275     0.00006188015736
   36     0.00000152792990     0.00000242425101     0.00001153469527     0.00015636107549     0.00004029544161
   37     0.00000209817001     0.00000746795830     0.00003214500052     0.00003672370342     0.00000312475470
   38     0.88614207889120     0.07927909944206     0.01175666456025     0.00636222239171     0.01069400055580
   39     0.07770249435117     0.87050667081666     0.07262176063686     0.01175576908554     0.00394239610959
   40     0.00569235239751     0.01058925874609     0.06961483723705     0.85056633033490     0.08686451354908
   41     0.07738151647272     0.01181369471893     0.00605105920686     0.01591986004793     0.08775737308465
   42     0.00108369031932     0.01421249659092     0.01426452109969     0.00134974003609     0.00028667264633
   43     0.00004422152158     0.00028207090531     0.00144562117333     0.00031541854948     0.00007760046960
   44     0.00002494877269     0.00008309780589     0.00035093827572     0.00008924726597     0.00000773941372
   45     0.00000035296409     0.00000096387847     0.00000637668538     0.00001778578749     0.00000154051800
   46     0.00000080024197     0.00000157563247     0.00000701420749     0.00002697819380     0.00000785660224
   47     0.00011401331753     0.00021275316837     0.00204225953445     0.00835677037482     0.00064305428479
   48     0.00007759157130     0.00007467608365     0.00023133792854     0.00254207888140     0.00075736779157
   49     0.00000094995453     0.00000055317248     0.00000088295531     0.00000731184983     0.00002967002351
   50     0.00000055852016     0.00000032396299     0.00000111179370     0.00001240477334     0.00001892914262
   51     0.00003792829052     0.00005028776826     0.00007443864415     0.00015290610833     0.00145534771304
   52     0.00034866477286     0.00015856302969     0.00023908411223     0.00439942323274     0.01133782095741
   53     0.00000039937173     0.00000005965718     0.00000026944055     0.00000451772264     0.00000615911197
   54     0.00000074550158     0.00000046665730     0.00000048168541     0.00000217428220     0.00000647636926
   55     0.00000006905365     0.00000004347542     0.00000008076844     0.00000042792956     0.00000105471119
   56     0.00000026313522     0.00000014346256     0.00000007900055     0.00000073095042     0.00000079113540
   57     0.00000006618549     0.00000002625466     0.00000005046948     0.00000023850667     0.00000054622518
   58     0.00000054306559     0.00000028028972     0.00000036412615     0.00000174400003     0.00000439909818
   59     0.00000020223391     0.00000005713141     0.00000009072649     0.00000037598567     0.00000073867380
   60     0.00000007356034     0.00000002401454     0.00000002382054     0.00000009239349     0.00000027625947
   61     0.00000011958284     0.00000003183330     0.00000004158668     0.00000025412768     0.00000044684883
   62     0.00000560168611     0.00001006313006     0.00001031819722     0.00000387001782     0.00001252303943
   63     0.00000859146196     0.00002145434607     0.00001494413202     0.00002285637414     0.00025583550126
   64     0.00000031991772     0.00000021811581     0.00000010178778     0.00000630860197     0.00001186620779
   65     0.00001742199289     0.00000623879536     0.00000257645521     0.00000356507866     0.00002825530668
   66     0.00000080490485     0.00000197875217     0.00001090648646     0.00000838285238     0.00000057860978
   67     0.00000111186424     0.00000287600627     0.00001040864791     0.00000871344137     0.00000076040432
   68     0.00000024916044     0.00000073340036     0.00000377721319     0.00000822738751     0.00000047583298

                 6                   7                   8                   9                  10

    1     1.46636991565347     0.01457994931481     0.00356107553616     0.00036347200074     0.00040618384968
    2     0.13822946345736     0.10290723593386     0.04153215060567     0.00468605570587     0.00536585905490
    3     0.13581377060542     1.01993078054676     0.09786526873306     0.01475177539360     0.00574120323299
    4     0.15392332682177     0.10313082097691     0.02382517829033     0.00408262757679     0.00604971740127
    5     1.62794895138460     0.01382784091471     0.00217583389405     0.00068499262903     0.00032204411790
    6     0.00000000000000     0.00964163948019     0.00683701243731     0.00119626719133     0.00336186991907
    7     0.00964163948019     0.00000000000000     1.38953000637094     0.14696160605747     0.11222075441201
    8     0.00683701243731     1.38953000637094     0.00000000000000     1.43154753869571     0.13085006855768
    9     0.00119626719133     0.14696160605747     1.43154753869571     0.00000000000000     1.66391525333527
   10     0.00336186991907     0.11222075441201     0.13085006855768     1.66391525333527     0.00000000000000
   11     0.00084834571663     0.14173840670571     0.11306704655235     0.15265724472122     1.50596949906446
   12     0.00601119817113     1.53028470994638     0.12592721566794     0.11081895247103     0.10972936774303
   13     0.00007273757518     0.01927332161490     0.02050431263953     0.02430218443192     0.15972375405008
   14     0.00004243420862     0.00285595164116     0.00247046061215     0.00326436489365     0.01687805269130
   15     0.00000527979388     0.00049958345876     0.00143483166980     0.00093974022997     0.00312138998881
   16     0.00000355108062     0.00016195160190     0.00019265869376     0.00016318991397     0.00047252990578
   17     0.00000729393250     0.00024609221531     0.00127763191726     0.00044554570448     0.00125013049330
   18     0.00004028135477     0.00053630879016     0.00026038291829     0.00014013358827     0.00040152446711
   19     0.00019010914890     0.00559168928866     0.00308472793121     0.00152531237336     0.00428746897024
   20     0.00006679074075     0.00013063215111     0.00002870555114     0.00001791079385     0.00005926971909
   21     0.00001945006159     0.00002188728357     0.00000853761341     0.00000478248159     0.00001595572806
   22     0.00012920991588     0.00000606433599     0.00000235076282     0.00000113960273     0.00000281221931
   23     0.00006469752813     0.00000219970567     0.00000096729799     0.00000029931616     0.00000083377165
   24     0.00007152076049     0.00000138104794     0.00000043397340     0.00000016517635     0.00000024736354
   25     0.00012323576546     0.00000191806526     0.00000104568355     0.00000017260607     0.00000031603571
   26     0.00091345901907     0.00001937006093     0.00001072493320     0.00000158614739     0.00000160086062
   27     0.00147410978070     0.00004865531555     0.00001216687218     0.00000324909775     0.00000329034920
   28     0.00002897517965     0.00000048245111     0.00000016110374     0.00000002982009     0.00000004589100
   29     0.00001188874970     0.00000019843269     0.00000007605969     0.00000001412130     0.00000003138183
   30     0.00000918642498     0.00000009122838     0.00000004315612     0.00000001090981     0.00000001977010
   31     0.00000800843131     0.00000016745252     0.00000008314089     0.00000002346417     0.00000002078493
   32     0.00003188679985     0.00000025416258     0.00000012986075     0.00000002863121     0.00000004203022
   33     0.00000698687838     0.00000009662341     0.00000003373166     0.00000001194994     0.00000001231319
   34     0.00006011993933     0.00000194911811     0.00000260458892     0.00000034191974     0.00000106228029
   35     0.00004841284662     0.00000092106131     0.00000028660879     0.00000005029594     0.00000009343967
   36     0.00000551604621     0.00001146308759     0.00000918974992     0.00000431395643     0.00001202709146
   37     0.00000198495046     0.00014389999297     0.00013893841006     0.00013628845159     0.00076453049030
   38     0.08240904802552     0.00128506084395     0.00024701350858     0.00003875793685     0.00002517679828
   39     0.01172332024861     0.01610439285928     0.01485402557366     0.00115156157894     0.00039706144179
   40     0.01478589698633     0.01561240692912     0.00166193367273     0.00039317964329     0.00061916170304
   41     0.87957311623937     0.00054087036478     0.00026631021855     0.00005208425821     0.00010444683044
   42     0.00048267395649     0.07567172727972     0.87610929570193     0.08046901385660     0.01041801933122
   43     0.00004335063289     0.01180194734777     0.07624995559375     0.87533403795215     0.08902597960373
   44     0.00001156992260     0.00205753002431     0.00201243760655     0.00366637532322     0.03134735003273
   45     0.00000034904333     0.00001834486349     0.00000864216163     0.00002321635622     0.00005294585607
   46     0.00000110600681     0.00002287047521     0.00004083909813     0.00001631847083     0.00005087063791
   47     0.00021101244024     0.00412589048337     0.00091652069816     0.00041510439798     0.00075789395566
   48     0.00009744639119     0.00009343692804     0.00002777506852     0.00001039666315     0.00002249627973
   49     0.00000680215685     0.00000037392589     0.00000008603318     0.00000005282482     0.00000010062808
   50     0.00000357956011     0.00000011288333     0.00000007515423     0.00000001232224     0.00000002851835
   51     0.00050024635369     0.00000606103586     0.00000399536510     0.00000061467676     0.00000102550601
   52     0.00114590425423     0.00004150958803     0.00001034455100     0.00000272080827     0.00000189240603
   53     0.00000343719152     0.00000005727097     0.00000002297876     0.00000000454541     0.00000000723426
   54     0.00001137570179     0.00000008460071     0.00000002949117     0.00000000518823     0.00000000875176
   55     0.00000092966737     0.00000001691009     0.00000000829574     0.00000000353399     0.00000000153055
   56     0.00000611315135     0.00000002790260     0.00000001066417     0.00000000224880     0.00000000466875
   57     0.00000035824342     0.00000001565737     0.00000000724431     0.00000000234424     0.00000000344345
   58     0.00000305779343     0.00000007261905     0.00000002778556     0.00000000534422     0.00000001658519
   59     0.00000255391104     0.00000002659643     0.00000001006725     0.00000000391447     0.00000000282353
   60     0.00000023567746     0.00000001561217     0.00000000308091     0.00000000171697     0.00000000098520
   61     0.00000029474590     0.00000001529268     0.00000000336226     0.00000000225232     0.00000000139710
   62     0.00000969970613     0.00000039384487     0.00000113216570     0.00000015235594     0.00000055822862
   63     0.00004136291719     0.00000149960756     0.00000150184828     0.00000024050600     0.00000050730519
   64     0.00001226737912     0.00000001907564     0.00000001895042     0.00000000425009     0.00000000533643
   65     0.00004106173673     0.00000072202579     0.00000011249432     0.00000001632230     0.00000002644844
   66     0.00000040744484     0.00004276747897     0.00007509894803     0.00004211836444     0.00024743971761
   67     0.00000133972720     0.00004635296846     0.00011149762963     0.00004341357588     0.00033307620328
   68     0.00000017757654     0.00001419961191     0.00000622468328     0.00000441426535     0.00003447489760

                11                  12                  13                  14                  15

    1     0.00088479575470     0.00278600981390     0.00016998516407     0.00003119335481     0.00001102276270
    2     0.00336330406971     0.02216290064852     0.00048594512805     0.00009288545480     0.00002307173178
    3     0.01810312624191     0.11960048083067     0.00163279355732     0.00055199736087     0.00006672407769
    4     0.00681797283872     0.06186168599220     0.00093475566928     0.00123250670265     0.00014769975420
    5     0.00042588088406     0.00406021551769     0.00008809339068     0.00010576615843     0.00001605128800
    6     0.00084834571663     0.00601119817113     0.00007273757518     0.00004243420862     0.00000527979388
    7     0.14173840670571     1.53028470994638     0.01927332161490     0.00285595164116     0.00049958345876
    8     0.11306704655235     0.12592721566794     0.02050431263953     0.00247046061215     0.00143483166980
    9     0.15265724472122     0.11081895247103     0.02430218443192     0.00326436489365     0.00093974022997
   10     1.50596949906446     0.10972936774303     0.15972375405008     0.01687805269130     0.00312138998881
   11     0.00000000000000     1.53374922904056     1.26962597973314     0.08230495137552     0.01790833804252
   12     1.53374922904056     0.00000000000000     0.14155393607836     0.02915323495560     0.00346312858673
   13     1.26962597973314     0.14155393607836     0.00000000000000     1.12573267070093     0.10585871040811
   14     0.08230495137552     0.02915323495560     1.12573267070093     0.00000000000000     1.31586975473398
   15     0.01790833804252     0.00346312858673     0.10585871040811     1.31586975473398     0.00000000000000
   16     0.00239435752493     0.00114937462466     0.01433382948470     0.12590176926075     1.44216862581554
   17     0.00415249014171     0.00246528236320     0.01182332008069     0.11945704722359     0.12430798914781
   18     0.00241319567220     0.00469796960519     0.01322076967131     0.12282597384068     0.12030529174872
   19     0.02840660769705     0.05444731374517     0.11087643951127     1.40434873959682     0.11918075599196
   20     0.00033913654734     0.00110317681068     0.00133045742315     0.01513211667160     0.01119940676210
   21     0.00006204060784     0.00012998866796     0.00030305311743     0.00276077274332     0.00573532320680
   22     0.00001061263967     0.00002257489981     0.00005601090153     0.00034673717422     0.00026837165392
   23     0.00000282111593     0.00000403485291     0.00001292185281     0.00010253818112     0.00038246086438
   24     0.00000056949729     0.00000113201995     0.00000266035605     0.00001981052825     0.00004704181450
   25     0.00000101008819     0.00000288149784     0.00000117098413     0.00002659301125     0.00022480346737
   26     0.00000205833831     0.00000919673529     0.00000212272601     0.00001137827027     0.00003960968311
   27     0.00001232092190     0.00008677317234     0.00001020788214     0.00010258360012     0.00031741318046
   28     0.00000014646224     0.00000041324584     0.00000021958006     0.00000251201908     0.00001608670012
   29     0.00000006048095     0.00000012623298     0.00000007261954     0.00000155911079     0.00001381352448
   30     0.00000005308838     0.00000012800785     0.00000004629137     0.00000041922300     0.00000214251064
   31     0.00000007732046     0.00000017487664     0.00000004537980     0.00000031082579     0.00000143785770
   32     0.00000010837957     0.00000012557142     0.00000002320734     0.00000009531047     0.00000020179597
   33     0.00000002279148     0.00000004969473     0.00000000659657     0.00000004668872     0.00000013496562
   34     0.00000026756214     0.00000180375728     0.00000010952865     0.00000031456076     0.00000113872599
   35     0.00000010844586     0.00000038670387     0.00000007379109     0.00000040632855     0.00000254298024
   36     0.00004176841045     0.00005608459330     0.00015498457792     0.00105648960341     0.00341444554945
   37     0.00364848927290     0.00077788961857     0.03793919228169     0.09638687310556     1.06065058483468
   38     0.00009029862198     0.00031320690308     0.00001634249129     0.00000671881928     0.00000078449774
   39     0.00028650408164     0.00108697651947     0.00006646281424     0.00002541050983     0.00000402805227
   40     0.00276371315658     0.02546604895142     0.00041319324985     0.00117849286664     0.00016624140464
   41     0.00004319678294     0.00025241713483     0.00000547429341     0.00000391000004     0.00000052170630
   42     0.00572883251016     0.01067704072961     0.00103585315628     0.00011920605075     0.00006458148206
   43     0.01580958776919     0.00399450570848     0.00134262767288     0.00038218727140     0.00006173560822
   44     0.07349256864958     0.01149210133888     0.93439129323418     0.05963904769542     0.01502993628078
   45     0.00036831456056     0.00006205131253     0.00115977230759     0.01143270599441     0.07480999703697
   46     0.00014748658606     0.00015367573406     0.00050748341684     0.00523461229475     0.01050807049401
   47     0.00966978986331     0.03744886093739     0.01605813957044     0.07363250329509     0.00966968953910
   48     0.00012492514960     0.00071654160052     0.00017945579893     0.00209803280018     0.00112044631456
   49     0.00000060234216     0.00000068516975     0.00000212740640     0.00001627780797     0.00002138561316
   50     0.00000006176293     0.00000009714348     0.00000056229550     0.00000282251005     0.00000242070550
   51     0.00000040457405     0.00000215061039     0.00000033991899     0.00000128866791     0.00000073102156
   52     0.00000858632614     0.00004764120419     0.00000397755519     0.00003239900035     0.00003008420610
   53     0.00000001685892     0.00000004568468     0.00000004038996     0.00000032408397     0.00000159478738
   54     0.00000001824854     0.00000004003053     0.00000003282849     0.00000034436202     0.00000187592535
   55     0.00000000346200     0.00000001499794     0.00000000986330     0.00000005935120     0.00000027316385
   56     0.00000000753329     0.00000003402699     0.00000001006182     0.00000009529549     0.00000060763284
   57     0.00000001265470     0.00000003291353     0.00000000457091     0.00000002862334     0.00000016520456
   58     0.00000001741641     0.00000009415948     0.00000005193522     0.00000026974238     0.00000103343819
   59     0.00000000592834     0.00000001354981     0.00000000156732     0.00000001368405     0.00000004932407
   60     0.00000000172181     0.00000000857692     0.00000000101876     0.00000000499134     0.00000001865456
   61     0.00000000464305     0.00000001143943     0.00000000103380     0.00000000569726     0.00000000886462
   62     0.00000007830335     0.00000023250637     0.00000005112958     0.00000003215619     0.00000009140954
   63     0.00000031447285     0.00000243377592     0.00000022956115     0.00000044252881     0.00000219119221
   64     0.00000001490771     0.00000001690733     0.00000000768175     0.00000010717086     0.00000062440015
   65     0.00000004791913     0.00000018981609     0.00000001022594     0.00000004193974     0.00000010763561
   66     0.00074674896730     0.00025698808806     0.00898175242763     0.01647809328310     0.05836190720349
   67     0.00097987303724     0.00030020161601     0.01044560483993     0.01660250837790     0.05825473345904
   68     0.00023456245335     0.00006212266725     0.00201679829090     0.00893945541433     0.05940211514766

                16                  17                  18                  19                  20

    1     0.00000205745548     0.00001269487863     0.00002319456531     0.00015097648219     0.00003941706290
    2     0.00000502563888     0.00002020861585     0.00005146779659     0.00024973877963     0.00007074901415
    3     0.00003897137360     0.00005443492222     0.00027458540004     0.00195117233123     0.00032606846863
    4     0.00022174277891     0.00028146800972     0.00167030918409     0.01062377658713     0.00308193507428
    5     0.00001100675581     0.00004180581463     0.00020358500561     0.00059728192235     0.00050122261752
    6     0.00000355108062     0.00000729393250     0.00004028135477     0.00019010914890     0.00006679074075
    7     0.00016195160190     0.00024609221531     0.00053630879016     0.00559168928866     0.00013063215111
    8     0.00019265869376     0.00127763191726     0.00026038291829     0.00308472793121     0.00002870555114
    9     0.00016318991397     0.00044554570448     0.00014013358827     0.00152531237336     0.00001791079385
   10     0.00047252990578     0.00125013049330     0.00040152446711     0.00428746897024     0.00005926971909
   11     0.00239435752493     0.00415249014171     0.00241319567220     0.02840660769705     0.00033913654734
   12     0.00114937462466     0.00246528236320     0.00469796960519     0.05444731374517     0.00110317681068
   13     0.01433382948470     0.01182332008069     0.01322076967131     0.11087643951127     0.00133045742315
   14     0.12590176926075     0.11945704722359     0.12282597384068     1.40434873959682     0.01513211667160
   15     1.44216862581554     0.12430798914781     0.12030529174872     0.11918075599196     0.01119940676210
   16     0.00000000000000     1.44425075741670     0.13304384735835     0.12558074570317     0.01354367279358
   17     1.44425075741670     0.00000000000000     1.40005312864207     0.12153043761487     0.10384014925644
   18     0.13304384735835     1.40005312864207     0.00000000000000     1.36159234588311     1.12245757519386
   19     0.12558074570317     0.12153043761487     1.36159234588311     0.00000000000000     0.12382543904988
   20     0.01354367279358     0.10384014925644     1.12245757519386     0.12382543904988     0.00000000000000
   21     0.00277639722351     0.03124632963223     0.08615533197143     0.02248886157548     1.31417249796925
   22     0.00034810902439     0.00319928535629     0.01417698720642     0.00190386684698     0.09727639251232
   23     0.00010035398519     0.00098734906058     0.00220495090578     0.00076859645387     0.01734935394898
   24     0.00002000941994     0.00013953217436     0.00048105173292     0.00011425601299     0.00245465044772
   25     0.00003038568378     0.00032797907534     0.00030427565404     0.00028560429992     0.00340366825904
   26     0.00001950522792     0.00015929474934     0.00031658553844     0.00011178026822     0.00317207021827
   27     0.00013690219292     0.00112312358179     0.00324782867129     0.00102417889850     0.03873203515849
   28     0.00000278540477     0.00002824781366     0.00003352417781     0.00002146668063     0.00027657008192
   29     0.00000170685303     0.00001885614084     0.00001433908365     0.00001634503655     0.00016351441221
   30     0.00000054540400     0.00000480735877     0.00000409411933     0.00000295576064     0.00002939401337
   31     0.00000035835751     0.00000345814725     0.00000542931664     0.00000331619188     0.00003236072443
   32     0.00000012024146     0.00000090244783     0.00000166299992     0.00000080832735     0.00000835300848
   33     0.00000007976834     0.00000028040082     0.00000051543202     0.00000027398783     0.00000158176177
   34     0.00000039271927     0.00000380078065     0.00000510186126     0.00000240382814     0.00003238940258
   35     0.00000047295396     0.00000313418421     0.00000441809067     0.00000278409463     0.00004895829399
   36     0.00378791129071     0.05204982860099     0.03316477955196     0.00514769141318     0.19238404728208
   37     0.11557429010330     0.01437377698430     0.00738018517704     0.01393055736905     0.00071411996923
   38     0.00000030023847     0.00000066663187     0.00000462931203     0.00002205449656     0.00000499916998
   39     0.00000146083031     0.00000178290819     0.00000600585337     0.00003821279203     0.00000764546369
   40     0.00017981228597     0.00022679914043     0.00176089253197     0.00881943554951     0.00231265157245
   41     0.00000038791423     0.00000064743412     0.00000261732568     0.00001394013548     0.00000622146008
   42     0.00001068048351     0.00004632814863     0.00002924861200     0.00019707179319     0.00000666874763
   43     0.00001584419638     0.00001201321561     0.00001495644075     0.00010571210352     0.00000169982958
   44     0.00153396455221     0.00107612457709     0.00130501658371     0.01046196807969     0.00024195502618
   45     0.87142988212029     0.07901736934116     0.01177391806204     0.00562758644469     0.00102533781625
   46     0.07721114464521     0.85878402441186     0.07529993416363     0.01118082753835     0.01443027353224
   47     0.00566362924388     0.01015871441199     0.07127371463933     0.83796791496445     0.02390755814414
   48     0.00135886300730     0.01008273550939     0.06287976442355     0.02183180293960     0.93909331406261
   49     0.00003279296658     0.00023465505982     0.00029094415860     0.00007085277190     0.00155521162559
   50     0.00000222639557     0.00001557816147     0.00006470899391     0.00001577552909     0.00028055174778
   51     0.00000198293349     0.00001313842306     0.00002790623092     0.00000721766204     0.00018896017572
   52     0.00004751384640     0.00029257155234     0.00134043335179     0.00048706960193     0.01499345365060
   53     0.00000050369692     0.00000374197514     0.00000811696785     0.00000298962708     0.00005490422550
   54     0.00000043990403     0.00000413901259     0.00000561095892     0.00000300828836     0.00003858035526
   55     0.00000007716407     0.00000055669088     0.00000088748812     0.00000053051156     0.00000766482184
   56     0.00000011645913     0.00000089384070     0.00000133202345     0.00000119694577     0.00000724812583
   57     0.00000002926277     0.00000026511829     0.00000038486677     0.00000025862634     0.00000238821326
   58     0.00000032542434     0.00000193658967     0.00000451262563     0.00000257119926     0.00003193330762
   59     0.00000001567531     0.00000008250866     0.00000012661691     0.00000006157175     0.00000047214698
   60     0.00000002390965     0.00000004784104     0.00000004454288     0.00000004081269     0.00000034836207
   61     0.00000000615816     0.00000002017531     0.00000006342655     0.00000001400321     0.00000039683375
   62     0.00000003403234     0.00000026378779     0.00000025601984     0.00000013415876     0.00000164231664
   63     0.00000059409826     0.00000365901150     0.00000931214341     0.00000272828422     0.00005902560522
   64     0.00000013464228     0.00000101709943     0.00000096142740     0.00000086131784     0.00000774275579
   65     0.00000005554860     0.00000043718925     0.00000074091804     0.00000028443992     0.00000445577981
   66     0.01545609478067     0.00126785572534     0.00303691133013     0.00120284568998     0.00037462626599
   67     0.01480016820888     0.00125952622090     0.00273051986877     0.00125517247615     0.00031901290687
   68     0.02377230147473     0.00189385349161     0.00055624589345     0.00108348092955     0.00008294061971

                21                  22                  23                  24                  25

    1     0.00001055696177     0.00004113190564     0.00000580871457     0.00000487080035     0.00000861444942
    2     0.00001220474500     0.00002316868948     0.00000352072708     0.00000253437819     0.00000498864123
    3     0.00005198342556     0.00003971190737     0.00000841860171     0.00000606016749     0.00001093971948
    4     0.00035585841543     0.00048055973259     0.00012147869068     0.00010093284537     0.00007745518431
    5     0.00015485561325     0.00116566416345     0.00037290313091     0.00031121989127     0.00025862180350
    6     0.00001945006159     0.00012920991588     0.00006469752813     0.00007152076049     0.00012323576546
    7     0.00002188728357     0.00000606433599     0.00000219970567     0.00000138104794     0.00000191806526
    8     0.00000853761341     0.00000235076282     0.00000096729799     0.00000043397340     0.00000104568355
    9     0.00000478248159     0.00000113960273     0.00000029931616     0.00000016517635     0.00000017260607
   10     0.00001595572806     0.00000281221931     0.00000083377165     0.00000024736354     0.00000031603571
   11     0.00006204060784     0.00001061263967     0.00000282111593     0.00000056949729     0.00000101008819
   12     0.00012998866796     0.00002257489981     0.00000403485291     0.00000113201995     0.00000288149784
   13     0.00030305311743     0.00005601090153     0.00001292185281     0.00000266035605     0.00000117098413
   14     0.00276077274332     0.00034673717422     0.00010253818112     0.00001981052825     0.00002659301125
   15     0.00573532320680     0.00026837165392     0.00038246086438     0.00004704181450     0.00022480346737
   16     0.00277639722351     0.00034810902439     0.00010035398519     0.00002000941994     0.00003038568378
   17     0.03124632963223     0.00319928535629     0.00098734906058     0.00013953217436     0.00032797907534
   18     0.08615533197143     0.01417698720642     0.00220495090578     0.00048105173292     0.00030427565404
   19     0.02248886157548     0.00190386684698     0.00076859645387     0.00011425601299     0.00028560429992
   20     1.31417249796925     0.09727639251232     0.01734935394898     0.00245465044772     0.00340366825904
   21     0.00000000000000     0.97652751126648     0.11088835205767     0.01500034452919     0.01147363225464
   22     0.97652751126648     0.00000000000000     1.37993080907494     0.12546002385923     0.12387606364646
   23     0.11088835205767     1.37993080907494     0.00000000000000     1.47132288883574     0.12800099417218
   24     0.01500034452919     0.12546002385923     1.47132288883574     0.00000000000000     1.39608035976560
   25     0.01147363225464     0.12387606364646     0.12800099417218     1.39608035976560     0.00000000000000
   26     0.01442927785337     0.12677189232349     0.13034147870414     0.12587084088249     1.40230951769854
   27     0.10286313276902     1.40201801822392     0.12443378219255     0.12903678720070     0.12640914781670
   28     0.00073609022550     0.00907846832649     0.01436377656853     0.10864085285375     1.01642915833222
   29     0.00041349698216     0.00441149573403     0.00200044594705     0.02138369314317     0.08760719661250
   30     0.00009508110405     0.00103552305767     0.00193235177866     0.01493173488108     0.02050677604480
   31     0.00007976361315     0.00165549776354     0.00939523621543     0.02316752734093     0.01885932496119
   32     0.00006418083409     0.00068523363229     0.00105040828717     0.00262178395921     0.00406317978840
   33     0.00000920870396     0.00011479274993     0.00025291874398     0.00067765325926     0.00111256216275
   34     0.00008092458516     0.00192700583253     0.00208379612972     0.00516538129590     0.01995163926425
   35     0.00009136220489     0.00104079891124     0.00092646959492     0.00460379348834     0.02079786039630
   36     2.15814933530128     0.13623929093666     0.06705181701611     0.00491384704930     0.00709758632231
[...]
   15     0.00000060763284     0.00000016520456     0.00000103343819     0.00000004932407     0.00000001865456
   16     0.00000011645913     0.00000002926277     0.00000032542434     0.00000001567531     0.00000002390965
   17     0.00000089384070     0.00000026511829     0.00000193658967     0.00000008250866     0.00000004784104
   18     0.00000133202345     0.00000038486677     0.00000451262563     0.00000012661691     0.00000004454288
   19     0.00000119694577     0.00000025862634     0.00000257119926     0.00000006157175     0.00000004081269
   20     0.00000724812583     0.00000238821326     0.00003193330762     0.00000047214698     0.00000034836207
   21     0.00003448711257     0.00000886392155     0.00008085745559     0.00000215018852     0.00000100771449
   22     0.00026429798878     0.00011029068091     0.00178196639365     0.00001270235049     0.00001160581339
   23     0.00039288734598     0.00025330870125     0.00822910765393     0.00002451891910     0.00003423548994
   24     0.00087811812433     0.00073259287475     0.02066860413753     0.00008806692642     0.00007093484991
   25     0.00147337598013     0.00062715496708     0.01209217431679     0.00017998572023     0.00009957230387
   26     0.00053440129445     0.00021869116081     0.00375273655889     0.00008691053656     0.00004404624091
   27     0.00017739297605     0.00011362271940     0.00198251413452     0.00002639539688     0.00002617251818
   28     0.01230081203997     0.00103600603314     0.00608226152234     0.00069454740161     0.00012193498625
   29     0.06596344316307     0.01266173156551     0.01193234079891     0.00332251191471     0.00071958415116
   30     0.77242916525291     0.05820345787766     0.04464036953593     0.01302315163350     0.00407789460711
   31     0.05055858064813     0.83631650908815     0.79662124008469     0.01658203301126     0.02091667606265
   32     0.01411486713798     0.05230210864518     0.05856982661467     0.06761564823163     0.06258085417312
   33     0.01627008411999     0.02313223362841     0.01187877869294     0.91084653038991     0.91968480784179
   34     0.00833958938045     0.01510027226994     0.01992838043376     0.01618433446796     0.01252746408665
   35     0.02301431082524     0.00195348933814     0.00729826105015     0.01269056661437     0.00176847353989
   36     0.00001670815567     0.00000400904923     0.00005232229437     0.00000078348180     0.00000052530480
   37     0.00000004131725     0.00000001143724     0.00000006396561     0.00000000587673     0.00000000273545
   38     0.00000001851269     0.00000000341831     0.00000002808604     0.00000002251038     0.00000000382303
   39     0.00000001632939     0.00000000474272     0.00000002923446     0.00000000265987     0.00000000189231
   40     0.00000010519604     0.00000006304206     0.00000046661692     0.00000004213175     0.00000001651939
   41     0.00000706965613     0.00000029596477     0.00000332489746     0.00000100050304     0.00000025795088
   42     0.00000000225757     0.00000000046154     0.00000000231331     0.00000000087830     0.00000000048595
   43     0.00000000033000     0.00000000009752     0.00000000039359     0.00000000014018     0.00000000007310
   44     0.00000000137866     0.00000000146616     0.00000000380566     0.00000000056579     0.00000000020010
   45     0.00000000940183     0.00000000382720     0.00000004016369     0.00000000081610     0.00000000048148
   46     0.00000004219550     0.00000001926556     0.00000064417105     0.00000000710743     0.00000000212997
   47     0.00000017865194     0.00000004043603     0.00000033191653     0.00000001339040     0.00000000605978
   48     0.00000231131037     0.00000039145958     0.00000814569051     0.00000027291890     0.00000009106205
   49     0.00005122054668     0.00002629983741     0.00065979867882     0.00000240799430     0.00000290054336
   50     0.00010493330417     0.00015334182521     0.00367110364012     0.00003719636995     0.00001758755906
   51     0.00013874464589     0.00001919453043     0.00024002278000     0.00003804973529     0.00000772949652
   52     0.00001064527370     0.00000309298812     0.00005269392046     0.00000315958156     0.00000123349136
   53     0.00122724918546     0.00009523023036     0.00087533913514     0.00006620294838     0.00002050662340
   54     0.00051026049855     0.00037821672755     0.00035522351227     0.00006640678803     0.00002310482598
   55     0.02402341003692     0.00591055972691     0.00812784047222     0.00058280423316     0.00016362587814
   56     0.00000000000000     0.01019822500591     0.02091383885385     0.00836134723215     0.00175448131744
   57     0.01019822500591     0.00000000000000     0.01844971766623     0.00327300362186     0.00750997738174
   58     0.02091383885385     0.01844971766623     0.00000000000000     0.00097112376927     0.00104487440456
   59     0.00836134723215     0.00327300362186     0.00097112376927     0.00000000000000     0.03485386727856
   60     0.00175448131744     0.00750997738174     0.00104487440456     0.03485386727856     0.00000000000000
   61     0.00070678439321     0.00118816596118     0.00067354076061     0.03495045502926     0.03774377621704
   62     0.00048523179670     0.00128094585398     0.00088755142431     0.00285068675908     0.00113518424962
   63     0.00088475933330     0.00107669622450     0.00512238488064     0.00099125070219     0.00064998221689
   64     0.00605267912676     0.00042043214903     0.00092132888662     0.00811088606166     0.00067209386956
   65     0.00089636444605     0.00039529458622     0.00045863195667     0.00054234620637     0.00022366414033
   66     0.00000002961767     0.00000000628788     0.00000003871872     0.00000000189129     0.00000000074499
   67     0.00000003491992     0.00000000960426     0.00000005672577     0.00000000248774     0.00000000128863
   68     0.00000000068560     0.00000000026827     0.00000000685943     0.00000000029094     0.00000000006919

                61                  62                  63                  64                  65

    1     0.00000011958284     0.00000560168611     0.00000859146196     0.00000031991772     0.00001742199289
    2     0.00000003183330     0.00001006313006     0.00002145434607     0.00000021811581     0.00000623879536
    3     0.00000004158668     0.00001031819722     0.00001494413202     0.00000010178778     0.00000257645521
    4     0.00000025412768     0.00000387001782     0.00002285637414     0.00000630860197     0.00000356507866
    5     0.00000044684883     0.00001252303943     0.00025583550126     0.00001186620779     0.00002825530668
    6     0.00000029474590     0.00000969970613     0.00004136291719     0.00001226737912     0.00004106173673
    7     0.00000001529268     0.00000039384487     0.00000149960756     0.00000001907564     0.00000072202579
    8     0.00000000336226     0.00000113216570     0.00000150184828     0.00000001895042     0.00000011249432
    9     0.00000000225232     0.00000015235594     0.00000024050600     0.00000000425009     0.00000001632230
   10     0.00000000139710     0.00000055822862     0.00000050730519     0.00000000533643     0.00000002644844
   11     0.00000000464305     0.00000007830335     0.00000031447285     0.00000001490771     0.00000004791913
   12     0.00000001143943     0.00000023250637     0.00000243377592     0.00000001690733     0.00000018981609
   13     0.00000000103380     0.00000005112958     0.00000022956115     0.00000000768175     0.00000001022594
   14     0.00000000569726     0.00000003215619     0.00000044252881     0.00000010717086     0.00000004193974
   15     0.00000000886462     0.00000009140954     0.00000219119221     0.00000062440015     0.00000010763561
   16     0.00000000615816     0.00000003403234     0.00000059409826     0.00000013464228     0.00000005554860
   17     0.00000002017531     0.00000026378779     0.00000365901150     0.00000101709943     0.00000043718925
   18     0.00000006342655     0.00000025601984     0.00000931214341     0.00000096142740     0.00000074091804
   19     0.00000001400321     0.00000013415876     0.00000272828422     0.00000086131784     0.00000028443992
   20     0.00000039683375     0.00000164231664     0.00005902560522     0.00000774275579     0.00000445577981
   21     0.00000087197941     0.00000687016580     0.00009471256532     0.00003218787702     0.00001963108793
   22     0.00001203865080     0.00010895637494     0.00228707654573     0.00028738185646     0.00020258563219
   23     0.00002493964409     0.00011157542764     0.00221307026034     0.00018835297876     0.00018098357230
   24     0.00004225477168     0.00022619507031     0.00439003121023     0.00056890281537     0.00053654891178
   25     0.00009486059931     0.00077043500443     0.01341571000872     0.00148808110720     0.00555826542409
   26     0.00007147101027     0.00093300781659     0.02306204990169     0.00095937002456     0.00583291992992
   27     0.00003567594177     0.00030906046780     0.00943470631339     0.00045671020635     0.00046783314079
   28     0.00012181410818     0.00111875596632     0.00640736656884     0.01214546313364     0.01957641741479
   29     0.00065523559132     0.01049596988182     0.01197359812356     0.06580341765053     0.05875038549501
   30     0.00182411336084     0.00235401518178     0.00730631019271     0.02281056606023     0.01209035991974
   31     0.01286662109093     0.01351958471013     0.01984926387526     0.00828717944467     0.00263865742189
   32     0.06307951526981     0.05603029774778     0.05801434368220     0.01398471845666     0.01018721145848
   33     0.91965794650419     0.02034047237639     0.01220561160221     0.01605600801621     0.00166171416069
   34     0.01889781952147     0.87709527787790     0.77364624388021     0.04977483667937     0.06118589266382
   35     0.00390174037808     0.05940308331307     0.04365902650370     0.77055523537172     0.89302001927602
   36     0.00000057709822     0.00000450864044     0.00004237228162     0.00001860295789     0.00001094784918
   37     0.00000000295793     0.00000000690858     0.00000011449570     0.00000003731128     0.00000000926916
   38     0.00000001174698     0.00000041641864     0.00000027181611     0.00000012256944     0.00000057240002
   39     0.00000000686030     0.00000029435914     0.00000136401528     0.00000001437687     0.00000029933419
   40     0.00000002553012     0.00000076921562     0.00000419457263     0.00000149201324     0.00000044737422
   41     0.00000007505285     0.00000410151432     0.00000615112665     0.00001626549195     0.00001896886340
   42     0.00000000026040     0.00000002564376     0.00000008815367     0.00000000100888     0.00000001324454
   43     0.00000000026240     0.00000000368065     0.00000006947500     0.00000000076870     0.00000000435643
   44     0.00000000016483     0.00000000237981     0.00000002800574     0.00000000147683     0.00000000292755
   45     0.00000000031778     0.00000000158647     0.00000003074747     0.00000000358852     0.00000001008468
   46     0.00000000348285     0.00000003509044     0.00000070786291     0.00000009386028     0.00000013875878
   47     0.00000000422069     0.00000001664150     0.00000039392840     0.00000008509533     0.00000004667913
   48     0.00000007527878     0.00000131849477     0.00001428753954     0.00000270430370     0.00000209054443
   49     0.00000116720355     0.00000405814321     0.00006434160017     0.00001476150318     0.00002020935086
   50     0.00000849135423     0.00001872241163     0.00029559616528     0.00013972292902     0.00007615011036
   51     0.00001616796459     0.00019861717336     0.00426413690302     0.00012447211816     0.00263829130871
   52     0.00000402015931     0.00002888428558     0.00090041051665     0.00006846070712     0.00003328244626
   53     0.00002019409377     0.00029395778614     0.00037052309779     0.00050867542462     0.00108386994756
   54     0.00002108081054     0.00011084480771     0.00092209244425     0.00121091231634     0.00577345546650
   55     0.00022241587895     0.00031425978935     0.00047266213817     0.00088754561442     0.00112738507113
   56     0.00070678439321     0.00048523179670     0.00088475933330     0.00605267912676     0.00089636444605
   57     0.00118816596118     0.00128094585398     0.00107669622450     0.00042043214903     0.00039529458622
   58     0.00067354076061     0.00088755142431     0.00512238488064     0.00092132888662     0.00045863195667
   59     0.03495045502926     0.00285068675908     0.00099125070219     0.00811088606166     0.00054234620637
   60     0.03774377621704     0.00113518424962     0.00064998221689     0.00067209386956     0.00022366414033
   61     0.00000000000000     0.00634387364712     0.00102051305539     0.00179743862590     0.00014243095040
   62     0.00634387364712     0.00000000000000     0.02142126949647     0.01012604161290     0.00589181733611
   63     0.00102051305539     0.02142126949647     0.00000000000000     0.02354616786600     0.00873145273148
   64     0.00179743862590     0.01012604161290     0.02354616786600     0.00000000000000     0.02404984667049
   65     0.00014243095040     0.00589181733611     0.00873145273148     0.02404984667049     0.00000000000000
   66     0.00000000020329     0.00000000362862     0.00000006289260     0.00000003005169     0.00000000854913
   67     0.00000000028667     0.00000000308400     0.00000007726207     0.00000002612456     0.00000000365494
   68     0.00000000010961     0.00000000024345     0.00000000512627     0.00000000132998     0.00000000132317

                66                  67                  68

    1     0.00000080490485     0.00000111186424     0.00000024916044
    2     0.00000197875217     0.00000287600627     0.00000073340036
    3     0.00001090648646     0.00001040864791     0.00000377721319
    4     0.00000838285238     0.00000871344137     0.00000822738751
    5     0.00000057860978     0.00000076040432     0.00000047583298
    6     0.00000040744484     0.00000133972720     0.00000017757654
    7     0.00004276747897     0.00004635296846     0.00001419961191
    8     0.00007509894803     0.00011149762963     0.00000622468328
    9     0.00004211836444     0.00004341357588     0.00000441426535
   10     0.00024743971761     0.00033307620328     0.00003447489760
   11     0.00074674896730     0.00097987303724     0.00023456245335
   12     0.00025698808806     0.00030020161601     0.00006212266725
   13     0.00898175242763     0.01044560483993     0.00201679829090
   14     0.01647809328310     0.01660250837790     0.00893945541433
   15     0.05836190720349     0.05825473345904     0.05940211514766
   16     0.01545609478067     0.01480016820888     0.02377230147473
   17     0.00126785572534     0.00125952622090     0.00189385349161
   18     0.00303691133013     0.00273051986877     0.00055624589345
   19     0.00120284568998     0.00125517247615     0.00108348092955
   20     0.00037462626599     0.00031901290687     0.00008294061971
   21     0.00021799058827     0.00019768911353     0.00003162106146
   22     0.00001045381894     0.00001087422214     0.00000619446821
   23     0.00001579380405     0.00001447209433     0.00000182125765
   24     0.00000196252336     0.00000178192639     0.00000031565278
   25     0.00000977869180     0.00000873798305     0.00000028424071
   26     0.00000164834699     0.00000150125299     0.00000027915653
   27     0.00001340721260     0.00001212009712     0.00000228769110
   28     0.00000063724826     0.00000061095415     0.00000004385425
   29     0.00000061018985     0.00000051907971     0.00000001402847
   30     0.00000008507629     0.00000005202933     0.00000000470599
   31     0.00000005713117     0.00000005052255     0.00000000436867
   32     0.00000001027667     0.00000001166114     0.00000000172965
   33     0.00000000558053     0.00000000811695     0.00000000057893
   34     0.00000005803724     0.00000005355462     0.00000000437783
   35     0.00000011543906     0.00000007165294     0.00000000758274
   36     0.00012659850408     0.00012330461802     0.00001745021048
   37     0.91919733217786     0.91870982326970     0.92012332310374
   38     0.00000008374178     0.00000010245505     0.00000003734545
   39     0.00000024560814     0.00000031980988     0.00000010463106
   40     0.00000739060648     0.00000736546784     0.00000847390246
   41     0.00000004893766     0.00000007617451     0.00000004036257
   42     0.00000331548289     0.00000444719520     0.00000046985410
   43     0.00000274807833     0.00000315087532     0.00000062537395
   44     0.00480798740621     0.00441451013616     0.00105263049422
   45     0.00128207336907     0.00119802807013     0.00763605692765
   46     0.00020207973150     0.00022260249673     0.00012728851064
   47     0.00018165928624     0.00018210815221     0.00034832309773
   48     0.00003839732522     0.00004204188847     0.00003914041211
   49     0.00000102990648     0.00000098584130     0.00000063595915
   50     0.00000012030233     0.00000009885634     0.00000006009659
   51     0.00000004434218     0.00000005095524     0.00000003980022
   52     0.00000125563865     0.00000104951868     0.00000151714811
   53     0.00000007266068     0.00000005660585     0.00000000833535
   54     0.00000009187439     0.00000006698661     0.00000000787929
   55     0.00000001211802     0.00000000566617     0.00000000102386
   56     0.00000002961767     0.00000003491992     0.00000000068560
   57     0.00000000628788     0.00000000960426     0.00000000026827
   58     0.00000003871872     0.00000005672577     0.00000000685943
   59     0.00000000189129     0.00000000248774     0.00000000029094
   60     0.00000000074499     0.00000000128863     0.00000000006919
   61     0.00000000020329     0.00000000028667     0.00000000010961
   62     0.00000000362862     0.00000000308400     0.00000000024345
   63     0.00000006289260     0.00000007726207     0.00000000512627
   64     0.00000003005169     0.00000002612456     0.00000000132998
   65     0.00000000854913     0.00000000365494     0.00000000132317
   66     0.00000000000000     0.03490200677829     0.03832558303706
   67     0.03490200677829     0.00000000000000     0.03854064323334
   68     0.03832558303706     0.03854064323334     0.00000000000000



  Atomic Valences: 

 #  #
 Irrep: 1
      1:  4.3922740
      2:  4.4232146
      3:  4.6025088
      4:  4.5814675
      5:  3.9086250
      6:  4.5447490
      7:  4.7417991
      8:  4.3687648
      9:  4.5242805
     10:  3.8643695
     11:  4.9994490
     12:  3.9584556
     13:  4.0366546
     14:  4.6648988
     15:  4.6251630
     16:  4.4379614
     17:  4.4035893
     18:  4.6641436
     19:  4.4242704
     20:  4.0663957
     21:  4.9828329
     22:  4.6032669
     23:  4.4378232
     24:  4.4744654
     25:  4.7193055
     26:  4.4835934
     27:  4.4615113
     28:  4.4954836
     29:  4.2515565
     30:  4.5639691
     31:  4.5760858
     32:  4.2237206
     33:  4.2884667
     34:  4.5657550
     35:  4.5492421
     36:  2.7726703
     37:  4.1507315
     38:  1.0980024
     39:  1.1016038
     40:  1.1150878
     41:  1.0916900
     42:  1.1094828
     43:  1.0860524
     44:  1.1759716
     45:  1.0998157
     46:  1.1074571
     47:  1.1362459
     48:  1.1911045
     49:  1.1011336
     50:  1.1061857
     51:  1.1093410
     52:  1.1191073
     53:  1.1067826
     54:  1.1073680
     55:  1.1266506
     56:  1.0431123
     57:  1.0531585
     58:  1.0690832
     59:  1.1370883
     60:  1.1085121
     61:  1.1061500
     62:  1.0942841
     63:  1.0592133
     64:  1.0421320
     65:  1.1241339
     66:  1.1059473
     67:  1.1061085
     68:  1.1043822


    Psi4 stopped on: Tuesday, 10 March 2020 02:36PM
    Psi4 wall time for execution: 0:55:58.47

*** Psi4 exiting successfully. Buy a developer a beer!
