 Entering Gaussian System, Link 0=g09
 Input=MOLECULE0-opt-2-3-7-8-031.com
 Output=MOLECULE0-opt-2-3-7-8-031.log
 Initial command:
 /opt/g09gh/gaussian/g09/l1.exe /scratch/bdw2292/Gau-MOLECULE0/Gau-33507.inp -scrdir=/scratch/bdw2292/Gau-MOLECULE0/
 Entering Link 1 = /opt/g09gh/gaussian/g09/l1.exe PID=     33508.
  
 Copyright (c) 1988,1990,1992,1993,1995,1998,2003,2009, Gaussian, Inc.
                  All Rights Reserved.
  
 This is part of the Gaussian(R) 09 program.  It is based on
 the Gaussian(R) 03 system (copyright 2003, Gaussian, Inc.),
 the Gaussian(R) 98 system (copyright 1998, Gaussian, Inc.),
 the Gaussian(R) 94 system (copyright 1995, Gaussian, Inc.),
 the Gaussian 92(TM) system (copyright 1992, Gaussian, Inc.),
 the Gaussian 90(TM) system (copyright 1990, Gaussian, Inc.),
 the Gaussian 88(TM) system (copyright 1988, Gaussian, Inc.),
 the Gaussian 86(TM) system (copyright 1986, Carnegie Mellon
 University), and the Gaussian 82(TM) system (copyright 1983,
 Carnegie Mellon University). Gaussian is a federally registered
 trademark of Gaussian, Inc.
  
 This software contains proprietary and confidential information,
 including trade secrets, belonging to Gaussian, Inc.
  
 This software is provided under written license and may be
 used, copied, transmitted, or stored only in accord with that
 written license.
  
 The following legend is applicable only to US Government
 contracts under FAR:
  
                    RESTRICTED RIGHTS LEGEND
  
 Use, reproduction and disclosure by the US Government is
 subject to restrictions as set forth in subparagraphs (a)
 and (c) of the Commercial Computer Software - Restricted
 Rights clause in FAR 52.227-19.
  
 Gaussian, Inc.
 340 Quinnipiac St., Bldg. 40, Wallingford CT 06492
  
  
 ---------------------------------------------------------------
 Warning -- This program may not be used in any manner that
 competes with the business of Gaussian, Inc. or will provide
 assistance to any competitor of Gaussian, Inc.  The licensee
 of this program is prohibited from giving any competitor of
 Gaussian, Inc. access to this program.  By using this program,
 the user acknowledges that Gaussian, Inc. is engaged in the
 business of creating and licensing software in the field of
 computational chemistry and represents and warrants to the
 licensee that it is not a competitor of Gaussian, Inc. and that
 it will not use this program in any manner prohibited above.
 ---------------------------------------------------------------
  

 Cite this work as:
 Gaussian 09, Revision A.02,
 M. J. Frisch, G. W. Trucks, H. B. Schlegel, G. E. Scuseria, 
 M. A. Robb, J. R. Cheeseman, G. Scalmani, V. Barone, B. Mennucci, 
 G. A. Petersson, H. Nakatsuji, M. Caricato, X. Li, H. P. Hratchian, 
 A. F. Izmaylov, J. Bloino, G. Zheng, J. L. Sonnenberg, M. Hada, 
 M. Ehara, K. Toyota, R. Fukuda, J. Hasegawa, M. Ishida, T. Nakajima, 
 Y. Honda, O. Kitao, H. Nakai, T. Vreven, J. A. Montgomery, Jr., 
 J. E. Peralta, F. Ogliaro, M. Bearpark, J. J. Heyd, E. Brothers, 
 K. N. Kudin, V. N. Staroverov, R. Kobayashi, J. Normand, 
 K. Raghavachari, A. Rendell, J. C. Burant, S. S. Iyengar, J. Tomasi, 
 M. Cossi, N. Rega, J. M. Millam, M. Klene, J. E. Knox, J. B. Cross, 
 V. Bakken, C. Adamo, J. Jaramillo, R. Gomperts, R. E. Stratmann, 
 O. Yazyev, A. J. Austin, R. Cammi, C. Pomelli, J. W. Ochterski, 
 R. L. Martin, K. Morokuma, V. G. Zakrzewski, G. A. Voth, 
 P. Salvador, J. J. Dannenberg, S. Dapprich, A. D. Daniels, 
 O. Farkas, J. B. Foresman, J. V. Ortiz, J. Cioslowski, 
 and D. J. Fox, Gaussian, Inc., Wallingford CT, 2009.
 
 ******************************************
 Gaussian 09:  EM64L-G09RevA.02 11-Jun-2009
                25-Mar-2020 
 ******************************************
 %RWF=/scratch/bdw2292/Gau-MOLECULE0/,100GB
 %Nosave
 %Chk=MOLECULE0-opt-2-3-7-8-031.chk
 %Mem=20GB
 %Nproc=6
 Will use up to    6 processors via shared memory.
 --------------------------------------------------
 #P opt=(,maxcycle=400) wB97XD/6-31G* MaxDisk=100GB
 --------------------------------------------------
 1/6=400,14=-1,18=20,19=15,26=3,38=1/1,3;
 2/9=110,12=2,17=6,18=5,40=1/2;
 3/5=1,6=6,7=1,11=2,16=1,25=1,30=1,71=1,74=-58/1,2,3;
 4//1;
 5/5=2,38=5/2;
 6/7=2,8=2,9=2,10=2,28=1/1;
 7//1,2,3,16;
 1/6=400,14=-1,18=20,19=15/3(2);
 2/9=110/2;
 99//99;
 2/9=110/2;
 3/5=1,6=6,7=1,11=2,16=1,25=1,30=1,71=1,74=-58/1,2,3;
 4/5=5,16=3/1;
 5/5=2,38=5/2;
 7//1,2,3,16;
 1/6=400,14=-1,18=20,19=15/3(-5);
 2/9=110/2;
 6/7=2,8=2,9=2,10=2,19=2,28=1/1;
 99/9=1/99;
 Leave Link    1 at Wed Mar 25 13:01:06 2020, MaxMem= 2684354560 cpu:       0.3
 (Enter /opt/g09gh/gaussian/g09/l101.exe)
 --------------------------------------------------------------
 MOLECULE0 Rotatable Bond Optimization on node37.bme.utexas.edu
 --------------------------------------------------------------
 Symbolic Z-matrix:
 Charge =  0 Multiplicity = 1
 C                    -0.34983   4.42424  -0.87374 
 C                     0.96815   4.3021   -0.41289 
 C                     1.67766   3.1066   -0.63365 
 C                     0.96844   2.0694   -1.28556 
 N                    -0.28989   2.16887  -1.73246 
 C                    -0.92846   3.33132  -1.53041 
 C                     3.0983    2.90054  -0.18779 
 C                     3.68947   3.48692   0.93997 
 C                     5.03149   3.1529    1.1557 
 N                     5.7409    2.34064   0.37563 
 C                     5.08634   1.82031  -0.68445 
 N                     3.80607   2.06853  -0.97298 
 N                     5.82981   0.97744  -1.4981 
 C                     5.54119   0.29389  -2.73672 
 C                     6.61513  -0.21619  -3.52765 
 C                     6.2764   -0.86913  -4.72573 
 C                     4.96292  -1.03869  -5.18044 
 C                     3.92271  -0.54035  -4.39013 
 C                     4.22811   0.11405  -3.18643 
 N                     2.52808  -0.6      -4.69522 
 C                     1.85285  -0.98849  -5.82769 
 C                     0.375    -0.65033  -5.87656 
 C                    -0.14444   0.53665  -5.33281 
 C                    -1.52084   0.76325  -5.31764 
 C                    -2.42294  -0.17438  -5.85269 
 C                    -1.8839   -1.32481  -6.46061 
 C                    -0.5057   -1.55381  -6.49234 
 C                    -3.9312    0.03407  -5.71515 
 N                    -4.5883   -0.37636  -4.4606 
 C                    -4.40596   0.45628  -3.24955 
 C                    -3.26635  -0.00963  -2.30624 
 N                    -3.35627  -1.43493  -1.90877 
 C                    -4.26798  -1.74697  -0.80169 
 C                    -3.48294  -2.26824  -3.129 
 C                    -4.60229  -1.81295  -4.10172 
 O                     2.3868   -1.59031  -6.74558 
 C                     8.07744  -0.07293  -3.14209 
 H                    -0.91233   5.34241  -0.73357 
 H                     1.4356    5.15053   0.08253 
 H                     1.4405    1.10382  -1.44356 
 H                    -1.9496    3.38159  -1.90555 
 H                     3.16184   4.14379   1.62173 
 H                     5.56822   3.56529   2.00956 
 H                     6.77934   0.92812  -1.16021 
 H                     7.07039  -1.26621  -5.35701 
 H                     4.74412  -1.536    -6.11785 
 H                     3.42888   0.51757  -2.58528 
 H                     1.93657  -0.22422  -3.96753 
 H                     0.52947   1.26913  -4.89518 
 H                    -1.89227   1.67463  -4.84958 
 H                    -2.54691  -2.07202  -6.89579 
 H                    -0.09494  -2.44915  -6.95213 
 H                    -4.15309   1.10071  -5.86474 
 H                    -4.43591  -0.50476  -6.53 
 H                    -4.33134   1.47457  -3.50289 
 H                    -5.72945   0.30698  -2.39953 
 H                    -3.33128   0.81696  -1.09413 
 H                    -2.20651   0.16449  -2.7956 
 H                    -5.30882  -1.54719  -1.07971 
 H                    -4.0144   -1.14489   0.0782 
 H                    -4.17469  -2.80287  -0.52293 
 H                    -3.60139  -3.33298  -2.83955 
 H                    -2.18185  -2.1482   -3.86829 
 H                    -5.95407  -2.08052  -3.33371 
 H                    -4.62443  -2.4546   -5.03801 
 H                     8.30257  -0.61477  -2.21256 
 H                     8.35057   0.98014  -2.985 
 H                     8.76265  -0.46245  -3.90758 
 
 NAtoms=     68 NQM=     68 NQMF=      0 NMic=      0 NMicF=      0 NTot=     68.
                    Isotopes and Nuclear Properties:
 (Nuclear quadrupole moments (NQMom) in fm**2, nuclear magnetic moments (NMagM)
  in nuclear magnetons)

  Atom         1           2           3           4           5           6           7           8           9          10
 IAtWgt=          12          12          12          12          14          12          12          12          12          14
 AtmWgt=  12.0000000  12.0000000  12.0000000  12.0000000  14.0030740  12.0000000  12.0000000  12.0000000  12.0000000  14.0030740
 NucSpn=           0           0           0           0           2           0           0           0           0           2
 AtZEff=   0.0000000   0.0000000   0.0000000   0.0000000   0.0000000   0.0000000   0.0000000   0.0000000   0.0000000   0.0000000
 NQMom=    0.0000000   0.0000000   0.0000000   0.0000000   2.0440000   0.0000000   0.0000000   0.0000000   0.0000000   2.0440000
 NMagM=    0.0000000   0.0000000   0.0000000   0.0000000   0.4037610   0.0000000   0.0000000   0.0000000   0.0000000   0.4037610

  Atom        11          12          13          14          15          16          17          18          19          20
 IAtWgt=          12          14          14          12          12          12          12          12          12          14
 AtmWgt=  12.0000000  14.0030740  14.0030740  12.0000000  12.0000000  12.0000000  12.0000000  12.0000000  12.0000000  14.0030740
 NucSpn=           0           2           2           0           0           0           0           0           0           2
 AtZEff=   0.0000000   0.0000000   0.0000000   0.0000000   0.0000000   0.0000000   0.0000000   0.0000000   0.0000000   0.0000000
 NQMom=    0.0000000   2.0440000   2.0440000   0.0000000   0.0000000   0.0000000   0.0000000   0.0000000   0.0000000   2.0440000
 NMagM=    0.0000000   0.4037610   0.4037610   0.0000000   0.0000000   0.0000000   0.0000000   0.0000000   0.0000000   0.4037610

  Atom        21          22          23          24          25          26          27          28          29          30
 IAtWgt=          12          12          12          12          12          12          12          12          14          12
 AtmWgt=  12.0000000  12.0000000  12.0000000  12.0000000  12.0000000  12.0000000  12.0000000  12.0000000  14.0030740  12.0000000
 NucSpn=           0           0           0           0           0           0           0           0           2           0
 AtZEff=   0.0000000   0.0000000   0.0000000   0.0000000   0.0000000   0.0000000   0.0000000   0.0000000   0.0000000   0.0000000
 NQMom=    0.0000000   0.0000000   0.0000000   0.0000000   0.0000000   0.0000000   0.0000000   0.0000000   2.0440000   0.0000000
 NMagM=    0.0000000   0.0000000   0.0000000   0.0000000   0.0000000   0.0000000   0.0000000   0.0000000   0.4037610   0.0000000

  Atom        31          32          33          34          35          36          37          38          39          40
 IAtWgt=          12          14          12          12          12          16          12           1           1           1
 AtmWgt=  12.0000000  14.0030740  12.0000000  12.0000000  12.0000000  15.9949146  12.0000000   1.0078250   1.0078250   1.0078250
 NucSpn=           0           2           0           0           0           0           0           1           1           1
 AtZEff=   0.0000000   0.0000000   0.0000000   0.0000000   0.0000000   0.0000000   0.0000000   0.0000000   0.0000000   0.0000000
 NQMom=    0.0000000   2.0440000   0.0000000   0.0000000   0.0000000   0.0000000   0.0000000   0.0000000   0.0000000   0.0000000
 NMagM=    0.0000000   0.4037610   0.0000000   0.0000000   0.0000000   0.0000000   0.0000000   2.7928460   2.7928460   2.7928460

  Atom        41          42          43          44          45          46          47          48          49          50
 IAtWgt=           1           1           1           1           1           1           1           1           1           1
 AtmWgt=   1.0078250   1.0078250   1.0078250   1.0078250   1.0078250   1.0078250   1.0078250   1.0078250   1.0078250   1.0078250
 NucSpn=           1           1           1           1           1           1           1           1           1           1
 AtZEff=   0.0000000   0.0000000   0.0000000   0.0000000   0.0000000   0.0000000   0.0000000   0.0000000   0.0000000   0.0000000
 NQMom=    0.0000000   0.0000000   0.0000000   0.0000000   0.0000000   0.0000000   0.0000000   0.0000000   0.0000000   0.0000000
 NMagM=    2.7928460   2.7928460   2.7928460   2.7928460   2.7928460   2.7928460   2.7928460   2.7928460   2.7928460   2.7928460

  Atom        51          52          53          54          55          56          57          58          59          60
 IAtWgt=           1           1           1           1           1           1           1           1           1           1
 AtmWgt=   1.0078250   1.0078250   1.0078250   1.0078250   1.0078250   1.0078250   1.0078250   1.0078250   1.0078250   1.0078250
 NucSpn=           1           1           1           1           1           1           1           1           1           1
 AtZEff=   0.0000000   0.0000000   0.0000000   0.0000000   0.0000000   0.0000000   0.0000000   0.0000000   0.0000000   0.0000000
 NQMom=    0.0000000   0.0000000   0.0000000   0.0000000   0.0000000   0.0000000   0.0000000   0.0000000   0.0000000   0.0000000
 NMagM=    2.7928460   2.7928460   2.7928460   2.7928460   2.7928460   2.7928460   2.7928460   2.7928460   2.7928460   2.7928460

  Atom        61          62          63          64          65          66          67          68
 IAtWgt=           1           1           1           1           1           1           1           1
 AtmWgt=   1.0078250   1.0078250   1.0078250   1.0078250   1.0078250   1.0078250   1.0078250   1.0078250
 NucSpn=           1           1           1           1           1           1           1           1
 AtZEff=   0.0000000   0.0000000   0.0000000   0.0000000   0.0000000   0.0000000   0.0000000   0.0000000
 NQMom=    0.0000000   0.0000000   0.0000000   0.0000000   0.0000000   0.0000000   0.0000000   0.0000000
 NMagM=    2.7928460   2.7928460   2.7928460   2.7928460   2.7928460   2.7928460   2.7928460   2.7928460
 Leave Link  101 at Wed Mar 25 13:01:06 2020, MaxMem= 2684354560 cpu:       0.7
 (Enter /opt/g09gh/gaussian/g09/l103.exe)

 GradGradGradGradGradGradGradGradGradGradGradGradGradGradGradGradGradGrad
 Berny optimization.
 Initialization pass.
                           ----------------------------
                           !    Initial Parameters    !
                           ! (Angstroms and Degrees)  !
 --------------------------                            --------------------------
 ! Name  Definition              Value          Derivative Info.                !
 --------------------------------------------------------------------------------
 ! R1    R(1,2)                  1.4016         estimate D2E/DX2                !
 ! R2    R(1,6)                  1.4002         estimate D2E/DX2                !
 ! R3    R(1,38)                 1.0859         estimate D2E/DX2                !
 ! R4    R(2,3)                  1.4076         estimate D2E/DX2                !
 ! R5    R(2,39)                 1.088          estimate D2E/DX2                !
 ! R6    R(3,4)                  1.4155         estimate D2E/DX2                !
 ! R7    R(3,7)                  1.5032         estimate D2E/DX2                !
 ! R8    R(4,5)                  1.339          estimate D2E/DX2                !
 ! R9    R(4,40)                 1.0863         estimate D2E/DX2                !
 ! R10   R(5,6)                  1.3416         estimate D2E/DX2                !
 ! R11   R(6,41)                 1.089          estimate D2E/DX2                !
 ! R12   R(7,8)                  1.4018         estimate D2E/DX2                !
 ! R13   R(7,12)                 1.3452         estimate D2E/DX2                !
 ! R14   R(8,9)                  1.3997         estimate D2E/DX2                !
 ! R15   R(8,42)                 1.0838         estimate D2E/DX2                !
 ! R16   R(9,10)                 1.331          estimate D2E/DX2                !
 ! R17   R(9,43)                 1.0896         estimate D2E/DX2                !
 ! R18   R(10,11)                1.3502         estimate D2E/DX2                !
 ! R19   R(11,12)                1.3357         estimate D2E/DX2                !
 ! R20   R(11,13)                1.3875         estimate D2E/DX2                !
 ! R21   R(13,14)                1.4439         estimate D2E/DX2                !
 ! R22   R(13,44)                1.0091         estimate D2E/DX2                !
 ! R23   R(14,15)                1.428          estimate D2E/DX2                !
 ! R24   R(14,19)                1.3996         estimate D2E/DX2                !
 ! R25   R(15,16)                1.4059         estimate D2E/DX2                !
 ! R26   R(15,37)                1.5191         estimate D2E/DX2                !
 ! R27   R(16,17)                1.4003         estimate D2E/DX2                !
 ! R28   R(16,45)                1.0893         estimate D2E/DX2                !
 ! R29   R(17,18)                1.3982         estimate D2E/DX2                !
 ! R30   R(17,46)                1.0835         estimate D2E/DX2                !
 ! R31   R(18,19)                1.4037         estimate D2E/DX2                !
 ! R32   R(18,20)                1.4289         estimate D2E/DX2                !
 ! R33   R(19,47)                1.0784         estimate D2E/DX2                !
 ! R34   R(20,21)                1.3745         estimate D2E/DX2                !
 ! R35   R(20,48)                1.0103         estimate D2E/DX2                !
 ! R36   R(21,22)                1.5168         estimate D2E/DX2                !
 ! R37   R(21,36)                1.2206         estimate D2E/DX2                !
 ! R38   R(22,23)                1.4051         estimate D2E/DX2                !
 ! R39   R(22,27)                1.404          estimate D2E/DX2                !
 ! R40   R(23,24)                1.395          estimate D2E/DX2                !
 ! R41   R(23,49)                1.0873         estimate D2E/DX2                !
 ! R42   R(24,25)                1.4068         estimate D2E/DX2                !
 ! R43   R(24,50)                1.0898         estimate D2E/DX2                !
 ! R44   R(25,26)                1.4084         estimate D2E/DX2                !
 ! R45   R(25,28)                1.5288         estimate D2E/DX2                !
 ! R46   R(26,27)                1.3975         estimate D2E/DX2                !
 ! R47   R(26,51)                1.0896         estimate D2E/DX2                !
 ! R48   R(27,52)                1.0871         estimate D2E/DX2                !
 ! R49   R(28,29)                1.4745         estimate D2E/DX2                !
 ! R50   R(28,53)                1.0997         estimate D2E/DX2                !
 ! R51   R(28,54)                1.0996         estimate D2E/DX2                !
 ! R52   R(29,30)                1.4809         estimate D2E/DX2                !
 ! R53   R(29,35)                1.4808         estimate D2E/DX2                !
 ! R54   R(30,31)                1.551          estimate D2E/DX2                !
 ! R55   R(30,55)                1.052          estimate D2E/DX2                !
 ! R56   R(30,56)                1.58           estimate D2E/DX2                !
 ! R57   R(31,32)                1.4824         estimate D2E/DX2                !
 ! R58   R(31,57)                1.4686         estimate D2E/DX2                !
 ! R59   R(31,58)                1.1803         estimate D2E/DX2                !
 ! R60   R(32,33)                1.4677         estimate D2E/DX2                !
 ! R61   R(32,34)                1.483          estimate D2E/DX2                !
 ! R62   R(33,59)                1.0957         estimate D2E/DX2                !
 ! R63   R(33,60)                1.0959         estimate D2E/DX2                !
 ! R64   R(33,61)                1.0961         estimate D2E/DX2                !
 ! R65   R(34,35)                1.5513         estimate D2E/DX2                !
 ! R66   R(34,62)                1.1097         estimate D2E/DX2                !
 ! R67   R(34,63)                1.5013         estimate D2E/DX2                !
 ! R68   R(35,64)                1.5776         estimate D2E/DX2                !
 ! R69   R(35,65)                1.1353         estimate D2E/DX2                !
 ! R70   R(37,66)                1.0992         estimate D2E/DX2                !
 ! R71   R(37,67)                1.0992         estimate D2E/DX2                !
 ! R72   R(37,68)                1.0987         estimate D2E/DX2                !
 ! A1    A(2,1,6)              118.3461         estimate D2E/DX2                !
 ! A2    A(2,1,38)             121.2234         estimate D2E/DX2                !
 ! A3    A(6,1,38)             120.4296         estimate D2E/DX2                !
 ! A4    A(1,2,3)              119.7651         estimate D2E/DX2                !
 ! A5    A(1,2,39)             119.0631         estimate D2E/DX2                !
 ! A6    A(3,2,39)             121.141          estimate D2E/DX2                !
 ! A7    A(2,3,4)              116.2314         estimate D2E/DX2                !
 ! A8    A(2,3,7)              123.1135         estimate D2E/DX2                !
 ! A9    A(4,3,7)              120.6419         estimate D2E/DX2                !
 ! A10   A(3,4,5)              124.7567         estimate D2E/DX2                !
 ! A11   A(3,4,40)             120.0357         estimate D2E/DX2                !
 ! A12   A(5,4,40)             115.2037         estimate D2E/DX2                !
 ! A13   A(4,5,6)              117.4773         estimate D2E/DX2                !
 ! A14   A(1,6,5)              123.3846         estimate D2E/DX2                !
 ! A15   A(1,6,41)             120.8649         estimate D2E/DX2                !
 ! A16   A(5,6,41)             115.7488         estimate D2E/DX2                !
 ! A17   A(3,7,8)              125.4389         estimate D2E/DX2                !
 ! A18   A(3,7,12)             114.1359         estimate D2E/DX2                !
 ! A19   A(8,7,12)             120.4241         estimate D2E/DX2                !
 ! A20   A(7,8,9)              115.3728         estimate D2E/DX2                !
 ! A21   A(7,8,42)             123.6602         estimate D2E/DX2                !
 ! A22   A(9,8,42)             120.9602         estimate D2E/DX2                !
 ! A23   A(8,9,10)             124.4946         estimate D2E/DX2                !
 ! A24   A(8,9,43)             120.1827         estimate D2E/DX2                !
 ! A25   A(10,9,43)            115.3228         estimate D2E/DX2                !
 ! A26   A(9,10,11)            115.9098         estimate D2E/DX2                !
 ! A27   A(10,11,12)           124.242          estimate D2E/DX2                !
 ! A28   A(10,11,13)           115.7694         estimate D2E/DX2                !
 ! A29   A(12,11,13)           119.9886         estimate D2E/DX2                !
 ! A30   A(7,12,11)            119.5483         estimate D2E/DX2                !
 ! A31   A(11,13,14)           133.1199         estimate D2E/DX2                !
 ! A32   A(11,13,44)           109.7276         estimate D2E/DX2                !
 ! A33   A(14,13,44)           116.8862         estimate D2E/DX2                !
 ! A34   A(13,14,15)           119.5987         estimate D2E/DX2                !
 ! A35   A(13,14,19)           121.6031         estimate D2E/DX2                !
 ! A36   A(15,14,19)           118.7981         estimate D2E/DX2                !
 ! A37   A(14,15,16)           117.1754         estimate D2E/DX2                !
 ! A38   A(14,15,37)           123.347          estimate D2E/DX2                !
 ! A39   A(16,15,37)           119.4749         estimate D2E/DX2                !
 ! A40   A(15,16,17)           123.9852         estimate D2E/DX2                !
 ! A41   A(15,16,45)           119.1793         estimate D2E/DX2                !
 ! A42   A(17,16,45)           116.8331         estimate D2E/DX2                !
 ! A43   A(16,17,18)           118.1087         estimate D2E/DX2                !
 ! A44   A(16,17,46)           121.7322         estimate D2E/DX2                !
 ! A45   A(18,17,46)           120.1585         estimate D2E/DX2                !
 ! A46   A(17,18,19)           119.2748         estimate D2E/DX2                !
 ! A47   A(17,18,20)           126.1974         estimate D2E/DX2                !
 ! A48   A(19,18,20)           114.5138         estimate D2E/DX2                !
 ! A49   A(14,19,18)           122.6542         estimate D2E/DX2                !
 ! A50   A(14,19,47)           117.912          estimate D2E/DX2                !
 ! A51   A(18,19,47)           119.4207         estimate D2E/DX2                !
 ! A52   A(18,20,21)           131.8511         estimate D2E/DX2                !
 ! A53   A(18,20,48)           113.7124         estimate D2E/DX2                !
 ! A54   A(21,20,48)           114.2647         estimate D2E/DX2                !
 ! A55   A(20,21,22)           116.2415         estimate D2E/DX2                !
 ! A56   A(20,21,36)           122.9587         estimate D2E/DX2                !
 ! A57   A(22,21,36)           120.7909         estimate D2E/DX2                !
 ! A58   A(21,22,23)           122.4142         estimate D2E/DX2                !
 ! A59   A(21,22,27)           118.8057         estimate D2E/DX2                !
 ! A60   A(23,22,27)           118.7797         estimate D2E/DX2                !
 ! A61   A(22,23,24)           120.409          estimate D2E/DX2                !
 ! A62   A(22,23,49)           119.7163         estimate D2E/DX2                !
 ! A63   A(24,23,49)           119.8503         estimate D2E/DX2                !
 ! A64   A(23,24,25)           121.3507         estimate D2E/DX2                !
 ! A65   A(23,24,50)           118.4761         estimate D2E/DX2                !
 ! A66   A(25,24,50)           120.1431         estimate D2E/DX2                !
 ! A67   A(24,25,26)           117.5899         estimate D2E/DX2                !
 ! A68   A(24,25,28)           120.4987         estimate D2E/DX2                !
 ! A69   A(26,25,28)           121.8567         estimate D2E/DX2                !
 ! A70   A(25,26,27)           121.4067         estimate D2E/DX2                !
 ! A71   A(25,26,51)           119.9764         estimate D2E/DX2                !
 ! A72   A(27,26,51)           118.5973         estimate D2E/DX2                !
 ! A73   A(22,27,26)           120.2147         estimate D2E/DX2                !
 ! A74   A(22,27,52)           118.5872         estimate D2E/DX2                !
 ! A75   A(26,27,52)           121.1457         estimate D2E/DX2                !
 ! A76   A(25,28,29)           118.5717         estimate D2E/DX2                !
 ! A77   A(25,28,53)           108.6073         estimate D2E/DX2                !
 ! A78   A(25,28,54)           108.624          estimate D2E/DX2                !
 ! A79   A(29,28,53)           107.2058         estimate D2E/DX2                !
 ! A80   A(29,28,54)           106.8317         estimate D2E/DX2                !
 ! A81   A(53,28,54)           106.3721         estimate D2E/DX2                !
 ! A82   A(28,29,30)           118.9735         estimate D2E/DX2                !
 ! A83   A(28,29,35)           118.7152         estimate D2E/DX2                !
 ! A84   A(30,29,35)           110.391          estimate D2E/DX2                !
 ! A85   A(29,30,31)           114.7671         estimate D2E/DX2                !
 ! A86   A(29,30,55)           110.8567         estimate D2E/DX2                !
 ! A87   A(29,30,56)           106.4798         estimate D2E/DX2                !
 ! A88   A(31,30,55)           112.6507         estimate D2E/DX2                !
 ! A89   A(31,30,56)           105.0631         estimate D2E/DX2                !
 ! A90   A(55,30,56)           106.2869         estimate D2E/DX2                !
 ! A91   A(30,31,32)           114.0364         estimate D2E/DX2                !
 ! A92   A(30,31,57)           107.4833         estimate D2E/DX2                !
 ! A93   A(30,31,58)           111.3032         estimate D2E/DX2                !
 ! A94   A(32,31,57)           108.4928         estimate D2E/DX2                !
 ! A95   A(32,31,58)           107.9072         estimate D2E/DX2                !
 ! A96   A(57,31,58)           107.3901         estimate D2E/DX2                !
 ! A97   A(31,32,33)           116.3806         estimate D2E/DX2                !
 ! A98   A(31,32,34)           108.9544         estimate D2E/DX2                !
 ! A99   A(33,32,34)           116.6224         estimate D2E/DX2                !
 ! A100  A(32,33,59)           111.0949         estimate D2E/DX2                !
 ! A101  A(32,33,60)           110.1865         estimate D2E/DX2                !
 ! A102  A(32,33,61)           110.1076         estimate D2E/DX2                !
 ! A103  A(59,33,60)           108.866          estimate D2E/DX2                !
 ! A104  A(59,33,61)           108.7252         estimate D2E/DX2                !
 ! A105  A(60,33,61)           107.7805         estimate D2E/DX2                !
 ! A106  A(32,34,35)           114.3711         estimate D2E/DX2                !
 ! A107  A(32,34,62)           109.4888         estimate D2E/DX2                !
 ! A108  A(32,34,63)           106.6326         estimate D2E/DX2                !
 ! A109  A(35,34,62)           111.6005         estimate D2E/DX2                !
 ! A110  A(35,34,63)           107.0439         estimate D2E/DX2                !
 ! A111  A(62,34,63)           107.3177         estimate D2E/DX2                !
 ! A112  A(29,35,34)           115.4604         estimate D2E/DX2                !
 ! A113  A(29,35,64)           106.8954         estimate D2E/DX2                !
 ! A114  A(29,35,65)           110.4033         estimate D2E/DX2                !
 ! A115  A(34,35,64)           105.263          estimate D2E/DX2                !
 ! A116  A(34,35,65)           111.4284         estimate D2E/DX2                !
 ! A117  A(64,35,65)           106.7935         estimate D2E/DX2                !
 ! A118  A(15,37,66)           111.4264         estimate D2E/DX2                !
 ! A119  A(15,37,67)           111.4586         estimate D2E/DX2                !
 ! A120  A(15,37,68)           112.9592         estimate D2E/DX2                !
 ! A121  A(66,37,67)           107.4878         estimate D2E/DX2                !
 ! A122  A(66,37,68)           106.6582         estimate D2E/DX2                !
 ! A123  A(67,37,68)           106.5134         estimate D2E/DX2                !
 ! D1    D(6,1,2,3)              0.8678         estimate D2E/DX2                !
 ! D2    D(6,1,2,39)           178.8719         estimate D2E/DX2                !
 ! D3    D(38,1,2,3)          -178.7906         estimate D2E/DX2                !
 ! D4    D(38,1,2,39)           -0.7865         estimate D2E/DX2                !
 ! D5    D(2,1,6,5)              0.5308         estimate D2E/DX2                !
 ! D6    D(2,1,6,41)          -179.9728         estimate D2E/DX2                !
 ! D7    D(38,1,6,5)          -179.8081         estimate D2E/DX2                !
 ! D8    D(38,1,6,41)           -0.3116         estimate D2E/DX2                !
 ! D9    D(1,2,3,4)             -2.1107         estimate D2E/DX2                !
 ! D10   D(1,2,3,7)            179.2082         estimate D2E/DX2                !
 ! D11   D(39,2,3,4)           179.9276         estimate D2E/DX2                !
 ! D12   D(39,2,3,7)             1.2465         estimate D2E/DX2                !
 ! D13   D(2,3,4,5)              2.2389         estimate D2E/DX2                !
 ! D14   D(2,3,4,40)          -177.0085         estimate D2E/DX2                !
 ! D15   D(7,3,4,5)           -179.0451         estimate D2E/DX2                !
 ! D16   D(7,3,4,40)             1.7075         estimate D2E/DX2                !
 ! D17   D(2,3,7,8)             30.8881         estimate D2E/DX2                !
 ! D18   D(2,3,7,12)          -149.5042         estimate D2E/DX2                !
 ! D19   D(4,3,7,8)           -147.7368         estimate D2E/DX2                !
 ! D20   D(4,3,7,12)            31.8708         estimate D2E/DX2                !
 ! D21   D(3,4,5,6)             -0.9349         estimate D2E/DX2                !
 ! D22   D(40,4,5,6)           178.345          estimate D2E/DX2                !
 ! D23   D(4,5,6,1)             -0.5171         estimate D2E/DX2                !
 ! D24   D(4,5,6,41)           179.9628         estimate D2E/DX2                !
 ! D25   D(3,7,8,9)           -179.7459         estimate D2E/DX2                !
 ! D26   D(3,7,8,42)             1.1943         estimate D2E/DX2                !
 ! D27   D(12,7,8,9)             0.6693         estimate D2E/DX2                !
 ! D28   D(12,7,8,42)         -178.3905         estimate D2E/DX2                !
 ! D29   D(3,7,12,11)          179.2548         estimate D2E/DX2                !
 ! D30   D(8,7,12,11)           -1.1159         estimate D2E/DX2                !
 ! D31   D(7,8,9,10)            -0.0259         estimate D2E/DX2                !
 ! D32   D(7,8,9,43)           179.9627         estimate D2E/DX2                !
 ! D33   D(42,8,9,10)          179.0615         estimate D2E/DX2                !
 ! D34   D(42,8,9,43)           -0.9499         estimate D2E/DX2                !
 ! D35   D(8,9,10,11)           -0.1607         estimate D2E/DX2                !
 ! D36   D(43,9,10,11)         179.8502         estimate D2E/DX2                !
 ! D37   D(9,10,11,12)          -0.3021         estimate D2E/DX2                !
 ! D38   D(9,10,11,13)         179.7983         estimate D2E/DX2                !
 ! D39   D(10,11,12,7)           0.9495         estimate D2E/DX2                !
 ! D40   D(13,11,12,7)        -179.1548         estimate D2E/DX2                !
 ! D41   D(10,11,13,14)       -175.9997         estimate D2E/DX2                !
 ! D42   D(10,11,13,44)         -2.294          estimate D2E/DX2                !
 ! D43   D(12,11,13,14)          4.0961         estimate D2E/DX2                !
 ! D44   D(12,11,13,44)        177.8017         estimate D2E/DX2                !
 ! D45   D(11,13,14,15)        163.0693         estimate D2E/DX2                !
 ! D46   D(11,13,14,19)        -17.0281         estimate D2E/DX2                !
 ! D47   D(44,13,14,15)        -10.2862         estimate D2E/DX2                !
 ! D48   D(44,13,14,19)        169.6164         estimate D2E/DX2                !
 ! D49   D(13,14,15,16)       -179.8107         estimate D2E/DX2                !
 ! D50   D(13,14,15,37)         -0.422          estimate D2E/DX2                !
 ! D51   D(19,14,15,16)          0.2839         estimate D2E/DX2                !
 ! D52   D(19,14,15,37)        179.6726         estimate D2E/DX2                !
 ! D53   D(13,14,19,18)        179.6427         estimate D2E/DX2                !
 ! D54   D(13,14,19,47)          0.9749         estimate D2E/DX2                !
 ! D55   D(15,14,19,18)         -0.454          estimate D2E/DX2                !
 ! D56   D(15,14,19,47)       -179.1218         estimate D2E/DX2                !
 ! D57   D(14,15,16,17)          0.2615         estimate D2E/DX2                !
 ! D58   D(14,15,16,45)        179.6756         estimate D2E/DX2                !
 ! D59   D(37,15,16,17)       -179.1519         estimate D2E/DX2                !
 ! D60   D(37,15,16,45)          0.2621         estimate D2E/DX2                !
 ! D61   D(14,15,37,66)         64.1484         estimate D2E/DX2                !
 ! D62   D(14,15,37,67)        -55.9251         estimate D2E/DX2                !
 ! D63   D(14,15,37,68)       -175.8064         estimate D2E/DX2                !
 ! D64   D(16,15,37,66)       -116.4763         estimate D2E/DX2                !
 ! D65   D(16,15,37,67)        123.4502         estimate D2E/DX2                !
 ! D66   D(16,15,37,68)          3.5689         estimate D2E/DX2                !
 ! D67   D(15,16,17,18)         -0.6394         estimate D2E/DX2                !
 ! D68   D(15,16,17,46)        179.1009         estimate D2E/DX2                !
 ! D69   D(45,16,17,18)        179.9339         estimate D2E/DX2                !
 ! D70   D(45,16,17,46)         -0.3258         estimate D2E/DX2                !
 ! D71   D(16,17,18,19)          0.458          estimate D2E/DX2                !
 ! D72   D(16,17,18,20)        179.0151         estimate D2E/DX2                !
 ! D73   D(46,17,18,19)       -179.2866         estimate D2E/DX2                !
 ! D74   D(46,17,18,20)         -0.7295         estimate D2E/DX2                !
 ! D75   D(17,18,19,14)          0.0735         estimate D2E/DX2                !
 ! D76   D(17,18,19,47)        178.7219         estimate D2E/DX2                !
 ! D77   D(20,18,19,14)       -178.6468         estimate D2E/DX2                !
 ! D78   D(20,18,19,47)          0.0017         estimate D2E/DX2                !
 ! D79   D(17,18,20,21)         -8.1862         estimate D2E/DX2                !
 ! D80   D(17,18,20,48)        176.9441         estimate D2E/DX2                !
 ! D81   D(19,18,20,21)        170.4305         estimate D2E/DX2                !
 ! D82   D(19,18,20,48)         -4.4392         estimate D2E/DX2                !
 ! D83   D(18,20,21,22)       -168.0062         estimate D2E/DX2                !
 ! D84   D(18,20,21,36)         13.0762         estimate D2E/DX2                !
 ! D85   D(48,20,21,22)          6.8414         estimate D2E/DX2                !
 ! D86   D(48,20,21,36)       -172.0763         estimate D2E/DX2                !
 ! D87   D(20,21,22,23)         35.9485         estimate D2E/DX2                !
 ! D88   D(20,21,22,27)       -144.3118         estimate D2E/DX2                !
 ! D89   D(36,21,22,23)       -145.1087         estimate D2E/DX2                !
 ! D90   D(36,21,22,27)         34.631          estimate D2E/DX2                !
 ! D91   D(21,22,23,24)       -175.5216         estimate D2E/DX2                !
 ! D92   D(21,22,23,49)          2.678          estimate D2E/DX2                !
 ! D93   D(27,22,23,24)          4.7386         estimate D2E/DX2                !
 ! D94   D(27,22,23,49)       -177.0618         estimate D2E/DX2                !
 ! D95   D(21,22,27,26)        174.8798         estimate D2E/DX2                !
 ! D96   D(21,22,27,52)         -2.5181         estimate D2E/DX2                !
 ! D97   D(23,22,27,26)         -5.3709         estimate D2E/DX2                !
 ! D98   D(23,22,27,52)        177.2312         estimate D2E/DX2                !
 ! D99   D(22,23,24,25)         -0.6182         estimate D2E/DX2                !
 ! D100  D(22,23,24,50)        177.3887         estimate D2E/DX2                !
 ! D101  D(49,23,24,25)       -178.8154         estimate D2E/DX2                !
 ! D102  D(49,23,24,50)         -0.8085         estimate D2E/DX2                !
 ! D103  D(23,24,25,26)         -2.8367         estimate D2E/DX2                !
 ! D104  D(23,24,25,28)        174.5243         estimate D2E/DX2                !
 ! D105  D(50,24,25,26)        179.1893         estimate D2E/DX2                !
 ! D106  D(50,24,25,28)         -3.4498         estimate D2E/DX2                !
 ! D107  D(24,25,26,27)          2.1864         estimate D2E/DX2                !
 ! D108  D(24,25,26,51)       -179.4431         estimate D2E/DX2                !
 ! D109  D(28,25,26,27)       -175.1363         estimate D2E/DX2                !
 ! D110  D(28,25,26,51)          3.2341         estimate D2E/DX2                !
 ! D111  D(24,25,28,29)        -82.7849         estimate D2E/DX2                !
 ! D112  D(24,25,28,53)         39.8135         estimate D2E/DX2                !
 ! D113  D(24,25,28,54)        155.111          estimate D2E/DX2                !
 ! D114  D(26,25,28,29)         94.4612         estimate D2E/DX2                !
 ! D115  D(26,25,28,53)       -142.9403         estimate D2E/DX2                !
 ! D116  D(26,25,28,54)        -27.6429         estimate D2E/DX2                !
 ! D117  D(25,26,27,22)          1.922          estimate D2E/DX2                !
 ! D118  D(25,26,27,52)        179.2523         estimate D2E/DX2                !
 ! D119  D(51,26,27,22)       -176.4703         estimate D2E/DX2                !
 ! D120  D(51,26,27,52)          0.86           estimate D2E/DX2                !
 ! D121  D(25,28,29,30)         74.6867         estimate D2E/DX2                !
 ! D122  D(25,28,29,35)        -64.5535         estimate D2E/DX2                !
 ! D123  D(53,28,29,30)        -48.6105         estimate D2E/DX2                !
 ! D124  D(53,28,29,35)        172.1493         estimate D2E/DX2                !
 ! D125  D(54,28,29,30)       -162.3116         estimate D2E/DX2                !
 ! D126  D(54,28,29,35)         58.4481         estimate D2E/DX2                !
 ! D127  D(28,29,30,31)        -95.1068         estimate D2E/DX2                !
 ! D128  D(28,29,30,55)         33.917          estimate D2E/DX2                !
 ! D129  D(28,29,30,56)        149.1107         estimate D2E/DX2                !
 ! D130  D(35,29,30,31)         47.2404         estimate D2E/DX2                !
 ! D131  D(35,29,30,55)        176.2642         estimate D2E/DX2                !
 ! D132  D(35,29,30,56)        -68.5421         estimate D2E/DX2                !
 ! D133  D(28,29,35,34)         96.3153         estimate D2E/DX2                !
 ! D134  D(28,29,35,64)       -146.9837         estimate D2E/DX2                !
 ! D135  D(28,29,35,65)        -31.1891         estimate D2E/DX2                !
 ! D136  D(30,29,35,34)        -46.1415         estimate D2E/DX2                !
 ! D137  D(30,29,35,64)         70.5595         estimate D2E/DX2                !
 ! D138  D(30,29,35,65)       -173.6459         estimate D2E/DX2                !
 ! D139  D(29,30,31,32)        -52.9698         estimate D2E/DX2                !
 ! D140  D(29,30,31,57)       -173.2745         estimate D2E/DX2                !
 ! D141  D(29,30,31,58)         69.3927         estimate D2E/DX2                !
 ! D142  D(55,30,31,32)        178.9039         estimate D2E/DX2                !
 ! D143  D(55,30,31,57)         58.5993         estimate D2E/DX2                !
 ! D144  D(55,30,31,58)        -58.7335         estimate D2E/DX2                !
 ! D145  D(56,30,31,32)         63.6262         estimate D2E/DX2                !
 ! D146  D(56,30,31,57)        -56.6784         estimate D2E/DX2                !
 ! D147  D(56,30,31,58)       -174.0112         estimate D2E/DX2                !
 ! D148  D(30,31,32,33)        -81.9357         estimate D2E/DX2                !
 ! D149  D(30,31,32,34)         52.4283         estimate D2E/DX2                !
 ! D150  D(57,31,32,33)         37.8017         estimate D2E/DX2                !
 ! D151  D(57,31,32,34)        172.1657         estimate D2E/DX2                !
 ! D152  D(58,31,32,33)        153.8589         estimate D2E/DX2                !
 ! D153  D(58,31,32,34)        -71.7772         estimate D2E/DX2                !
 ! D154  D(31,32,33,59)         65.5733         estimate D2E/DX2                !
 ! D155  D(31,32,33,60)        -55.1636         estimate D2E/DX2                !
 ! D156  D(31,32,33,61)       -173.9192         estimate D2E/DX2                !
 ! D157  D(34,32,33,59)        -65.2845         estimate D2E/DX2                !
 ! D158  D(34,32,33,60)        173.9786         estimate D2E/DX2                !
 ! D159  D(34,32,33,61)         55.223          estimate D2E/DX2                !
 ! D160  D(31,32,34,35)        -51.1352         estimate D2E/DX2                !
 ! D161  D(31,32,34,62)       -177.2232         estimate D2E/DX2                !
 ! D162  D(31,32,34,63)         66.9743         estimate D2E/DX2                !
 ! D163  D(33,32,34,35)         83.1053         estimate D2E/DX2                !
 ! D164  D(33,32,34,62)        -42.9827         estimate D2E/DX2                !
 ! D165  D(33,32,34,63)       -158.7852         estimate D2E/DX2                !
 ! D166  D(32,34,35,29)         50.43           estimate D2E/DX2                !
 ! D167  D(32,34,35,64)        -67.1882         estimate D2E/DX2                !
 ! D168  D(32,34,35,65)        177.419          estimate D2E/DX2                !
 ! D169  D(62,34,35,29)        175.4098         estimate D2E/DX2                !
 ! D170  D(62,34,35,64)         57.7916         estimate D2E/DX2                !
 ! D171  D(62,34,35,65)        -57.6012         estimate D2E/DX2                !
 ! D172  D(63,34,35,29)        -67.4454         estimate D2E/DX2                !
 ! D173  D(63,34,35,64)        174.9364         estimate D2E/DX2                !
 ! D174  D(63,34,35,65)         59.5437         estimate D2E/DX2                !
 --------------------------------------------------------------------------------
 Trust Radius=3.00D-01 FncErr=1.00D-07 GrdErr=1.00D-06
 Number of steps in this run= 400 maximum allowed number of steps= 408.
 GradGradGradGradGradGradGradGradGradGradGradGradGradGradGradGradGradGrad

 Leave Link  103 at Wed Mar 25 13:01:06 2020, MaxMem= 2684354560 cpu:       0.1
 (Enter /opt/g09gh/gaussian/g09/l202.exe)
 Stoichiometry    C29H31N7O
 Framework group  C1[X(C29H31N7O)]
 Deg. of freedom   198
 Full point group                 C1      NOp   1
 Largest Abelian subgroup         C1      NOp   1
 Largest concise Abelian subgroup C1      NOp   1
                         Standard orientation:                         
 ---------------------------------------------------------------------
 Center     Atomic      Atomic             Coordinates (Angstroms)
 Number     Number       Type             X           Y           Z
 ---------------------------------------------------------------------
      1          6           0        0.040862    4.278072   -1.878331
      2          6           0        1.373890    4.140322   -1.467917
      3          6           0        1.738194    3.075810   -0.622081
      4          6           0        0.688909    2.224211   -0.200709
      5          7           0       -0.589099    2.340853   -0.582954
      6          6           0       -0.897764    3.349877   -1.411492
      7          6           0        3.146967    2.846800   -0.150505
      8          6           0        4.103045    3.847929    0.070435
      9          6           0        5.354747    3.396548    0.504765
     10          7           0        5.665888    2.118691    0.709220
     11          6           0        4.680131    1.226551    0.474032
     12          7           0        3.451123    1.554511    0.066661
     13          7           0        5.008941   -0.105006    0.683896
     14          6           0        4.291996   -1.342094    0.483056
     15          6           0        5.010049   -2.575930    0.449171
     16          6           0        4.261928   -3.748861    0.246631
     17          6           0        2.872555   -3.770996    0.073722
     18          6           0        2.183803   -2.554998    0.117588
     19          6           0        2.902013   -1.366294    0.321385
     20          7           0        0.776986   -2.375284   -0.056223
     21          6           0       -0.217714   -3.242426   -0.440894
     22          6           0       -1.556987   -2.617657   -0.782619
     23          6           0       -1.665376   -1.371749   -1.423215
     24          6           0       -2.916910   -0.792874   -1.634424
     25          6           0       -4.099529   -1.437682   -1.228407
     26          6           0       -3.980252   -2.718498   -0.654901
     27          6           0       -2.731507   -3.311957   -0.451615
     28          6           0       -5.450336   -0.733170   -1.355636
     29          7           0       -5.857979    0.206958   -0.295395
     30          6           0       -5.216587    1.540363   -0.233474
     31          6           0       -4.009509    1.636385    0.735727
     32          7           0       -4.302349    1.171976    2.112727
     33          6           0       -4.965645    2.135856    2.998829
     34          6           0       -4.893367   -0.186640    2.047420
     35          6           0       -6.090599   -0.317575    1.069711
     36          8           0       -0.061108   -4.451828   -0.492356
     37          6           0        6.518115   -2.669013    0.606005
     38          1           0       -0.262654    5.078816   -2.546003
     39          1           0        2.116379    4.844068   -1.838388
     40          1           0        0.892392    1.412272    0.491739
     41          1           0       -1.944350    3.417960   -1.704737
     42          1           0        3.907301    4.905525   -0.063171
     43          1           0        6.156308    4.108346    0.699852
     44          1           0        5.978950   -0.178124    0.952099
     45          1           0        4.777357   -4.707812    0.209770
     46          1           0        2.333880   -4.695937   -0.094324
     47          1           0        2.375750   -0.425101    0.334930
     48          1           0        0.471980   -1.419327    0.061025
     49          1           0       -0.765955   -0.843131   -1.729519
     50          1           0       -2.962007    0.193651   -2.095284
     51          1           0       -4.871884   -3.256959   -0.335025
     52          1           0       -2.643758   -4.295772    0.002449
     53          1           0       -5.469454   -0.179998   -2.305885
     54          1           0       -6.239106   -1.496092   -1.425204
     55          1           0       -4.990168    1.892253   -1.198654
     56          1           0       -6.297076    2.530484    0.357000
     57          1           0       -3.603304    3.046358    0.796176
     58          1           0       -3.086594    1.020324    0.333533
     59          1           0       -5.975693    2.368128    2.643297
     60          1           0       -4.385579    3.064266    3.049532
     61          1           0       -5.034946    1.728627    4.014058
     62          1           0       -5.162485   -0.522867    3.070171
     63          1           0       -3.813675   -1.101281    1.545954
     64          1           0       -7.242794    0.552743    1.705125
     65          1           0       -6.473506   -1.385328    1.023512
     66          1           0        6.839729   -2.333300    1.602081
     67          1           0        7.038713   -2.047357   -0.136126
     68          1           0        6.899837   -3.691549    0.479802
 ---------------------------------------------------------------------
 Rotational constants (GHZ):      0.1325403      0.0627743      0.0471901
 Leave Link  202 at Wed Mar 25 13:01:06 2020, MaxMem= 2684354560 cpu:       0.1
 (Enter /opt/g09gh/gaussian/g09/l301.exe)
 Standard basis: 6-31G(d) (6D, 7F)
 Ernie: Thresh=  0.10000D-02 Tol=  0.10000D-05 Strict=F.
 There are   617 symmetry adapted basis functions of A   symmetry.
 Integral buffers will be    131072 words long.
 Raffenetti 2 integral format.
 Two-electron integral symmetry is turned on.
   617 basis functions,  1160 primitive gaussians,   617 cartesian basis functions
   131 alpha electrons      131 beta electrons
       nuclear repulsion energy      3805.8648113760 Hartrees.
 IExCor= 4639 DFT=T Ex+Corr=wB97XD ExCW=0 ScaHFX=  1.000000
 ScaDFX=  1.000000  1.000000  1.000000  1.000000 ScalE2=  1.000000  1.000000
 IRadAn=      0 IRanWt=     -1 IRanGd=            0 ICorTp=0
  HFx wShort=  0.000000 wLong=  0.200000 cFull=  0.222036 cShort=  0.000000 cLong=  0.777964
  DFx wShort=  0.000000 wLong=  0.200000 cFull=  0.000000 cShort=  0.000000 cLong=  1.000000
 NAtoms=   68 NActive=   68 NUniq=   68 SFac= 7.50D-01 NAtFMM=   80 NAOKFM=F Big=T
 R6Disp: Dispersion energy =        -0.0591473324 Hartrees.
 Nuclear repulsion after empirical dispersion term =     3805.8056640435 Hartrees.
 Leave Link  301 at Wed Mar 25 13:01:07 2020, MaxMem= 2684354560 cpu:       0.4
 (Enter /opt/g09gh/gaussian/g09/l302.exe)
 NPDir=0 NMtPBC=     1 NCelOv=     1 NCel=       1 NClECP=     1 NCelD=      1
         NCelK=      1 NCelE2=     1 NClLst=     1 CellRange=     0.0.
 One-electron integrals computed using PRISM.
 NBasis=   617 RedAO= T  NBF=   617
 NBsUse=   617 1.00D-06 NBFU=   617
 Precomputing XC quadrature grid using
 IXCGrd= 2 IRadAn=           0 IRanWt=          -1 IRanGd=           0 AccXCQ= 1.00D-10.
 NRdTot=    4374 NPtTot=      558940 NUsed=      590455 NTot=      590487
 NSgBfM=   607   607   607   607   607 NAtAll=    68    68.
 Leave Link  302 at Wed Mar 25 13:01:08 2020, MaxMem= 2684354560 cpu:      10.2
 (Enter /opt/g09gh/gaussian/g09/l303.exe)
 DipDrv:  MaxL=1.
 Leave Link  303 at Wed Mar 25 13:01:08 2020, MaxMem= 2684354560 cpu:       0.6
 (Enter /opt/g09gh/gaussian/g09/l401.exe)
 Harris functional with IExCor= 4639 diagonalized for initial guess.
 ExpMin= 1.61D-01 ExpMax= 5.48D+03 ExpMxC= 8.25D+02 IAcc=1 IRadAn=         1 AccDes= 0.00D+00
 HarFok:  IExCor= 4639 AccDes= 0.00D+00 IRadAn=         1 IDoV= 1
 ScaDFX=  1.000000  1.000000  1.000000  1.000000
 FoFCou: FMM=F IPFlag=           0 FMFlag=      100000 FMFlg1=           1
         NFxFlg=           0 DoJE=T BraDBF=F KetDBF=T FulRan=T
         Omega=  0.000000  0.000000  1.000000  0.000000  0.000000 ICntrl=     500 IOpCl=  0
         NMat0=    1 NMatS0=    1 NMatT0=    0 NMatD0=    1 NMtDS0=    0 NMtDT0=    0
         I1Cent=           4 NGrid=           0.
 Petite list used in FoFCou.
 Harris En= -1512.40443099263    
 Initial guess orbital symmetries:
       Occupied  (A) (A) (A) (A) (A) (A) (A) (A) (A) (A) (A) (A)
                 (A) (A) (A) (A) (A) (A) (A) (A) (A) (A) (A) (A)
                 (A) (A) (A) (A) (A) (A) (A) (A) (A) (A) (A) (A)
                 (A) (A) (A) (A) (A) (A) (A) (A) (A) (A) (A) (A)
                 (A) (A) (A) (A) (A) (A) (A) (A) (A) (A) (A) (A)
                 (A) (A) (A) (A) (A) (A) (A) (A) (A) (A) (A) (A)
                 (A) (A) (A) (A) (A) (A) (A) (A) (A) (A) (A) (A)
                 (A) (A) (A) (A) (A) (A) (A) (A) (A) (A) (A) (A)
                 (A) (A) (A) (A) (A) (A) (A) (A) (A) (A) (A) (A)
                 (A) (A) (A) (A) (A) (A) (A) (A) (A) (A) (A) (A)
                 (A) (A) (A) (A) (A) (A) (A) (A) (A) (A) (A)
       Virtual   (A) (A) (A) (A) (A) (A) (A) (A) (A) (A) (A) (A)
                 (A) (A) (A) (A) (A) (A) (A) (A) (A) (A) (A) (A)
                 (A) (A) (A) (A) (A) (A) (A) (A) (A) (A) (A) (A)
                 (A) (A) (A) (A) (A) (A) (A) (A) (A) (A) (A) (A)
                 (A) (A) (A) (A) (A) (A) (A) (A) (A) (A) (A) (A)
                 (A) (A) (A) (A) (A) (A) (A) (A) (A) (A) (A) (A)
                 (A) (A) (A) (A) (A) (A) (A) (A) (A) (A) (A) (A)
                 (A) (A) (A) (A) (A) (A) (A) (A) (A) (A) (A) (A)
                 (A) (A) (A) (A) (A) (A) (A) (A) (A) (A) (A) (A)
                 (A) (A) (A) (A) (A) (A) (A) (A) (A) (A) (A) (A)
                 (A) (A) (A) (A) (A) (A) (A) (A) (A) (A) (A) (A)
                 (A) (A) (A) (A) (A) (A) (A) (A) (A) (A) (A) (A)
                 (A) (A) (A) (A) (A) (A) (A) (A) (A) (A) (A) (A)
                 (A) (A) (A) (A) (A) (A) (A) (A) (A) (A) (A) (A)
                 (A) (A) (A) (A) (A) (A) (A) (A) (A) (A) (A) (A)
                 (A) (A) (A) (A) (A) (A) (A) (A) (A) (A) (A) (A)
                 (A) (A) (A) (A) (A) (A) (A) (A) (A) (A) (A) (A)
                 (A) (A) (A) (A) (A) (A) (A) (A) (A) (A) (A) (A)
                 (A) (A) (A) (A) (A) (A) (A) (A) (A) (A) (A) (A)
                 (A) (A) (A) (A) (A) (A) (A) (A) (A) (A) (A) (A)
                 (A) (A) (A) (A) (A) (A) (A) (A) (A) (A) (A) (A)
                 (A) (A) (A) (A) (A) (A) (A) (A) (A) (A) (A) (A)
                 (A) (A) (A) (A) (A) (A) (A) (A) (A) (A) (A) (A)
                 (A) (A) (A) (A) (A) (A) (A) (A) (A) (A) (A) (A)
                 (A) (A) (A) (A) (A) (A) (A) (A) (A) (A) (A) (A)
                 (A) (A) (A) (A) (A) (A) (A) (A) (A) (A) (A) (A)
                 (A) (A) (A) (A) (A) (A) (A) (A) (A) (A) (A) (A)
                 (A) (A) (A) (A) (A) (A) (A) (A) (A) (A) (A) (A)
                 (A) (A) (A) (A) (A) (A) (A) (A) (A) (A) (A) (A)
                 (A) (A) (A) (A) (A) (A) (A) (A) (A) (A) (A) (A)
                 (A) (A) (A) (A) (A) (A) (A) (A) (A) (A) (A) (A)
                 (A) (A) (A) (A) (A) (A) (A) (A) (A) (A) (A) (A)
                 (A) (A) (A) (A) (A) (A) (A) (A) (A) (A) (A) (A)
                 (A) (A) (A) (A) (A) (A) (A) (A) (A) (A) (A) (A)
                 (A) (A) (A) (A) (A) (A) (A) (A) (A) (A) (A) (A)
                 (A) (A) (A) (A) (A) (A) (A) (A) (A) (A) (A) (A)
                 (A) (A) (A) (A) (A) (A) (A) (A) (A) (A) (A) (A)
                 (A) (A) (A) (A) (A) (A) (A) (A) (A) (A) (A) (A)
                 (A) (A) (A) (A) (A) (A) (A) (A) (A) (A) (A) (A)
                 (A) (A) (A) (A) (A) (A) (A) (A) (A) (A) (A) (A)
                 (A) (A) (A) (A) (A) (A)
 The electronic state of the initial guess is 1-A.
 Leave Link  401 at Wed Mar 25 13:01:12 2020, MaxMem= 2684354560 cpu:      21.0
 (Enter /opt/g09gh/gaussian/g09/l502.exe)
 Closed shell SCF:
 Requested convergence on RMS density matrix=1.00D-08 within 128 cycles.
 Requested convergence on MAX density matrix=1.00D-06.
 Requested convergence on             energy=1.00D-06.
 No special actions if energy rises.
 Using DIIS extrapolation, IDIIS=  1040.
 Integral symmetry usage will be decided dynamically.
       589830 words used for storage of precomputed grid.
 IEnd=     1758410 IEndB=     1758410 NGot=  2684354560 MDV=  2682994097
 LenX=  2682994097 LenY=  2682612791
 Fock matrices will be formed incrementally for  20 cycles.
 Integral accuracy reduced to 1.0D-05 until final iterations.

 Cycle   1  Pass 0  IDiag  1:
 FoFJK:  IHMeth= 1 ICntrl=     0 DoSepK=T KAlg= 1 I1Cent= 0 FoldK=F
 FoFCou: FMM=T IPFlag=           0 FMFlag=      100000 FMFlg1=           1
         NFxFlg=           0 DoJE=T BraDBF=F KetDBF=F FulRan=T
         Omega=  0.000000  0.000000  1.000000  0.000000  0.000000 ICntrl=     500 IOpCl=  0
         NMat0=    1 NMatS0=    1 NMatT0=    0 NMatD0=    1 NMtDS0=    0 NMtDT0=    0
         I1Cent=           0 NGrid=           0.
 Symmetry not used in FoFCou.
 FMM levels:  10  Number of levels for PrismC:   9
 E= -1581.16507546627    
 DIIS: error= 5.11D-02 at cycle   1 NSaved=   1.
 NSaved= 1 IEnMin= 1 EnMin= -1581.16507546627     IErMin= 1 ErrMin= 5.11D-02
 ErrMax= 5.11D-02 EMaxC= 1.00D-01 BMatC= 1.46D+00 BMatP= 1.46D+00
 IDIUse=3 WtCom= 4.89D-01 WtEn= 5.11D-01
 Coeff-Com:  0.100D+01
 Coeff-En:   0.100D+01
 Coeff:      0.100D+01
 Gap=     0.271 Goal=   None    Shift=    0.000
 GapD=    0.271 DampG=1.000 DampE=0.500 DampFc=0.5000 IDamp=-1.
 Damping current iteration by 5.00D-01
 RMSDP=1.87D-03 MaxDP=8.67D-02              OVMax= 1.69D-01

 Cycle   2  Pass 0  IDiag  1:
 RMSU=  6.62D-04    CP:  1.00D+00
 FoFJK:  IHMeth= 1 ICntrl=     0 DoSepK=T KAlg= 1 I1Cent= 0 FoldK=F
 E= -1581.34132409894     Delta-E=       -0.176248632672 Rises=F Damp=T
 DIIS: error= 2.58D-02 at cycle   2 NSaved=   2.
 NSaved= 2 IEnMin= 2 EnMin= -1581.34132409894     IErMin= 2 ErrMin= 2.58D-02
 ErrMax= 2.58D-02 EMaxC= 1.00D-01 BMatC= 3.22D-01 BMatP= 1.46D+00
 IDIUse=3 WtCom= 7.42D-01 WtEn= 2.58D-01
 Coeff-Com: -0.650D+00 0.165D+01
 Coeff-En:   0.000D+00 0.100D+01
 Coeff:     -0.482D+00 0.148D+01
 Gap=     0.285 Goal=   None    Shift=    0.000
 RMSDP=8.84D-04 MaxDP=3.74D-02 DE=-1.76D-01 OVMax= 1.23D-01

 Cycle   3  Pass 0  IDiag  1:
 RMSU=  5.77D-04    CP:  1.00D+00  1.37D+00
 FoFJK:  IHMeth= 1 ICntrl=     0 DoSepK=T KAlg= 1 I1Cent= 0 FoldK=F
 E= -1581.46613425060     Delta-E=       -0.124810151653 Rises=F Damp=F
 DIIS: error= 9.21D-03 at cycle   3 NSaved=   3.
 NSaved= 3 IEnMin= 3 EnMin= -1581.46613425060     IErMin= 3 ErrMin= 9.21D-03
 ErrMax= 9.21D-03 EMaxC= 1.00D-01 BMatC= 6.84D-02 BMatP= 3.22D-01
 IDIUse=3 WtCom= 9.08D-01 WtEn= 9.21D-02
 Coeff-Com: -0.372D+00 0.769D+00 0.603D+00
 Coeff-En:   0.000D+00 0.000D+00 0.100D+01
 Coeff:     -0.338D+00 0.698D+00 0.640D+00
 Gap=     0.264 Goal=   None    Shift=    0.000
 RMSDP=4.96D-04 MaxDP=3.27D-02 DE=-1.25D-01 OVMax= 6.40D-02

 Cycle   4  Pass 0  IDiag  1:
 RMSU=  1.45D-04    CP:  1.00D+00  1.67D+00  5.73D-01
 FoFJK:  IHMeth= 1 ICntrl=     0 DoSepK=T KAlg= 1 I1Cent= 0 FoldK=F
 E= -1581.52635238550     Delta-E=       -0.060218134902 Rises=F Damp=F
 DIIS: error= 2.17D-03 at cycle   4 NSaved=   4.
 NSaved= 4 IEnMin= 4 EnMin= -1581.52635238550     IErMin= 4 ErrMin= 2.17D-03
 ErrMax= 2.17D-03 EMaxC= 1.00D-01 BMatC= 4.30D-03 BMatP= 6.84D-02
 IDIUse=3 WtCom= 9.78D-01 WtEn= 2.17D-02
 Coeff-Com: -0.166D+00 0.337D+00 0.346D+00 0.482D+00
 Coeff-En:   0.000D+00 0.000D+00 0.000D+00 0.100D+01
 Coeff:     -0.162D+00 0.330D+00 0.339D+00 0.493D+00
 Gap=     0.257 Goal=   None    Shift=    0.000
 RMSDP=1.10D-04 MaxDP=9.22D-03 DE=-6.02D-02 OVMax= 1.07D-02

 Cycle   5  Pass 0  IDiag  1:
 RMSU=  4.62D-05    CP:  1.00D+00  1.65D+00  6.48D-01  7.08D-01
 FoFJK:  IHMeth= 1 ICntrl=     0 DoSepK=T KAlg= 1 I1Cent= 0 FoldK=F
 E= -1581.53011146750     Delta-E=       -0.003759082005 Rises=F Damp=F
 DIIS: error= 5.35D-04 at cycle   5 NSaved=   5.
 NSaved= 5 IEnMin= 5 EnMin= -1581.53011146750     IErMin= 5 ErrMin= 5.35D-04
 ErrMax= 5.35D-04 EMaxC= 1.00D-01 BMatC= 8.99D-05 BMatP= 4.30D-03
 IDIUse=3 WtCom= 9.95D-01 WtEn= 5.35D-03
 Coeff-Com: -0.142D-01 0.280D-01 0.520D-01 0.154D+00 0.780D+00
 Coeff-En:   0.000D+00 0.000D+00 0.000D+00 0.000D+00 0.100D+01
 Coeff:     -0.141D-01 0.278D-01 0.517D-01 0.153D+00 0.781D+00
 Gap=     0.256 Goal=   None    Shift=    0.000
 RMSDP=2.46D-05 MaxDP=2.56D-03 DE=-3.76D-03 OVMax= 2.94D-03

 Cycle   6  Pass 0  IDiag  1:
 RMSU=  1.33D-05    CP:  1.00D+00  1.66D+00  6.55D-01  7.76D-01  9.96D-01
 FoFJK:  IHMeth= 1 ICntrl=     0 DoSepK=T KAlg= 1 I1Cent= 0 FoldK=F
 E= -1581.53020104095     Delta-E=       -0.000089573448 Rises=F Damp=F
 DIIS: error= 2.31D-04 at cycle   6 NSaved=   6.
 NSaved= 6 IEnMin= 6 EnMin= -1581.53020104095     IErMin= 6 ErrMin= 2.31D-04
 ErrMax= 2.31D-04 EMaxC= 1.00D-01 BMatC= 2.76D-05 BMatP= 8.99D-05
 IDIUse=3 WtCom= 9.98D-01 WtEn= 2.31D-03
 Coeff-Com:  0.239D-01-0.493D-01-0.367D-01-0.156D-01 0.398D+00 0.679D+00
 Coeff-En:   0.000D+00 0.000D+00 0.000D+00 0.000D+00 0.000D+00 0.100D+01
 Coeff:      0.238D-01-0.492D-01-0.366D-01-0.155D-01 0.397D+00 0.680D+00
 Gap=     0.256 Goal=   None    Shift=    0.000
 RMSDP=1.31D-05 MaxDP=8.23D-04 DE=-8.96D-05 OVMax= 1.60D-03

 Cycle   7  Pass 0  IDiag  1:
 RMSU=  5.75D-06    CP:  1.00D+00  1.66D+00  6.58D-01  8.02D-01  1.11D+00
                    CP:  8.93D-01
 FoFJK:  IHMeth= 1 ICntrl=     0 DoSepK=T KAlg= 1 I1Cent= 0 FoldK=F
 E= -1581.53023188926     Delta-E=       -0.000030848307 Rises=F Damp=F
 DIIS: error= 7.96D-05 at cycle   7 NSaved=   7.
 NSaved= 7 IEnMin= 7 EnMin= -1581.53023188926     IErMin= 7 ErrMin= 7.96D-05
 ErrMax= 7.96D-05 EMaxC= 1.00D-01 BMatC= 1.75D-06 BMatP= 2.76D-05
 IDIUse=1 WtCom= 1.00D+00 WtEn= 0.00D+00
 Coeff-Com:  0.974D-02-0.199D-01-0.171D-01-0.202D-01 0.655D-01 0.237D+00
 Coeff-Com:  0.745D+00
 Coeff:      0.974D-02-0.199D-01-0.171D-01-0.202D-01 0.655D-01 0.237D+00
 Coeff:      0.745D+00
 Gap=     0.256 Goal=   None    Shift=    0.000
 RMSDP=4.12D-06 MaxDP=2.70D-04 DE=-3.08D-05 OVMax= 6.41D-04

 Initial convergence to 1.0D-05 achieved.  Increase integral accuracy.
 Cycle   8  Pass 1  IDiag  1:
 FoFJK:  IHMeth= 1 ICntrl=     0 DoSepK=T KAlg= 1 I1Cent= 0 FoldK=F
 E= -1581.52840465730     Delta-E=        0.001827231960 Rises=F Damp=F
 DIIS: error= 8.15D-05 at cycle   1 NSaved=   1.
 NSaved= 1 IEnMin= 1 EnMin= -1581.52840465730     IErMin= 1 ErrMin= 8.15D-05
 ErrMax= 8.15D-05 EMaxC= 1.00D-01 BMatC= 1.37D-05 BMatP= 1.37D-05
 IDIUse=1 WtCom= 1.00D+00 WtEn= 0.00D+00
 Coeff-Com:  0.100D+01
 Coeff:      0.100D+01
 Gap=     0.256 Goal=   None    Shift=    0.000
 RMSDP=4.12D-06 MaxDP=2.70D-04 DE= 1.83D-03 OVMax= 3.64D-04

 Cycle   9  Pass 1  IDiag  1:
 RMSU=  1.92D-05    CP:  1.00D+00
 FoFJK:  IHMeth= 1 ICntrl=     0 DoSepK=T KAlg= 1 I1Cent= 0 FoldK=F
 E= -1581.52841578834     Delta-E=       -0.000011131045 Rises=F Damp=F
 DIIS: error= 4.05D-05 at cycle   2 NSaved=   2.
 NSaved= 2 IEnMin= 2 EnMin= -1581.52841578834     IErMin= 2 ErrMin= 4.05D-05
 ErrMax= 4.05D-05 EMaxC= 1.00D-01 BMatC= 7.76D-07 BMatP= 1.37D-05
 IDIUse=1 WtCom= 1.00D+00 WtEn= 0.00D+00
 Coeff-Com:  0.309D-01 0.969D+00
 Coeff:      0.309D-01 0.969D+00
 Gap=     0.256 Goal=   None    Shift=    0.000
 RMSDP=3.26D-06 MaxDP=2.28D-04 DE=-1.11D-05 OVMax= 3.12D-04

 Cycle  10  Pass 1  IDiag  1:
 RMSU=  2.10D-06    CP:  1.00D+00  1.05D+00
 FoFJK:  IHMeth= 1 ICntrl=     0 DoSepK=T KAlg= 1 I1Cent= 0 FoldK=F
 E= -1581.52841588541     Delta-E=       -0.000000097067 Rises=F Damp=F
 DIIS: error= 4.30D-05 at cycle   3 NSaved=   3.
 NSaved= 3 IEnMin= 3 EnMin= -1581.52841588541     IErMin= 2 ErrMin= 4.05D-05
 ErrMax= 4.30D-05 EMaxC= 1.00D-01 BMatC= 9.09D-07 BMatP= 7.76D-07
 IDIUse=1 WtCom= 1.00D+00 WtEn= 0.00D+00
 Coeff-Com: -0.396D-01 0.536D+00 0.503D+00
 Coeff:     -0.396D-01 0.536D+00 0.503D+00
 Gap=     0.256 Goal=   None    Shift=    0.000
 RMSDP=1.56D-06 MaxDP=1.38D-04 DE=-9.71D-08 OVMax= 1.47D-04

 Cycle  11  Pass 1  IDiag  1:
 RMSU=  6.43D-07    CP:  1.00D+00  1.06D+00  5.84D-01
 FoFJK:  IHMeth= 1 ICntrl=     0 DoSepK=T KAlg= 1 I1Cent= 0 FoldK=F
 E= -1581.52841666911     Delta-E=       -0.000000783698 Rises=F Damp=F
 DIIS: error= 7.56D-06 at cycle   4 NSaved=   4.
 NSaved= 4 IEnMin= 4 EnMin= -1581.52841666911     IErMin= 4 ErrMin= 7.56D-06
 ErrMax= 7.56D-06 EMaxC= 1.00D-01 BMatC= 2.45D-08 BMatP= 7.76D-07
 IDIUse=1 WtCom= 1.00D+00 WtEn= 0.00D+00
 Coeff-Com: -0.174D-01 0.133D+00 0.182D+00 0.703D+00
 Coeff:     -0.174D-01 0.133D+00 0.182D+00 0.703D+00
 Gap=     0.256 Goal=   None    Shift=    0.000
 RMSDP=3.52D-07 MaxDP=3.70D-05 DE=-7.84D-07 OVMax= 3.54D-05

 Cycle  12  Pass 1  IDiag  1:
 RMSU=  2.21D-07    CP:  1.00D+00  1.06D+00  6.36D-01  1.03D+00
 FoFJK:  IHMeth= 1 ICntrl=     0 DoSepK=T KAlg= 1 I1Cent= 0 FoldK=F
 E= -1581.52841669282     Delta-E=       -0.000000023709 Rises=F Damp=F
 DIIS: error= 3.16D-06 at cycle   5 NSaved=   5.
 NSaved= 5 IEnMin= 5 EnMin= -1581.52841669282     IErMin= 5 ErrMin= 3.16D-06
 ErrMax= 3.16D-06 EMaxC= 1.00D-01 BMatC= 5.04D-09 BMatP= 2.45D-08
 IDIUse=1 WtCom= 1.00D+00 WtEn= 0.00D+00
 Coeff-Com:  0.109D-03-0.403D-01-0.140D-01 0.303D+00 0.751D+00
 Coeff:      0.109D-03-0.403D-01-0.140D-01 0.303D+00 0.751D+00
 Gap=     0.256 Goal=   None    Shift=    0.000
 RMSDP=1.92D-07 MaxDP=1.30D-05 DE=-2.37D-08 OVMax= 2.77D-05

 Cycle  13  Pass 1  IDiag  1:
 RMSU=  9.42D-08    CP:  1.00D+00  1.06D+00  6.53D-01  1.17D+00  9.44D-01
 FoFJK:  IHMeth= 1 ICntrl=     0 DoSepK=T KAlg= 1 I1Cent= 0 FoldK=F
 E= -1581.52841669980     Delta-E=       -0.000000006979 Rises=F Damp=F
 DIIS: error= 6.72D-07 at cycle   6 NSaved=   6.
 NSaved= 6 IEnMin= 6 EnMin= -1581.52841669980     IErMin= 6 ErrMin= 6.72D-07
 ErrMax= 6.72D-07 EMaxC= 1.00D-01 BMatC= 5.93D-10 BMatP= 5.04D-09
 IDIUse=1 WtCom= 1.00D+00 WtEn= 0.00D+00
 Coeff-Com:  0.210D-02-0.297D-01-0.270D-01 0.255D-01 0.284D+00 0.745D+00
 Coeff:      0.210D-02-0.297D-01-0.270D-01 0.255D-01 0.284D+00 0.745D+00
 Gap=     0.256 Goal=   None    Shift=    0.000
 RMSDP=7.94D-08 MaxDP=3.89D-06 DE=-6.98D-09 OVMax= 1.22D-05

 Cycle  14  Pass 1  IDiag  1:
 RMSU=  3.56D-08    CP:  1.00D+00  1.06D+00  6.57D-01  1.22D+00  1.07D+00
                    CP:  1.04D+00
 FoFJK:  IHMeth= 1 ICntrl=     0 DoSepK=T KAlg= 1 I1Cent= 0 FoldK=F
 E= -1581.52841670091     Delta-E=       -0.000000001114 Rises=F Damp=F
 DIIS: error= 2.98D-07 at cycle   7 NSaved=   7.
 NSaved= 7 IEnMin= 7 EnMin= -1581.52841670091     IErMin= 7 ErrMin= 2.98D-07
 ErrMax= 2.98D-07 EMaxC= 1.00D-01 BMatC= 1.12D-10 BMatP= 5.93D-10
 IDIUse=1 WtCom= 1.00D+00 WtEn= 0.00D+00
 Coeff-Com:  0.809D-03-0.452D-02-0.916D-02-0.527D-01-0.301D-01 0.290D+00
 Coeff-Com:  0.806D+00
 Coeff:      0.809D-03-0.452D-02-0.916D-02-0.527D-01-0.301D-01 0.290D+00
 Coeff:      0.806D+00
 Gap=     0.256 Goal=   None    Shift=    0.000
 RMSDP=4.35D-08 MaxDP=1.56D-06 DE=-1.11D-09 OVMax= 7.70D-06

 Cycle  15  Pass 1  IDiag  1:
 RMSU=  1.46D-08    CP:  1.00D+00  1.06D+00  6.61D-01  1.24D+00  1.12D+00
                    CP:  1.24D+00  1.07D+00
 FoFJK:  IHMeth= 1 ICntrl=     0 DoSepK=T KAlg= 1 I1Cent= 0 FoldK=F
 E= -1581.52841670118     Delta-E=       -0.000000000270 Rises=F Damp=F
 DIIS: error= 1.29D-07 at cycle   8 NSaved=   8.
 NSaved= 8 IEnMin= 8 EnMin= -1581.52841670118     IErMin= 8 ErrMin= 1.29D-07
 ErrMax= 1.29D-07 EMaxC= 1.00D-01 BMatC= 1.71D-11 BMatP= 1.12D-10
 IDIUse=1 WtCom= 1.00D+00 WtEn= 0.00D+00
 Coeff-Com: -0.529D-04 0.337D-02 0.122D-02-0.222D-01-0.539D-01-0.227D-01
 Coeff-Com:  0.289D+00 0.805D+00
 Coeff:     -0.529D-04 0.337D-02 0.122D-02-0.222D-01-0.539D-01-0.227D-01
 Coeff:      0.289D+00 0.805D+00
 Gap=     0.256 Goal=   None    Shift=    0.000
 RMSDP=1.72D-08 MaxDP=7.19D-07 DE=-2.70D-10 OVMax= 3.37D-06

 Cycle  16  Pass 1  IDiag  1:
 RMSU=  6.00D-09    CP:  1.00D+00  1.06D+00  6.61D-01  1.25D+00  1.14D+00
                    CP:  1.30D+00  1.26D+00  1.07D+00
 FoFJK:  IHMeth= 1 ICntrl=     0 DoSepK=T KAlg= 1 I1Cent= 0 FoldK=F
 E= -1581.52841670119     Delta-E=       -0.000000000014 Rises=F Damp=F
 DIIS: error= 4.91D-08 at cycle   9 NSaved=   9.
 NSaved= 9 IEnMin= 9 EnMin= -1581.52841670119     IErMin= 9 ErrMin= 4.91D-08
 ErrMax= 4.91D-08 EMaxC= 1.00D-01 BMatC= 2.97D-12 BMatP= 1.71D-11
 IDIUse=1 WtCom= 1.00D+00 WtEn= 0.00D+00
 Coeff-Com: -0.156D-03 0.205D-02 0.206D-02 0.562D-03-0.159D-01-0.642D-01
 Coeff-Com: -0.341D-01 0.291D+00 0.818D+00
 Coeff:     -0.156D-03 0.205D-02 0.206D-02 0.562D-03-0.159D-01-0.642D-01
 Coeff:     -0.341D-01 0.291D+00 0.818D+00
 Gap=     0.256 Goal=   None    Shift=    0.000
 RMSDP=7.40D-09 MaxDP=3.43D-07 DE=-1.36D-11 OVMax= 1.50D-06

 SCF Done:  E(RwB97XD) =  -1581.52841670     A.U. after   16 cycles
             Convg  =    0.7402D-08             -V/T =  2.0109
 KE= 1.564399504501D+03 PE=-1.128016961898D+04 EE= 4.328436033738D+03
 Leave Link  502 at Wed Mar 25 13:04:58 2020, MaxMem= 2684354560 cpu:    1354.5
 (Enter /opt/g09gh/gaussian/g09/l601.exe)
 Copying SCF densities to generalized density rwf, IOpCl= 0 IROHF=0.

 **********************************************************************

            Population analysis using the SCF density.

 **********************************************************************

 Orbital symmetries:
       Occupied  (A) (A) (A) (A) (A) (A) (A) (A) (A) (A) (A) (A)
                 (A) (A) (A) (A) (A) (A) (A) (A) (A) (A) (A) (A)
                 (A) (A) (A) (A) (A) (A) (A) (A) (A) (A) (A) (A)
                 (A) (A) (A) (A) (A) (A) (A) (A) (A) (A) (A) (A)
                 (A) (A) (A) (A) (A) (A) (A) (A) (A) (A) (A) (A)
                 (A) (A) (A) (A) (A) (A) (A) (A) (A) (A) (A) (A)
                 (A) (A) (A) (A) (A) (A) (A) (A) (A) (A) (A) (A)
                 (A) (A) (A) (A) (A) (A) (A) (A) (A) (A) (A) (A)
                 (A) (A) (A) (A) (A) (A) (A) (A) (A) (A) (A) (A)
                 (A) (A) (A) (A) (A) (A) (A) (A) (A) (A) (A) (A)
                 (A) (A) (A) (A) (A) (A) (A) (A) (A) (A) (A)
       Virtual   (A) (A) (A) (A) (A) (A) (A) (A) (A) (A) (A) (A)
                 (A) (A) (A) (A) (A) (A) (A) (A) (A) (A) (A) (A)
                 (A) (A) (A) (A) (A) (A) (A) (A) (A) (A) (A) (A)
                 (A) (A) (A) (A) (A) (A) (A) (A) (A) (A) (A) (A)
                 (A) (A) (A) (A) (A) (A) (A) (A) (A) (A) (A) (A)
                 (A) (A) (A) (A) (A) (A) (A) (A) (A) (A) (A) (A)
                 (A) (A) (A) (A) (A) (A) (A) (A) (A) (A) (A) (A)
                 (A) (A) (A) (A) (A) (A) (A) (A) (A) (A) (A) (A)
                 (A) (A) (A) (A) (A) (A) (A) (A) (A) (A) (A) (A)
                 (A) (A) (A) (A) (A) (A) (A) (A) (A) (A) (A) (A)
                 (A) (A) (A) (A) (A) (A) (A) (A) (A) (A) (A) (A)
                 (A) (A) (A) (A) (A) (A) (A) (A) (A) (A) (A) (A)
                 (A) (A) (A) (A) (A) (A) (A) (A) (A) (A) (A) (A)
                 (A) (A) (A) (A) (A) (A) (A) (A) (A) (A) (A) (A)
                 (A) (A) (A) (A) (A) (A) (A) (A) (A) (A) (A) (A)
                 (A) (A) (A) (A) (A) (A) (A) (A) (A) (A) (A) (A)
                 (A) (A) (A) (A) (A) (A) (A) (A) (A) (A) (A) (A)
                 (A) (A) (A) (A) (A) (A) (A) (A) (A) (A) (A) (A)
                 (A) (A) (A) (A) (A) (A) (A) (A) (A) (A) (A) (A)
                 (A) (A) (A) (A) (A) (A) (A) (A) (A) (A) (A) (A)
                 (A) (A) (A) (A) (A) (A) (A) (A) (A) (A) (A) (A)
                 (A) (A) (A) (A) (A) (A) (A) (A) (A) (A) (A) (A)
                 (A) (A) (A) (A) (A) (A) (A) (A) (A) (A) (A) (A)
                 (A) (A) (A) (A) (A) (A) (A) (A) (A) (A) (A) (A)
                 (A) (A) (A) (A) (A) (A) (A) (A) (A) (A) (A) (A)
                 (A) (A) (A) (A) (A) (A) (A) (A) (A) (A) (A) (A)
                 (A) (A) (A) (A) (A) (A) (A) (A) (A) (A) (A) (A)
                 (A) (A) (A) (A) (A) (A) (A) (A) (A) (A) (A) (A)
                 (A) (A) (A) (A) (A) (A) (A) (A) (A) (A) (A) (A)
                 (A) (A) (A) (A) (A) (A) (A) (A) (A) (A) (A) (A)
                 (A) (A) (A) (A) (A) (A) (A) (A) (A) (A) (A) (A)
                 (A) (A) (A) (A) (A) (A) (A) (A) (A) (A) (A) (A)
                 (A) (A) (A) (A) (A) (A) (A) (A) (A) (A) (A) (A)
                 (A) (A) (A) (A) (A) (A) (A) (A) (A) (A) (A) (A)
                 (A) (A) (A) (A) (A) (A) (A) (A) (A) (A) (A) (A)
                 (A) (A) (A) (A) (A) (A) (A) (A) (A) (A) (A) (A)
                 (A) (A) (A) (A) (A) (A) (A) (A) (A) (A) (A) (A)
                 (A) (A) (A) (A) (A) (A) (A) (A) (A) (A) (A) (A)
                 (A) (A) (A) (A) (A) (A) (A) (A) (A) (A) (A) (A)
                 (A) (A) (A) (A) (A) (A) (A) (A) (A) (A) (A) (A)
                 (A) (A) (A) (A) (A) (A)
 The electronic state is 1-A.
 Alpha  occ. eigenvalues --  -19.23586 -14.49544 -14.48937 -14.46627 -14.46451
 Alpha  occ. eigenvalues --  -14.46262 -14.45870 -14.44252 -10.42126 -10.40663
 Alpha  occ. eigenvalues --  -10.38095 -10.36517 -10.36506 -10.35782 -10.35597
 Alpha  occ. eigenvalues --  -10.35375 -10.35332 -10.35313 -10.35300 -10.34966
 Alpha  occ. eigenvalues --  -10.34298 -10.34173 -10.34134 -10.32963 -10.32254
 Alpha  occ. eigenvalues --  -10.31934 -10.31920 -10.31528 -10.31426 -10.31152
 Alpha  occ. eigenvalues --  -10.31102 -10.31096 -10.30655 -10.30370 -10.30209
 Alpha  occ. eigenvalues --  -10.29620 -10.29204  -1.13631  -1.11639  -1.05646
 Alpha  occ. eigenvalues --   -1.03796  -1.03224  -1.03152  -1.00194  -0.99219
 Alpha  occ. eigenvalues --   -0.96195  -0.94562  -0.92521  -0.89473  -0.88114
 Alpha  occ. eigenvalues --   -0.87182  -0.86412  -0.85060  -0.83859  -0.83414
 Alpha  occ. eigenvalues --   -0.81794  -0.79474  -0.77970  -0.77721  -0.75937
 Alpha  occ. eigenvalues --   -0.73551  -0.72797  -0.72432  -0.71720  -0.70591
 Alpha  occ. eigenvalues --   -0.70476  -0.69610  -0.68140  -0.66400  -0.64753
 Alpha  occ. eigenvalues --   -0.63253  -0.62371  -0.61606  -0.60640  -0.59997
 Alpha  occ. eigenvalues --   -0.58706  -0.58298  -0.57436  -0.56533  -0.56166
 Alpha  occ. eigenvalues --   -0.55846  -0.55589  -0.54595  -0.54464  -0.53902
 Alpha  occ. eigenvalues --   -0.53387  -0.52584  -0.52305  -0.52113  -0.51777
 Alpha  occ. eigenvalues --   -0.51490  -0.51401  -0.51100  -0.50771  -0.50389
 Alpha  occ. eigenvalues --   -0.50112  -0.49878  -0.49714  -0.49482  -0.48272
 Alpha  occ. eigenvalues --   -0.47420  -0.46624  -0.46510  -0.46296  -0.46052
 Alpha  occ. eigenvalues --   -0.45445  -0.44623  -0.44099  -0.43920  -0.43523
 Alpha  occ. eigenvalues --   -0.43487  -0.43008  -0.42328  -0.41338  -0.40195
 Alpha  occ. eigenvalues --   -0.40133  -0.38042  -0.37651  -0.37343  -0.35763
 Alpha  occ. eigenvalues --   -0.35287  -0.35114  -0.33943  -0.33823  -0.33397
 Alpha  occ. eigenvalues --   -0.33090  -0.32146  -0.30924  -0.29439  -0.27517
 Alpha  occ. eigenvalues --   -0.25795
 Alpha virt. eigenvalues --   -0.00160   0.02776   0.03197   0.04092   0.05700
 Alpha virt. eigenvalues --    0.06763   0.07457   0.08222   0.09682   0.10425
 Alpha virt. eigenvalues --    0.12922   0.13616   0.14089   0.14387   0.15523
 Alpha virt. eigenvalues --    0.16557   0.17435   0.18244   0.18768   0.19021
 Alpha virt. eigenvalues --    0.19765   0.20198   0.20671   0.20996   0.22251
 Alpha virt. eigenvalues --    0.22783   0.23004   0.23286   0.23527   0.23743
 Alpha virt. eigenvalues --    0.23918   0.24165   0.24620   0.24772   0.25324
 Alpha virt. eigenvalues --    0.25590   0.25904   0.26335   0.26776   0.27187
 Alpha virt. eigenvalues --    0.27500   0.27747   0.27997   0.28128   0.28762
 Alpha virt. eigenvalues --    0.29057   0.29440   0.30190   0.30487   0.31349
 Alpha virt. eigenvalues --    0.31845   0.32085   0.32438   0.33219   0.33692
 Alpha virt. eigenvalues --    0.34132   0.34567   0.35584   0.36521   0.37596
 Alpha virt. eigenvalues --    0.37864   0.38153   0.38404   0.39232   0.39678
 Alpha virt. eigenvalues --    0.40139   0.40927   0.41065   0.41227   0.41671
 Alpha virt. eigenvalues --    0.43130   0.43995   0.44941   0.46175   0.46298
 Alpha virt. eigenvalues --    0.47705   0.49078   0.50477   0.52129   0.53012
 Alpha virt. eigenvalues --    0.55218   0.55741   0.56910   0.57500   0.58308
 Alpha virt. eigenvalues --    0.58472   0.59044   0.59289   0.59729   0.60222
 Alpha virt. eigenvalues --    0.60294   0.60794   0.61331   0.61670   0.61966
 Alpha virt. eigenvalues --    0.62297   0.62878   0.63164   0.63379   0.63980
 Alpha virt. eigenvalues --    0.64305   0.64440   0.65201   0.65234   0.65444
 Alpha virt. eigenvalues --    0.65618   0.65856   0.65990   0.66279   0.66582
 Alpha virt. eigenvalues --    0.66806   0.67162   0.67479   0.68207   0.68567
 Alpha virt. eigenvalues --    0.69126   0.69283   0.69510   0.69867   0.70037
 Alpha virt. eigenvalues --    0.70363   0.70727   0.70799   0.71375   0.71753
 Alpha virt. eigenvalues --    0.72472   0.72689   0.72815   0.73495   0.73981
 Alpha virt. eigenvalues --    0.74272   0.74562   0.74964   0.75592   0.76028
 Alpha virt. eigenvalues --    0.77401   0.77772   0.78509   0.79935   0.80314
 Alpha virt. eigenvalues --    0.80734   0.81532   0.81740   0.82359   0.82858
 Alpha virt. eigenvalues --    0.83228   0.83878   0.84618   0.85095   0.86142
 Alpha virt. eigenvalues --    0.86927   0.87074   0.87793   0.88342   0.88563
 Alpha virt. eigenvalues --    0.89081   0.89121   0.89479   0.90862   0.91115
 Alpha virt. eigenvalues --    0.91251   0.91542   0.91718   0.91990   0.92374
 Alpha virt. eigenvalues --    0.92741   0.93113   0.93392   0.93947   0.94107
 Alpha virt. eigenvalues --    0.94178   0.94592   0.94764   0.95042   0.95554
 Alpha virt. eigenvalues --    0.96306   0.97118   0.97710   0.98199   0.98296
 Alpha virt. eigenvalues --    0.98771   0.99227   0.99330   0.99710   1.00089
 Alpha virt. eigenvalues --    1.00789   1.01136   1.01601   1.01980   1.02485
 Alpha virt. eigenvalues --    1.03241   1.04242   1.04891   1.05241   1.05883
 Alpha virt. eigenvalues --    1.06385   1.06929   1.07272   1.07526   1.07910
[...]
                 (A) (A) (A) (A) (A) (A) (A) (A) (A) (A) (A) (A)
                 (A) (A) (A) (A) (A) (A) (A) (A) (A) (A) (A) (A)
                 (A) (A) (A) (A) (A) (A) (A) (A) (A) (A) (A) (A)
                 (A) (A) (A) (A) (A) (A) (A) (A) (A) (A) (A) (A)
                 (A) (A) (A) (A) (A) (A) (A) (A) (A) (A) (A) (A)
                 (A) (A) (A) (A) (A) (A) (A) (A) (A) (A) (A) (A)
                 (A) (A) (A) (A) (A) (A) (A) (A) (A) (A) (A) (A)
                 (A) (A) (A) (A) (A) (A) (A) (A) (A) (A) (A) (A)
                 (A) (A) (A) (A) (A) (A) (A) (A) (A) (A) (A) (A)
                 (A) (A) (A) (A) (A) (A) (A) (A) (A) (A) (A) (A)
                 (A) (A) (A) (A) (A) (A) (A) (A) (A) (A) (A) (A)
                 (A) (A) (A) (A) (A) (A) (A) (A) (A) (A) (A) (A)
                 (A) (A) (A) (A) (A) (A) (A) (A) (A) (A) (A) (A)
                 (A) (A) (A) (A) (A) (A) (A) (A) (A) (A) (A) (A)
                 (A) (A) (A) (A) (A) (A) (A) (A) (A) (A) (A) (A)
                 (A) (A) (A) (A) (A) (A) (A) (A) (A) (A) (A) (A)
                 (A) (A) (A) (A) (A) (A) (A) (A) (A) (A) (A) (A)
                 (A) (A) (A) (A) (A) (A) (A) (A) (A) (A) (A) (A)
                 (A) (A) (A) (A) (A) (A) (A) (A) (A) (A) (A) (A)
                 (A) (A) (A) (A) (A) (A) (A) (A) (A) (A) (A) (A)
                 (A) (A) (A) (A) (A) (A) (A) (A) (A) (A) (A) (A)
                 (A) (A) (A) (A) (A) (A) (A) (A) (A) (A) (A) (A)
                 (A) (A) (A) (A) (A) (A) (A) (A) (A) (A) (A) (A)
                 (A) (A) (A) (A) (A) (A) (A) (A) (A) (A) (A) (A)
                 (A) (A) (A) (A) (A) (A) (A) (A) (A) (A) (A) (A)
                 (A) (A) (A) (A) (A) (A) (A) (A) (A) (A) (A) (A)
                 (A) (A) (A) (A) (A) (A) (A) (A) (A) (A) (A) (A)
                 (A) (A) (A) (A) (A) (A) (A) (A) (A) (A) (A) (A)
                 (A) (A) (A) (A) (A) (A)
 The electronic state is 1-A.
 Alpha  occ. eigenvalues --  -19.23434 -14.49326 -14.48440 -14.46515 -14.46103
 Alpha  occ. eigenvalues --  -14.45826 -14.43396 -14.42641 -10.41800 -10.40195
 Alpha  occ. eigenvalues --  -10.37605 -10.36327 -10.35189 -10.35009 -10.34670
 Alpha  occ. eigenvalues --  -10.34056 -10.34003 -10.33565 -10.32779 -10.32327
 Alpha  occ. eigenvalues --  -10.31842 -10.31122 -10.31072 -10.31024 -10.30956
 Alpha  occ. eigenvalues --  -10.30790 -10.30405 -10.30358 -10.30329 -10.30275
 Alpha  occ. eigenvalues --  -10.30268 -10.30220 -10.30038 -10.29943 -10.29544
 Alpha  occ. eigenvalues --  -10.28642 -10.28330  -1.13538  -1.12294  -1.06207
 Alpha  occ. eigenvalues --   -1.04590  -1.03694  -1.03491  -1.00700  -0.99229
 Alpha  occ. eigenvalues --   -0.96197  -0.94684  -0.93047  -0.89747  -0.88145
 Alpha  occ. eigenvalues --   -0.87345  -0.86254  -0.85145  -0.84577  -0.83774
 Alpha  occ. eigenvalues --   -0.81691  -0.79507  -0.78208  -0.77654  -0.76306
 Alpha  occ. eigenvalues --   -0.73835  -0.72962  -0.72895  -0.72599  -0.70852
 Alpha  occ. eigenvalues --   -0.70437  -0.69536  -0.68001  -0.66455  -0.65190
 Alpha  occ. eigenvalues --   -0.63503  -0.63278  -0.62277  -0.61731  -0.60197
 Alpha  occ. eigenvalues --   -0.58836  -0.57912  -0.57465  -0.56521  -0.56122
 Alpha  occ. eigenvalues --   -0.55774  -0.55120  -0.55022  -0.54567  -0.54276
 Alpha  occ. eigenvalues --   -0.53616  -0.53137  -0.53004  -0.52292  -0.52079
 Alpha  occ. eigenvalues --   -0.51902  -0.51600  -0.51262  -0.50941  -0.50570
 Alpha  occ. eigenvalues --   -0.50463  -0.50374  -0.49940  -0.49429  -0.48338
 Alpha  occ. eigenvalues --   -0.47230  -0.46770  -0.46460  -0.46271  -0.46007
 Alpha  occ. eigenvalues --   -0.45755  -0.44879  -0.44512  -0.44003  -0.43898
 Alpha  occ. eigenvalues --   -0.43447  -0.43038  -0.42159  -0.41650  -0.41249
 Alpha  occ. eigenvalues --   -0.40582  -0.40461  -0.39845  -0.38173  -0.37562
 Alpha  occ. eigenvalues --   -0.35569  -0.35306  -0.33870  -0.33510  -0.33388
 Alpha  occ. eigenvalues --   -0.32998  -0.32023  -0.30471  -0.29141  -0.26989
 Alpha  occ. eigenvalues --   -0.24645
 Alpha virt. eigenvalues --   -0.00246   0.03015   0.03276   0.04464   0.06300
 Alpha virt. eigenvalues --    0.07286   0.08380   0.10605   0.14175   0.15009
 Alpha virt. eigenvalues --    0.15501   0.16433   0.17304   0.17631   0.18452
 Alpha virt. eigenvalues --    0.19252   0.19782   0.20166   0.20695   0.20705
 Alpha virt. eigenvalues --    0.21288   0.22458   0.22654   0.22955   0.23316
 Alpha virt. eigenvalues --    0.23491   0.23925   0.24368   0.24708   0.24890
 Alpha virt. eigenvalues --    0.25378   0.25515   0.26027   0.26445   0.26677
 Alpha virt. eigenvalues --    0.26918   0.27715   0.27878   0.28280   0.28331
 Alpha virt. eigenvalues --    0.28609   0.29028   0.29513   0.29683   0.29853
 Alpha virt. eigenvalues --    0.30951   0.31331   0.31935   0.32316   0.32502
 Alpha virt. eigenvalues --    0.32855   0.33429   0.33884   0.34265   0.34792
 Alpha virt. eigenvalues --    0.35035   0.36048   0.36499   0.37993   0.38108
 Alpha virt. eigenvalues --    0.38480   0.38969   0.39017   0.39956   0.40830
 Alpha virt. eigenvalues --    0.41522   0.41782   0.42055   0.42313   0.42628
 Alpha virt. eigenvalues --    0.43858   0.44802   0.46026   0.47233   0.47614
 Alpha virt. eigenvalues --    0.48190   0.49868   0.50924   0.52648   0.54218
 Alpha virt. eigenvalues --    0.55707   0.56589   0.57716   0.58228   0.58387
 Alpha virt. eigenvalues --    0.59323   0.59382   0.60236   0.60495   0.60896
 Alpha virt. eigenvalues --    0.61124   0.61788   0.61878   0.62293   0.62667
 Alpha virt. eigenvalues --    0.63243   0.63506   0.63864   0.64225   0.64778
 Alpha virt. eigenvalues --    0.65063   0.65295   0.65452   0.65515   0.65750
 Alpha virt. eigenvalues --    0.66061   0.66538   0.66790   0.66970   0.67125
 Alpha virt. eigenvalues --    0.67575   0.68012   0.68371   0.68925   0.69513
 Alpha virt. eigenvalues --    0.69975   0.70131   0.70429   0.70819   0.71247
 Alpha virt. eigenvalues --    0.71507   0.71832   0.71907   0.72263   0.73165
 Alpha virt. eigenvalues --    0.73529   0.73592   0.74102   0.74756   0.75228
 Alpha virt. eigenvalues --    0.75909   0.76017   0.76243   0.76782   0.77530
 Alpha virt. eigenvalues --    0.77829   0.79068   0.80399   0.80629   0.82069
 Alpha virt. eigenvalues --    0.82263   0.82692   0.82966   0.83236   0.84424
 Alpha virt. eigenvalues --    0.84499   0.85853   0.85908   0.87008   0.88083
 Alpha virt. eigenvalues --    0.88237   0.89398   0.89750   0.90333   0.90660
 Alpha virt. eigenvalues --    0.90924   0.91344   0.91663   0.92106   0.92227
 Alpha virt. eigenvalues --    0.92874   0.93146   0.93330   0.93644   0.93781
 Alpha virt. eigenvalues --    0.94113   0.94490   0.94787   0.95058   0.95376
 Alpha virt. eigenvalues --    0.95578   0.96062   0.96534   0.97580   0.98158
 Alpha virt. eigenvalues --    0.98261   0.98330   0.98711   0.99349   0.99981
 Alpha virt. eigenvalues --    1.00173   1.00525   1.01207   1.01436   1.01735
 Alpha virt. eigenvalues --    1.02315   1.02921   1.03197   1.03483   1.04147
 Alpha virt. eigenvalues --    1.05124   1.05646   1.06473   1.06902   1.07197
 Alpha virt. eigenvalues --    1.07373   1.07948   1.08450   1.08935   1.09155
 Alpha virt. eigenvalues --    1.09781   1.10714   1.10784   1.11736   1.11806
 Alpha virt. eigenvalues --    1.12379   1.12597   1.12921   1.14756   1.15298
 Alpha virt. eigenvalues --    1.16599   1.16805   1.17530   1.17911   1.18516
 Alpha virt. eigenvalues --    1.20146   1.20412   1.22318   1.23527   1.24406
 Alpha virt. eigenvalues --    1.24802   1.25678   1.26110   1.27052   1.27901
 Alpha virt. eigenvalues --    1.29066   1.30073   1.30373   1.31313   1.31571
 Alpha virt. eigenvalues --    1.32134   1.33082   1.33770   1.34845   1.35581
 Alpha virt. eigenvalues --    1.35844   1.36792   1.37238   1.38020   1.39405
 Alpha virt. eigenvalues --    1.39805   1.42435   1.42511   1.44430   1.45118
 Alpha virt. eigenvalues --    1.46241   1.47088   1.47989   1.48448   1.48560
 Alpha virt. eigenvalues --    1.48858   1.49224   1.49578   1.49971   1.51658
 Alpha virt. eigenvalues --    1.52112   1.52855   1.53317   1.53902   1.54488
 Alpha virt. eigenvalues --    1.54995   1.55868   1.56271   1.56558   1.56607
 Alpha virt. eigenvalues --    1.57546   1.57705   1.58323   1.58691   1.59188
 Alpha virt. eigenvalues --    1.59677   1.60119   1.60333   1.61890   1.62855
 Alpha virt. eigenvalues --    1.64201   1.64979   1.65499   1.67113   1.67438
 Alpha virt. eigenvalues --    1.69033   1.69828   1.71803   1.75478   1.76321
 Alpha virt. eigenvalues --    1.79070   1.80696   1.81718   1.82808   1.83733
 Alpha virt. eigenvalues --    1.84675   1.85572   1.86444   1.86941   1.87814
 Alpha virt. eigenvalues --    1.87865   1.89290   1.89873   1.90814   1.90912
 Alpha virt. eigenvalues --    1.91251   1.92270   1.92516   1.93244   1.94160
 Alpha virt. eigenvalues --    1.94877   1.95097   1.95938   1.96757   1.98662
 Alpha virt. eigenvalues --    1.99394   1.99635   1.99949   2.00624   2.00921
 Alpha virt. eigenvalues --    2.01373   2.01762   2.02400   2.02467   2.03553
 Alpha virt. eigenvalues --    2.05222   2.06788   2.07072   2.07516   2.07934
 Alpha virt. eigenvalues --    2.08566   2.08965   2.09975   2.11402   2.11606
 Alpha virt. eigenvalues --    2.12447   2.12955   2.13126   2.14098   2.15001
 Alpha virt. eigenvalues --    2.15736   2.16268   2.17836   2.19367   2.20399
 Alpha virt. eigenvalues --    2.21176   2.21658   2.22052   2.22503   2.22866
 Alpha virt. eigenvalues --    2.23241   2.23597   2.23819   2.24731   2.24760
 Alpha virt. eigenvalues --    2.26057   2.26305   2.26563   2.26692   2.28091
 Alpha virt. eigenvalues --    2.28705   2.29496   2.30045   2.30961   2.32410
 Alpha virt. eigenvalues --    2.33962   2.35001   2.35849   2.37275   2.37636
 Alpha virt. eigenvalues --    2.37901   2.38079   2.38654   2.39579   2.40005
 Alpha virt. eigenvalues --    2.40215   2.41076   2.42098   2.42356   2.43213
 Alpha virt. eigenvalues --    2.43559   2.44265   2.44765   2.45766   2.46123
 Alpha virt. eigenvalues --    2.46478   2.47920   2.48831   2.49638   2.49854
 Alpha virt. eigenvalues --    2.50514   2.50655   2.52412   2.53517   2.56370
 Alpha virt. eigenvalues --    2.57646   2.60118   2.61165   2.61986   2.63003
 Alpha virt. eigenvalues --    2.64747   2.65913   2.65971   2.66504   2.68118
 Alpha virt. eigenvalues --    2.69046   2.69955   2.70992   2.72453   2.72628
 Alpha virt. eigenvalues --    2.74192   2.74296   2.75461   2.75842   2.76846
 Alpha virt. eigenvalues --    2.76982   2.78121   2.79191   2.81075   2.82185
 Alpha virt. eigenvalues --    2.82983   2.83163   2.83671   2.84034   2.85675
 Alpha virt. eigenvalues --    2.85993   2.86666   2.86923   2.88701   2.88995
 Alpha virt. eigenvalues --    2.90328   2.91749   2.93029   2.93606   2.94419
 Alpha virt. eigenvalues --    2.95289   2.96407   2.97810   3.00923   3.03482
 Alpha virt. eigenvalues --    3.04423   3.06491   3.09150   3.10310   3.12082
 Alpha virt. eigenvalues --    3.19283   3.27429   3.29283   3.39535   3.41577
 Alpha virt. eigenvalues --    3.45551   3.53635   3.56616   3.58022   4.12879
 Alpha virt. eigenvalues --    4.13899   4.15121   4.17287   4.18505   4.18808
 Alpha virt. eigenvalues --    4.19422   4.21082   4.22084   4.23721   4.25654
 Alpha virt. eigenvalues --    4.26443   4.27591   4.28748   4.31047   4.32124
 Alpha virt. eigenvalues --    4.33456   4.34987   4.37325   4.40673   4.41012
 Alpha virt. eigenvalues --    4.41942   4.44629   4.46083   4.48839   4.49857
 Alpha virt. eigenvalues --    4.50316   4.53545   4.57436   4.60771   4.62137
 Alpha virt. eigenvalues --    4.64376   4.68732   4.69618   4.79166   4.84811
 Alpha virt. eigenvalues --    4.90064
          Condensed to atoms (all electrons):
 Mulliken atomic charges:
              1
     1  C   -0.194972
     2  C   -0.155856
     3  C    0.036896
     4  C    0.009584
     5  N   -0.425795
     6  C    0.024678
     7  C    0.296080
     8  C   -0.256492
     9  C    0.049759
    10  N   -0.495252
    11  C    0.722265
    12  N   -0.570699
    13  N   -0.811444
    14  C    0.292562
    15  C    0.118340
    16  C   -0.240666
    17  C   -0.190497
    18  C    0.366851
    19  C   -0.276401
    20  N   -0.772256
    21  C    0.599143
    22  C    0.016512
    23  C   -0.205532
    24  C   -0.213076
    25  C    0.157683
    26  C   -0.222664
    27  C   -0.178642
    28  C   -0.263173
    29  N   -0.381564
    30  C   -0.185575
    31  C   -0.181937
    32  N   -0.384820
    33  C   -0.348643
    34  C   -0.181482
    35  C   -0.186243
    36  O   -0.517261
    37  C   -0.609300
    38  H    0.185659
    39  H    0.186010
    40  H    0.196488
    41  H    0.178712
    42  H    0.181202
    43  H    0.189589
    44  H    0.370265
    45  H    0.160387
    46  H    0.213835
    47  H    0.204586
    48  H    0.364205
    49  H    0.176063
    50  H    0.164492
    51  H    0.164969
    52  H    0.199015
    53  H    0.168252
    54  H    0.168931
    55  H    0.145852
    56  H    0.157071
    57  H    0.147192
    58  H    0.185518
    59  H    0.133120
    60  H    0.165338
    61  H    0.165885
    62  H    0.151971
    63  H    0.171186
    64  H    0.159137
    65  H    0.152493
    66  H    0.181103
    67  H    0.180439
    68  H    0.190927
 Sum of Mulliken atomic charges =   0.00000
 Mulliken charges with hydrogens summed into heavy atoms:
              1
     1  C   -0.009312
     2  C    0.030154
     3  C    0.036896
     4  C    0.206072
     5  N   -0.425795
     6  C    0.203390
     7  C    0.296080
     8  C   -0.075290
     9  C    0.239348
    10  N   -0.495252
    11  C    0.722265
    12  N   -0.570699
    13  N   -0.441180
    14  C    0.292562
    15  C    0.118340
    16  C   -0.080279
    17  C    0.023338
    18  C    0.366851
    19  C   -0.071814
    20  N   -0.408052
    21  C    0.599143
    22  C    0.016512
    23  C   -0.029469
    24  C   -0.048583
    25  C    0.157683
    26  C   -0.057696
    27  C    0.020373
    28  C    0.074011
    29  N   -0.381564
    30  C    0.117348
    31  C    0.150773
    32  N   -0.384820
    33  C    0.115700
    34  C    0.141675
    35  C    0.125386
    36  O   -0.517261
    37  C   -0.056831
 Sum of Mulliken charges with hydrogens summed into heavy atoms =   0.00000
 Electronic spatial extent (au):  <R**2>=          21788.9399
 Charge=              0.0000 electrons
 Dipole moment (field-independent basis, Debye):
    X=              1.2723    Y=              6.3581    Z=             -0.7008  Tot=              6.5219
 Quadrupole moment (field-independent basis, Debye-Ang):
   XX=           -194.9443   YY=           -202.2148   ZZ=           -216.1919
   XY=              5.6614   XZ=              1.6477   YZ=            -12.1090
 Traceless Quadrupole moment (field-independent basis, Debye-Ang):
   XX=              9.5060   YY=              2.2355   ZZ=            -11.7416
   XY=              5.6614   XZ=              1.6477   YZ=            -12.1090
 Octapole moment (field-independent basis, Debye-Ang**2):
  XXX=             79.3821  YYY=            194.9918  ZZZ=              5.9861  XYY=             56.8082
  XXY=            -36.4873  XXZ=             42.0884  XZZ=            -23.0272  YZZ=             16.0508
  YYZ=             -4.9755  XYZ=             -2.3305
 Hexadecapole moment (field-independent basis, Debye-Ang**3):
 XXXX=         -19152.5235 YYYY=          -8110.4538 ZZZZ=          -1682.6790 XXXY=             46.4001
 XXXZ=            -51.5248 YYYX=            168.7507 YYYZ=           -278.7006 ZZZX=            -44.5468
 ZZZY=            -14.2947 XXYY=          -4085.9914 XXZZ=          -3495.6410 YYZZ=          -1694.2708
 XXYZ=            -76.2460 YYXZ=              7.6821 ZZXY=            -33.1878
 N-N= 3.864246989918D+03 E-N=-1.140026511794D+04  KE= 1.567157846121D+03
 No NMR shielding tensors so no spin-rotation constants.
 Leave Link  601 at Wed Mar 25 15:09:22 2020, MaxMem= 2684354560 cpu:       3.5
 (Enter /opt/g09gh/gaussian/g09/l9999.exe)
 1\1\GINC-NODE36\FOpt\RwB97XD\6-31G(d)\C29H31N7O1\BDW2292\25-Mar-2020\0
 \\#P opt=(,maxcycle=400) wB97XD/6-31G* MaxDisk=100GB\\MOLECULE0 Rotata
 ble Bond Optimization on node37.bme.utexas.edu\\0,1\C,-0.4279820075,4.
 2686462946,-0.5568379374\C,0.9042570186,4.175534549,-0.1737655903\C,1.
 645366508,3.0606323933,-0.5636083154\C,0.9873293001,2.0859156245,-1.32
 49229151\N,-0.2841127908,2.1673675666,-1.7108611275\C,-0.9717370283,3.
 2469076836,-1.3282121584\C,3.0851505601,2.8984792434,-0.2394810302\C,3
 .7009949096,3.501003201,0.8535061012\C,5.0669618912,3.2609594962,0.996
 5498227\N,5.7727583953,2.5051761409,0.1676128678\C,5.0776575733,1.9555
 695133,-0.8496865226\N,3.7753911045,2.1242407681,-1.0819366939\N,5.826
 1178123,1.1744630833,-1.6868405792\C,5.4673906953,0.4333812927,-2.8268
 66064\C,6.4699078158,-0.323461327,-3.4687780703\C,6.1062676242,-1.0562
 978787,-4.5948322752\C,4.8100372512,-1.085544941,-5.1058469876\C,3.838
 2015372,-0.3342439604,-4.4522050711\C,4.1729767586,0.4268308132,-3.332
 1819334\N,2.4835398037,-0.270286456,-4.8211989839\C,1.8204318245,-0.88
 47652722,-5.8503090558\C,0.3477534612,-0.5808359479,-5.8636923349\C,-0
 .1876210139,0.6085021857,-5.3597600136\C,-1.561440346,0.8026816431,-5.
 3338928108\C,-2.4346508771,-0.1831211477,-5.7939415108\C,-1.889873241,
 -1.3442372472,-6.3479024854\C,-0.5154398483,-1.5433035218,-6.387040136
 6\C,-3.9387550324,-0.0139612947,-5.6471000921\N,-4.5406143641,-0.41636
 6627,-4.3866664791\C,-4.3055354806,0.4251902393,-3.2171313354\C,-3.122
 8170829,-0.0230700189,-2.3403710613\N,-3.1841132563,-1.4383320285,-1.9
 827928422\C,-4.1722586838,-1.746786605,-0.9651287903\C,-3.3103774007,-
 2.2478304924,-3.1914461255\C,-4.5074443158,-1.8389717199,-4.0657825875
 \O,2.3449966404,-1.6328699123,-6.6588152801\C,7.8876673158,-0.34475762
 22,-2.9559316063\H,-1.0316975434,5.1249439779,-0.2758127012\H,1.365581
 009,4.9750291799,0.3987739034\H,1.526296892,1.1904873249,-1.6220492733
 \H,-2.0079959885,3.2930641522,-1.6562322937\H,3.1606621575,4.106451454
 7,1.5705003269\H,5.6180261263,3.6996986913,1.8260356338\H,6.7925522804
 ,1.1315113094,-1.3999500933\H,6.8727021308,-1.6404724535,-5.0978720994
 \H,4.556889703,-1.6750901709,-5.9759401458\H,3.4203866595,1.0277929818
 ,-2.8457692365\H,1.9009318485,0.2168009577,-4.1573355332\H,0.458224247
 2,1.4062710916,-5.0031453304\H,-1.9604126599,1.7298529258,-4.929986388
 8\H,-2.5545661679,-2.1114822505,-6.7385907342\H,-0.0906012633,-2.44835
 82697,-6.8090661468\H,-4.1970433926,1.0398311566,-5.8092488852\H,-4.43
 63666373,-0.5848018343,-6.4413723572\H,-4.1602836356,1.4593252281,-3.5
 516942277\H,-5.2238879281,0.4170449926,-2.6105653031\H,-3.0926358605,0
 .5716474286,-1.4192061257\H,-2.1751215349,0.1511388954,-2.8602111628\H
 ,-5.2224035233,-1.5465342085,-1.2429341121\H,-3.951824002,-1.163620662
 3,-0.0642390511\H,-4.0967238147,-2.8083098875,-0.7045154725\H,-3.39929
 49904,-3.3024661476,-2.9031034125\H,-2.3809292737,-2.1398876266,-3.762
 7472547\H,-5.4405691922,-2.091283315,-3.5402490606\H,-4.5096966044,-2.
 4120277944,-4.9999916841\H,7.9493079438,-0.7330686345,-1.930503236\H,8
 .3467925224,0.6528983103,-2.9632101759\H,8.510715461,-0.9894255146,-3.
 5808713549\\Version=EM64L-G09RevA.02\State=1-A\HF=-1581.7613232\RMSD=8
 .109e-09\RMSF=6.048e-06\Dipole=-0.3735439,1.7456115,1.8431634\Quadrupo
 le=4.0356418,4.1032072,-8.1388489,-0.1371709,6.0710586,8.8412064\PG=C0
 1 [X(C29H31N7O1)]\\@


 MATERIAL COPIED FROM ONE SCHOLARLY BOOK WITHOUT CREDIT COMPRISES PLAGIARISM.
 MATERIAL COPIED FROM TWO SCHOLARLY BOOKS COMPRISES AN ESSAY.
 MATERIAL COPIED FROM THREE SCHOLARLY BOOKS COMPRISES A DISSERTATION.
 MATERIAL COPIED FROM FOUR SCHOLARLY BOOKS COMPRISES A FIFTH SCHOLARLY BOOK.

                               -- C&EN, 25 FEB 1980
 Job cpu time:  0 days 12 hours 47 minutes  6.1 seconds.
 File lengths (MBytes):  RWF=    244 Int=      0 D2E=      0 Chk=     25 Scr=      1
 Normal termination of Gaussian 09 at Wed Mar 25 15:09:23 2020.
