
    -----------------------------------------------------------------------
          Psi4: An Open-Source Ab Initio Electronic Structure Package
                               Psi4 1.3.2 release

                         Git: Rev {HEAD} ecbda83 


    R. M. Parrish, L. A. Burns, D. G. A. Smith, A. C. Simmonett,
    A. E. DePrince III, E. G. Hohenstein, U. Bozkaya, A. Yu. Sokolov,
    R. Di Remigio, R. M. Richard, J. F. Gonthier, A. M. James,
    H. R. McAlexander, A. Kumar, M. Saitow, X. Wang, B. P. Pritchard,
    P. Verma, H. F. Schaefer III, K. Patkowski, R. A. King, E. F. Valeev,
    F. A. Evangelista, J. M. Turney, T. D. Crawford, and C. D. Sherrill,
    J. Chem. Theory Comput. 13(7) pp 3185--3197 (2017).
    (doi: 10.1021/acs.jctc.7b00174)


                         Additional Contributions by
    P. Kraus, H. Kruse, M. H. Lechner, M. C. Schieber, R. A. Shaw,
    A. Alenaizan, R. Galvelis, Z. L. Glick, S. Lehtola, and J. P. Misiewicz

    -----------------------------------------------------------------------


    Psi4 started on: Tuesday, 14 April 2020 12:45PM

    Process ID: 68838
    Host:       node96.bme.utexas.edu
    PSIDATADIR: /home/bdw2292/miniconda3/envs/p4env/share/psi4
    Memory:     500.0 MiB
    Threads:    1
    
  ==> Input File <==

--------------------------------------------------------------------------
molecule { 
0 1
 C   -0.295972    4.432413   -0.767659
 C    1.049243    4.318176   -0.393098
 C    1.670908    3.054523   -0.383626
 C    0.866042    1.967930   -0.806202
 N   -0.417572    2.057585   -1.178480
 C   -0.984222    3.274154   -1.145880
 C    3.101039    2.827559    0.038159
 C    4.042013    3.837641    0.297379
 C    5.323010    3.400922    0.656422
 N    5.674921    2.122309    0.776131
 C    4.703664    1.220331    0.528952
 N    3.459285    1.537100    0.167454
 N    5.070323   -0.106774    0.676591
 C    4.381658   -1.353262    0.446746
 C    5.127471   -2.567036    0.347753
 C    4.407685   -3.748090    0.097239
 C    3.017349   -3.799830   -0.060069
 C    2.294330   -2.609429    0.065708
 C    2.988498   -1.416075    0.318646
 N    0.877475   -2.469518   -0.070227
 C   -0.099381   -3.346688   -0.482301
 C   -1.465558   -2.746180   -0.758577
 C   -1.637604   -1.468481   -1.318679
 C   -2.916471   -0.935490   -1.487421
 C   -4.067073   -1.655401   -1.115562
 C   -3.882228   -2.955536   -0.605095
 C   -2.606260   -3.503318   -0.446372
 C   -5.453531   -1.014111   -1.208806
 N   -5.934141   -0.148234   -0.114098
 C   -5.951977    1.319612   -0.305284
 C   -4.658755    2.035281    0.161068
 N   -4.292044    1.742142    1.568919
 C   -4.978379    2.523642    2.604242
 C   -4.261089    0.270288    1.766129
 C   -5.541117   -0.460585    1.280074
 O    0.095084   -4.545591   -0.607320
 C    6.639629   -2.628329    0.482821
 H   -0.801337    5.393478   -0.761721
 H    1.580838    5.214856   -0.084556
 H    1.285061    0.968831   -0.873700
 H   -2.030344    3.313321   -1.445138
 H    3.841722    4.898774    0.214310
 H    6.131144    4.101760    0.863980
 H    6.048773   -0.158615    0.916694
 H    4.949606   -4.688780    0.006998
 H    2.500835   -4.728001   -0.271049
 H    2.430911   -0.501169    0.429858
 H    0.542514   -1.532240    0.103515
 H   -0.769023   -0.877335   -1.599060
 H   -3.006361    0.072045   -1.891926
 H   -4.747263   -3.547346   -0.306853
 H   -2.474769   -4.505546   -0.045686
 H   -5.492068   -0.418030   -2.130381
 H   -6.192697   -1.821314   -1.311630
 H   -6.218312    1.625527   -1.633277
 H   -7.065429    1.845638    0.470703
 H   -4.794348    3.314125    0.022335
 H   -3.729716    1.698955   -0.533252
 H   -6.049310    2.292212    2.625156
 H   -4.851869    3.595863    2.414759
 H   -4.549846    2.305125    3.589156
 H   -4.057940    0.021599    2.988817
 H   -3.193391   -0.193494    1.091463
 H   -6.664402   -0.015938    2.158694
 H   -5.452423   -1.584051    1.424100
 H    6.992434   -2.273967    1.461842
 H    7.127901   -2.013460   -0.278367
 H    7.032258   -3.641551    0.364675
}
memory 20GB
set_num_threads(6)
psi4_io.set_default_path("/scratch/bdw2292")
set freeze_core True
E, wfn = energy('mp2/6-311++G**',return_wfn=True)
oeprop(wfn,"WIBERG_LOWDIN_INDICES")
clean()
--------------------------------------------------------------------------

  Memory set to  18.626 GiB by Python driver.
  Threads set to 6 by Python driver.
    SCF Algorithm Type (re)set to DF.

*** tstart() called on node96.bme.utexas.edu
*** at Tue Apr 14 12:45:08 2020

   => Loading Basis Set <=

    Name: 6-311++G**
    Role: ORBITAL
    Keyword: BASIS
    atoms 1-4, 6-9, 11, 14-19, 21-28, 30-31, 33-35, 37 entry C          line   119 file /home/bdw2292/miniconda3/envs/p4env/share/psi4/basis/6-311ppgss.gbs 
    atoms 5, 10, 12-13, 20, 29, 32                     entry N          line   140 file /home/bdw2292/miniconda3/envs/p4env/share/psi4/basis/6-311ppgss.gbs 
    atoms 36                                           entry O          line   161 file /home/bdw2292/miniconda3/envs/p4env/share/psi4/basis/6-311ppgss.gbs 
    atoms 38-68                                        entry H          line    42 file /home/bdw2292/miniconda3/envs/p4env/share/psi4/basis/6-311ppgss.gbs 


         ---------------------------------------------------------
                                   SCF
               by Justin Turney, Rob Parrish, Andy Simmonett
                          and Daniel G. A. Smith
                              RHF Reference
                        6 Threads,  19073 MiB Core
         ---------------------------------------------------------

  ==> Geometry <==

    Molecular point group: c1
    Full point group: C1

    Geometry (in Angstrom), charge = 0, multiplicity = 1:

       Center              X                  Y                   Z               Mass       
    ------------   -----------------  -----------------  -----------------  -----------------
         C           -0.380106909946     4.470702294632    -0.762759003990    12.000000000000
         C            0.965108090054     4.356465294632    -0.388198003990    12.000000000000
         C            1.586773090054     3.092812294632    -0.378726003990    12.000000000000
         C            0.781907090054     2.006219294632    -0.801302003990    12.000000000000
         N           -0.501706909946     2.095874294632    -1.173580003990    14.003074004430
         C           -1.068356909946     3.312443294632    -1.140980003990    12.000000000000
         C            3.016904090054     2.865848294632     0.043058996010    12.000000000000
         C            3.957878090054     3.875930294632     0.302278996010    12.000000000000
         C            5.238875090054     3.439211294632     0.661321996010    12.000000000000
         N            5.590786090054     2.160598294632     0.781030996010    14.003074004430
         C            4.619529090054     1.258620294632     0.533851996010    12.000000000000
         N            3.375150090054     1.575389294632     0.172353996010    14.003074004430
         N            4.986188090054    -0.068484705368     0.681490996010    14.003074004430
         C            4.297523090054    -1.314972705368     0.451645996010    12.000000000000
         C            5.043336090054    -2.528746705368     0.352652996010    12.000000000000
         C            4.323550090054    -3.709800705368     0.102138996010    12.000000000000
         C            2.933214090054    -3.761540705368    -0.055169003990    12.000000000000
         C            2.210195090054    -2.571139705368     0.070607996010    12.000000000000
         C            2.904363090054    -1.377785705368     0.323545996010    12.000000000000
         N            0.793340090054    -2.431228705368    -0.065327003990    14.003074004430
         C           -0.183515909946    -3.308398705368    -0.477401003990    12.000000000000
         C           -1.549692909946    -2.707890705368    -0.753677003990    12.000000000000
         C           -1.721738909946    -1.430191705368    -1.313779003990    12.000000000000
         C           -3.000605909946    -0.897200705368    -1.482521003990    12.000000000000
         C           -4.151207909946    -1.617111705368    -1.110662003990    12.000000000000
         C           -3.966362909946    -2.917246705368    -0.600195003990    12.000000000000
         C           -2.690394909946    -3.465028705368    -0.441472003990    12.000000000000
         C           -5.537665909946    -0.975821705368    -1.203906003990    12.000000000000
         N           -6.018275909946    -0.109944705368    -0.109198003990    14.003074004430
         C           -6.036111909946     1.357901294632    -0.300384003990    12.000000000000
         C           -4.742889909946     2.073570294632     0.165967996010    12.000000000000
         N           -4.376178909946     1.780431294632     1.573818996010    14.003074004430
         C           -5.062513909946     2.561931294632     2.609141996010    12.000000000000
         C           -4.345223909946     0.308577294632     1.771028996010    12.000000000000
         C           -5.625251909946    -0.422295705368     1.284973996010    12.000000000000
         O            0.010949090054    -4.507301705368    -0.602420003990    15.994914619570
         C            6.555494090054    -2.590039705368     0.487720996010    12.000000000000
         H           -0.885471909946     5.431767294632    -0.756821003990     1.007825032230
         H            1.496703090054     5.253145294632    -0.079656003990     1.007825032230
         H            1.200926090054     1.007120294632    -0.868800003990     1.007825032230
         H           -2.114478909946     3.351610294632    -1.440238003990     1.007825032230
         H            3.757587090054     4.937063294632     0.219209996010     1.007825032230
         H            6.047009090054     4.140049294632     0.868879996010     1.007825032230
         H            5.964638090054    -0.120325705368     0.921593996010     1.007825032230
         H            4.865471090054    -4.650490705368     0.011897996010     1.007825032230
         H            2.416700090054    -4.689711705368    -0.266149003990     1.007825032230
         H            2.346776090054    -0.462879705368     0.434757996010     1.007825032230
         H            0.458379090054    -1.493950705368     0.108414996010     1.007825032230
         H           -0.853157909946    -0.839045705368    -1.594160003990     1.007825032230
         H           -3.090495909946     0.110334294632    -1.887026003990     1.007825032230
         H           -4.831397909946    -3.509056705368    -0.301953003990     1.007825032230
         H           -2.558903909946    -4.467256705368    -0.040786003990     1.007825032230
         H           -5.576202909946    -0.379740705368    -2.125481003990     1.007825032230
         H           -6.276831909946    -1.783024705368    -1.306730003990     1.007825032230
         H           -6.302446909946     1.663816294632    -1.628377003990     1.007825032230
         H           -7.149563909946     1.883927294632     0.475602996010     1.007825032230
         H           -4.878482909946     3.352414294632     0.027234996010     1.007825032230
         H           -3.813850909946     1.737244294632    -0.528352003990     1.007825032230
         H           -6.133444909946     2.330501294632     2.630055996010     1.007825032230
         H           -4.936003909946     3.634152294632     2.419658996010     1.007825032230
         H           -4.633980909946     2.343414294632     3.594055996010     1.007825032230
         H           -4.142074909946     0.059888294632     2.993716996010     1.007825032230
         H           -3.277525909946    -0.155204705368     1.096362996010     1.007825032230
         H           -6.748536909946     0.022351294632     2.163593996010     1.007825032230
         H           -5.536557909946    -1.545761705368     1.428999996010     1.007825032230
         H            6.908299090054    -2.235677705368     1.466741996010     1.007825032230
         H            7.043766090054    -1.975170705368    -0.273467003990     1.007825032230
         H            6.948123090054    -3.603261705368     0.369574996010     1.007825032230

  Running in c1 symmetry.

  Rotational constants: A =      0.00441  B =      0.00211  C =      0.00154 [cm^-1]
  Rotational constants: A =    132.31541  B =     63.32781  C =     46.05575 [MHz]
  Nuclear repulsion = 3799.541054804577470

  Charge       = 0
  Multiplicity = 1
  Electrons    = 262
  Nalpha       = 131
  Nbeta        = 131

  ==> Algorithm <==

  SCF Algorithm Type is DF.
  DIIS enabled.
  MOM disabled.
  Fractional occupation disabled.
  Guess Type is SAD.
  Energy threshold   = 1.00e-08
  Density threshold  = 1.00e-08
  Integral threshold = 0.00e+00

  ==> Primary Basis <==

  Basis Set: 6-311++G**
    Blend: 6-311++G**
    Number of shells: 525
    Number of basis function: 1031
    Number of Cartesian functions: 1068
    Spherical Harmonics?: true
    Max angular momentum: 2

   => Loading Basis Set <=

    Name: (6-311++G** AUX)
    Role: JKFIT
    Keyword: DF_BASIS_SCF
    atoms 1-4, 6-9, 11, 14-19, 21-28, 30-31, 33-35, 37 entry C          line   162 file /home/bdw2292/miniconda3/envs/p4env/share/psi4/basis/aug-cc-pvtz-jkfit.gbs 
    atoms 5, 10, 12-13, 20, 29, 32                     entry N          line   224 file /home/bdw2292/miniconda3/envs/p4env/share/psi4/basis/aug-cc-pvtz-jkfit.gbs 
    atoms 36                                           entry O          line   286 file /home/bdw2292/miniconda3/envs/p4env/share/psi4/basis/aug-cc-pvtz-jkfit.gbs 
    atoms 38-68                                        entry H          line    70 file /home/bdw2292/miniconda3/envs/p4env/share/psi4/basis/aug-cc-pvtz-jkfit.gbs 

  ==> Pre-Iterations <==

   -------------------------------------------------------
    Irrep   Nso     Nmo     Nalpha   Nbeta   Ndocc  Nsocc
   -------------------------------------------------------
     A       1031    1031       0       0       0       0
   -------------------------------------------------------
    Total    1031    1031     131     131     131       0
   -------------------------------------------------------

  ==> Integral Setup <==

  ==> DiskDFJK: Density-Fitted J/K Matrices <==

    J tasked:                  Yes
    K tasked:                  Yes
    wK tasked:                  No
    OpenMP threads:              6
    Integrals threads:           6
    Memory [MiB]:            14305
    Algorithm:                Disk
    Integral Cache:           NONE
    Schwarz Cutoff:          1E-12
    Fitting Condition:       1E-10

   => Auxiliary Basis Set <=

  Basis Set: (6-311++G** AUX)
    Blend: AUG-CC-PVTZ-JKFIT
    Number of shells: 1544
    Number of basis function: 5274
    Number of Cartesian functions: 6552
    Spherical Harmonics?: true
    Max angular momentum: 4

  Minimum eigenvalue in the overlap matrix is 1.3736928699E-07.
  Using Symmetric Orthogonalization.

  SCF Guess: Superposition of Atomic Densities via on-the-fly atomic UHF.

  ==> Iterations <==

                           Total Energy        Delta E     RMS |[F,P]|

   @DF-RHF iter SAD: -1571.32295751331185   -1.57132e+03   0.00000e+00 
   @DF-RHF iter   1: -1571.39631695992762   -7.33594e-02   1.21233e-03 DIIS
   @DF-RHF iter   2: -1572.16022463277181   -7.63908e-01   6.36585e-04 DIIS
   @DF-RHF iter   3: -1572.35076274718745   -1.90538e-01   1.64945e-04 DIIS
   @DF-RHF iter   4: -1572.36774552927977   -1.69828e-02   6.50691e-05 DIIS
   @DF-RHF iter   5: -1572.37028022492518   -2.53470e-03   1.32972e-05 DIIS
   @DF-RHF iter   6: -1572.37042866276852   -1.48438e-04   5.86625e-06 DIIS
   @DF-RHF iter   7: -1572.37046253234030   -3.38696e-05   1.94087e-06 DIIS
   @DF-RHF iter   8: -1572.37046801663951   -5.48430e-06   8.03692e-07 DIIS
   @DF-RHF iter   9: -1572.37046900755877   -9.90919e-07   3.36776e-07 DIIS
   @DF-RHF iter  10: -1572.37046921820684   -2.10648e-07   1.52580e-07 DIIS
   @DF-RHF iter  11: -1572.37046926239555   -4.41887e-08   7.14238e-08 DIIS
   @DF-RHF iter  12: -1572.37046927397932   -1.15838e-08   2.85932e-08 DIIS
   @DF-RHF iter  13: -1572.37046927622282   -2.24350e-09   1.22570e-08 DIIS
   @DF-RHF iter  14: -1572.37046927654637   -3.23553e-10   5.75292e-09 DIIS
  Energy and wave function converged.


  ==> Post-Iterations <==

    Orbital Energies [Eh]
    ---------------------

    Doubly Occupied:                                                      

       1A    -20.522837     2A    -15.603829     3A    -15.601838  
       4A    -15.585232     5A    -15.573037     6A    -15.567988  
       7A    -15.567821     8A    -15.555295     9A    -11.374127  
      10A    -11.365145    11A    -11.333754    12A    -11.327022  
      13A    -11.313290    14A    -11.305640    15A    -11.301750  
      16A    -11.299780    17A    -11.299298    18A    -11.299223  
      19A    -11.297118    20A    -11.292764    21A    -11.287763  
      22A    -11.278767    23A    -11.275910    24A    -11.263680  
      25A    -11.258632    26A    -11.258181    27A    -11.253410  
      28A    -11.251864    29A    -11.251281    30A    -11.247824  
      31A    -11.247375    32A    -11.247268    33A    -11.245608  
      34A    -11.240140    35A    -11.233901    36A    -11.230533  
      37A    -11.225279    38A     -1.386927    39A     -1.344641  
      40A     -1.276541    41A     -1.251988    42A     -1.244899  
      43A     -1.241704    44A     -1.209005    45A     -1.199164  
      46A     -1.162490    47A     -1.139757    48A     -1.114733  
      49A     -1.074400    50A     -1.060026    51A     -1.047125  
      52A     -1.037747    53A     -1.024191    54A     -1.007914  
      55A     -0.993238    56A     -0.977580    57A     -0.947825  
      58A     -0.928772    59A     -0.925429    60A     -0.900256  
      61A     -0.871615    62A     -0.866238    63A     -0.857109  
      64A     -0.841740    65A     -0.836738    66A     -0.826680  
      67A     -0.822260    68A     -0.805563    69A     -0.778376  
      70A     -0.753774    71A     -0.738663    72A     -0.730776  
      73A     -0.721327    74A     -0.707444    75A     -0.696818  
      76A     -0.682039    77A     -0.670740    78A     -0.666315  
      79A     -0.656469    80A     -0.654983    81A     -0.651753  
      82A     -0.640417    83A     -0.636471    84A     -0.630771  
      85A     -0.622113    86A     -0.617954    87A     -0.611728  
      88A     -0.610514    89A     -0.606252    90A     -0.603261  
      91A     -0.601470    92A     -0.596288    93A     -0.591652  
      94A     -0.589115    95A     -0.585385    96A     -0.580548  
      97A     -0.580058    98A     -0.577134    99A     -0.566438  
     100A     -0.559800   101A     -0.547914   102A     -0.543103  
     103A     -0.536908   104A     -0.524129   105A     -0.522846  
     106A     -0.521110   107A     -0.514361   108A     -0.511236  
     109A     -0.509032   110A     -0.506475   111A     -0.501428  
     112A     -0.493685   113A     -0.484200   114A     -0.480666  
     115A     -0.455278   116A     -0.451017   117A     -0.441617  
     118A     -0.437766   119A     -0.428198   120A     -0.425925  
     121A     -0.416776   122A     -0.413574   123A     -0.398878  
     124A     -0.383901   125A     -0.372901   126A     -0.346310  
     127A     -0.344963   128A     -0.344090   129A     -0.315299  
     130A     -0.313134   131A     -0.290243  

    Virtual:                                                              

     132A      0.027214   133A      0.035340   134A      0.041674  
     135A      0.043501   136A      0.044897   137A      0.045969  
     138A      0.049177   139A      0.055665   140A      0.058046  
     141A      0.061176   142A      0.064011   143A      0.065164  
     144A      0.068258   145A      0.071412   146A      0.072448  
     147A      0.075317   148A      0.077370   149A      0.082690  
     150A      0.083186   151A      0.085480   152A      0.086538  
     153A      0.089542   154A      0.093422   155A      0.095580  
     156A      0.098114   157A      0.100483   158A      0.101742  
     159A      0.104897   160A      0.108479   161A      0.110182  
     162A      0.114169   163A      0.114697   164A      0.116946  
     165A      0.117719   166A      0.121550   167A      0.124770  
     168A      0.126957   169A      0.128383   170A      0.131914  
     171A      0.137191   172A      0.141989   173A      0.143093  
     174A      0.143716   175A      0.148590   176A      0.149440  
     177A      0.151150   178A      0.152997   179A      0.155613  
     180A      0.157203   181A      0.159102   182A      0.161466  
     183A      0.163242   184A      0.164661   185A      0.166710  
     186A      0.168485   187A      0.169614   188A      0.173816  
     189A      0.174394   190A      0.177723   191A      0.179163  
     192A      0.181356   193A      0.183508   194A      0.185351  
     195A      0.185791   196A      0.187133   197A      0.188916  
     198A      0.191495   199A      0.194069   200A      0.195503  
     201A      0.196603   202A      0.198335   203A      0.201456  
     204A      0.202280   205A      0.204027   206A      0.205061  
     207A      0.206495   208A      0.207934   209A      0.210853  
     210A      0.212772   211A      0.213175   212A      0.213808  
     213A      0.219044   214A      0.219294   215A      0.219583  
     216A      0.223158   217A      0.225782   218A      0.226410  
     219A      0.228334   220A      0.229850   221A      0.231995  
     222A      0.234072   223A      0.237311   224A      0.237809  
     225A      0.239721   226A      0.241525   227A      0.245192  
     228A      0.246038   229A      0.247871   230A      0.249849  
     231A      0.255010   232A      0.256280   233A      0.258726  
     234A      0.259727   235A      0.261850   236A      0.264431  
     237A      0.266115   238A      0.267580   239A      0.273069  
     240A      0.274825   241A      0.278093   242A      0.278768  
     243A      0.279531   244A      0.282299   245A      0.283483  
     246A      0.284665   247A      0.289083   248A      0.292555  
     249A      0.294931   250A      0.297378   251A      0.299878  
     252A      0.301953   253A      0.302365   254A      0.306609  
     255A      0.308411   256A      0.309791   257A      0.310987  
     258A      0.315458   259A      0.320468   260A      0.321589  
     261A      0.323782   262A      0.325203   263A      0.327623  
     264A      0.329732   265A      0.331454   266A      0.333741  
     267A      0.334553   268A      0.336873   269A      0.338627  
     270A      0.339844   271A      0.341975   272A      0.344439  
     273A      0.346153   274A      0.348966   275A      0.349294  
     276A      0.352063   277A      0.355546   278A      0.357145  
     279A      0.358901   280A      0.361922   281A      0.363084  
     282A      0.364373   283A      0.366932   284A      0.368191  
     285A      0.368573   286A      0.372943   287A      0.374971  
     288A      0.376907   289A      0.378143   290A      0.378665  
     291A      0.382217   292A      0.383635   293A      0.384169  
     294A      0.386229   295A      0.387785   296A      0.390478  
     297A      0.391197   298A      0.394246   299A      0.395701  
     300A      0.396514   301A      0.397834   302A      0.399452  
     303A      0.403105   304A      0.405468   305A      0.407191  
     306A      0.408942   307A      0.409976   308A      0.412279  
     309A      0.412574   310A      0.414539   311A      0.416943  
     312A      0.417553   313A      0.418573   314A      0.421449  
     315A      0.423076   316A      0.425888   317A      0.428826  
     318A      0.430990   319A      0.432770   320A      0.435513  
     321A      0.437351   322A      0.439701   323A      0.441949  
     324A      0.443761   325A      0.445921   326A      0.446436  
     327A      0.448267   328A      0.450974   329A      0.453000  
     330A      0.454868   331A      0.457676   332A      0.459110  
     333A      0.459901   334A      0.463347   335A      0.464206  
     336A      0.465642   337A      0.471460   338A      0.473122  
     339A      0.475623   340A      0.477780   341A      0.479236  
     342A      0.480670   343A      0.483040   344A      0.487084  
     345A      0.489030   346A      0.492271   347A      0.495864  
     348A      0.498280   349A      0.505256   350A      0.507719  
     351A      0.508614   352A      0.509614   353A      0.515270  
     354A      0.517651   355A      0.520090   356A      0.520415  
     357A      0.523960   358A      0.524935   359A      0.528315  
     360A      0.534195   361A      0.536867   362A      0.540021  
     363A      0.540700   364A      0.543884   365A      0.546493  
     366A      0.554036   367A      0.556147   368A      0.560985  
     369A      0.565650   370A      0.567634   371A      0.570119  
     372A      0.574324   373A      0.575725   374A      0.583455  
     375A      0.590024   376A      0.594061   377A      0.601948  
     378A      0.606051   379A      0.611475   380A      0.613815  
     381A      0.618348   382A      0.623144   383A      0.628082  
     384A      0.632707   385A      0.636084   386A      0.641639  
     387A      0.650313   388A      0.657695   389A      0.669128  
     390A      0.686393   391A      0.689640   392A      0.702237  
     393A      0.705919   394A      0.708866   395A      0.712453  
     396A      0.714880   397A      0.723622   398A      0.728234  
     399A      0.732361   400A      0.736415   401A      0.740913  
     402A      0.746605   403A      0.754810   404A      0.756414  
     405A      0.761494   406A      0.763605   407A      0.765372  
     408A      0.768475   409A      0.772029   410A      0.774830  
     411A      0.777407   412A      0.781518   413A      0.787830  
     414A      0.792179   415A      0.794560   416A      0.796246  
     417A      0.804272   418A      0.810434   419A      0.811938  
     420A      0.813632   421A      0.819809   422A      0.822550  
     423A      0.826841   424A      0.828648   425A      0.831029  
     426A      0.835155   427A      0.837878   428A      0.838969  
     429A      0.843908   430A      0.845695   431A      0.848188  
     432A      0.852006   433A      0.860031   434A      0.861361  
     435A      0.864369   436A      0.866566   437A      0.870810  
     438A      0.875580   439A      0.876805   440A      0.882032  
     441A      0.884353   442A      0.887692   443A      0.890943  
     444A      0.895603   445A      0.899295   446A      0.902549  
     447A      0.905175   448A      0.908253   449A      0.912509  
     450A      0.916118   451A      0.917415   452A      0.923290  
     453A      0.927394   454A      0.930209   455A      0.931873  
     456A      0.936419   457A      0.939759   458A      0.942971  
     459A      0.945414   460A      0.946571   461A      0.948979  
     462A      0.952450   463A      0.954160   464A      0.957533  
     465A      0.958142   466A      0.964669   467A      0.968710  
     468A      0.976140   469A      0.977943   470A      0.980040  
     471A      0.981605   472A      0.985077   473A      0.986984  
     474A      0.992718   475A      0.996407   476A      1.000455  
     477A      1.002753   478A      1.003856   479A      1.010093  
     480A      1.013271   481A      1.014767   482A      1.020816  
     483A      1.025275   484A      1.030673   485A      1.033872  
     486A      1.038030   487A      1.044032   488A      1.046131  
     489A      1.048156   490A      1.052963   491A      1.058956  
     492A      1.062176   493A      1.066727   494A      1.071631  
     495A      1.075680   496A      1.078991   497A      1.080288  
     498A      1.085831   499A      1.095935   500A      1.096298  
     501A      1.100312   502A      1.106807   503A      1.111762  
     504A      1.118650   505A      1.124058   506A      1.127505  
     507A      1.132687   508A      1.136606   509A      1.140652  
     510A      1.143984   511A      1.146743   512A      1.147471  
     513A      1.156922   514A      1.158226   515A      1.162428  
     516A      1.165016   517A      1.168919   518A      1.173443  
     519A      1.179143   520A      1.184235   521A      1.185539  
     522A      1.189607   523A      1.194737   524A      1.196743  
     525A      1.199776   526A      1.202035   527A      1.210288  
     528A      1.214419   529A      1.220831   530A      1.222459  
     531A      1.226936   532A      1.231293   533A      1.233191  
     534A      1.235888   535A      1.243380   536A      1.244328  
     537A      1.250938   538A      1.251472   539A      1.256556  
     540A      1.257957   541A      1.260267   542A      1.266526  
     543A      1.268646   544A      1.280156   545A      1.281659  
     546A      1.284453   547A      1.288940   548A      1.295107  
     549A      1.299832   550A      1.305316   551A      1.307270  
     552A      1.311639   553A      1.317223   554A      1.326045  
     555A      1.331511   556A      1.342703   557A      1.343608  
     558A      1.349657   559A      1.357019   560A      1.360353  
     561A      1.367076   562A      1.377946   563A      1.378569  
     564A      1.384151   565A      1.394775   566A      1.396780  
     567A      1.401974   568A      1.412881   569A      1.416489  
     570A      1.420904   571A      1.426961   572A      1.432779  
     573A      1.443215   574A      1.448942   575A      1.453751  
     576A      1.458552   577A      1.461828   578A      1.469226  
     579A      1.475828   580A      1.481916   581A      1.490627  
     582A      1.497724   583A      1.504235   584A      1.525348  
     585A      1.532266   586A      1.532642   587A      1.542168  
     588A      1.544792   589A      1.557079   590A      1.557414  
     591A      1.565808   592A      1.577474   593A      1.591957  
     594A      1.599234   595A      1.617923   596A      1.621410  
     597A      1.628441   598A      1.635086   599A      1.639635  
     600A      1.656385   601A      1.669712   602A      1.680224  
     603A      1.689237   604A      1.695877   605A      1.697895  
     606A      1.707734   607A      1.711393   608A      1.725246  
     609A      1.728342   610A      1.733827   611A      1.740327  
     612A      1.743583   613A      1.753674   614A      1.754231  
     615A      1.763614   616A      1.769121   617A      1.774062  
     618A      1.774754   619A      1.784353   620A      1.786969  
     621A      1.792728   622A      1.797875   623A      1.805053  
     624A      1.808454   625A      1.811150   626A      1.817979  
     627A      1.819808   628A      1.822389   629A      1.826839  
     630A      1.829431   631A      1.833972   632A      1.835012  
     633A      1.842305   634A      1.844675   635A      1.849077  
     636A      1.851309   637A      1.853984   638A      1.855420  
     639A      1.859831   640A      1.867382   641A      1.870108  
     642A      1.872713   643A      1.878301   644A      1.882525  
     645A      1.887157   646A      1.899711   647A      1.901860  
     648A      1.905402   649A      1.910980   650A      1.921501  
     651A      1.928350   652A      1.932944   653A      1.934591  
     654A      1.939659   655A      1.945816   656A      1.948472  
     657A      1.955002   658A      1.956220   659A      1.962044  
     660A      1.964602   661A      1.970494   662A      1.974509  
     663A      1.976473   664A      1.983886   665A      1.984916  
     666A      1.992393   667A      2.001335   668A      2.002448  
     669A      2.007779   670A      2.010912   671A      2.014572  
     672A      2.023072   673A      2.026358   674A      2.035291  
     675A      2.036264   676A      2.043652   677A      2.046835  
     678A      2.049870   679A      2.052315   680A      2.058103  
     681A      2.067787   682A      2.075967   683A      2.078581  
     684A      2.083427   685A      2.087122   686A      2.090336  
     687A      2.098828   688A      2.100145   689A      2.105496  
     690A      2.106396   691A      2.115734   692A      2.125397  
     693A      2.128669   694A      2.142369   695A      2.147372  
     696A      2.154745   697A      2.158678   698A      2.165752  
     699A      2.170207   700A      2.178734   701A      2.180728  
     702A      2.187270   703A      2.191534   704A      2.196281  
     705A      2.198580   706A      2.212813   707A      2.222662  
     708A      2.227386   709A      2.235264   710A      2.239101  
     711A      2.241501   712A      2.244661   713A      2.252205  
     714A      2.255905   715A      2.258425   716A      2.267961  
     717A      2.271745   718A      2.275588   719A      2.280169  
     720A      2.282983   721A      2.286545   722A      2.293098  
     723A      2.295434   724A      2.304479   725A      2.310108  
     726A      2.312250   727A      2.319873   728A      2.321745  
     729A      2.339400   730A      2.341736   731A      2.345829  
     732A      2.350414   733A      2.358919   734A      2.366736  
     735A      2.370341   736A      2.378018   737A      2.380013  
     738A      2.389298   739A      2.394311   740A      2.399272  
     741A      2.405892   742A      2.410213   743A      2.413401  
     744A      2.427472   745A      2.431628   746A      2.440802  
     747A      2.447364   748A      2.452588   749A      2.461763  
     750A      2.476588   751A      2.478774   752A      2.484120  
     753A      2.491103   754A      2.499610   755A      2.509699  
     756A      2.519093   757A      2.527146   758A      2.537532  
     759A      2.544491   760A      2.552312   761A      2.555036  
     762A      2.559821   763A      2.580336   764A      2.587288  
     765A      2.591759   766A      2.605108   767A      2.615405  
     768A      2.621726   769A      2.645950   770A      2.651056  
     771A      2.657409   772A      2.661467   773A      2.668178  
     774A      2.681653   775A      2.687497   776A      2.700282  
     777A      2.708296   778A      2.726405   779A      2.728793  
     780A      2.743718   781A      2.746661   782A      2.757158  
     783A      2.766772   784A      2.775553   785A      2.782576  
     786A      2.788713   787A      2.800486   788A      2.804302  
     789A      2.814348   790A      2.821545   791A      2.829370  
     792A      2.833611   793A      2.837956   794A      2.853087  
     795A      2.854334   796A      2.861802   797A      2.867021  
     798A      2.872126   799A      2.880807   800A      2.883960  
     801A      2.891656   802A      2.901861   803A      2.907679  
     804A      2.911132   805A      2.930922   806A      2.932889  
     807A      2.946381   808A      2.952000   809A      2.955353  
     810A      2.962567   811A      2.968083   812A      2.972762  
     813A      2.977795   814A      2.984380   815A      2.993439  
     816A      2.997866   817A      3.005362   818A      3.011412  
     819A      3.017161   820A      3.021532   821A      3.037108  
     822A      3.041929   823A      3.045928   824A      3.048474  
     825A      3.057116   826A      3.060152   827A      3.061745  
     828A      3.069476   829A      3.072752   830A      3.080607  
     831A      3.087016   832A      3.096540   833A      3.104487  
     834A      3.108777   835A      3.110699   836A      3.113378  
     837A      3.115036   838A      3.118288   839A      3.122234  
     840A      3.124196   841A      3.129076   842A      3.136779  
     843A      3.144979   844A      3.152482   845A      3.162248  
     846A      3.167197   847A      3.169377   848A      3.177092  
     849A      3.182251   850A      3.188596   851A      3.198659  
     852A      3.202319   853A      3.209496   854A      3.220684  
     855A      3.225608   856A      3.230070   857A      3.236332  
     858A      3.241996   859A      3.254076   860A      3.265122  
     861A      3.275576   862A      3.279014   863A      3.282385  
     864A      3.285485   865A      3.291307   866A      3.294523  
     867A      3.298859   868A      3.302153   869A      3.307057  
     870A      3.313720   871A      3.327342   872A      3.331185  
     873A      3.335471   874A      3.335843   875A      3.345307  
     876A      3.347592   877A      3.352485   878A      3.357677  
     879A      3.363126   880A      3.365186   881A      3.368440  
     882A      3.373942   883A      3.384195   884A      3.390414  
     885A      3.397551   886A      3.400678   887A      3.406395  
     888A      3.434164   889A      3.436096   890A      3.441742  
     891A      3.454805   892A      3.463249   893A      3.471005  
     894A      3.509441   895A      3.519108   896A      3.544337  
     897A      3.593019   898A      3.607015   899A      3.617128  
     900A      3.618579   901A      3.632139   902A      3.635669  
     903A      3.656209   904A      3.657780   905A      3.674078  
     906A      3.679662   907A      3.687823   908A      3.701441  
     909A      3.764215   910A      3.767086   911A      3.777663  
     912A      3.780914   913A      3.801764   914A      3.810722  
     915A      3.821781   916A      3.856071   917A      3.860704  
     918A      3.875720   919A      3.887087   920A      3.902673  
     921A      3.907585   922A      3.916107   923A      3.924541  
     924A      3.928609   925A      3.930543   926A      3.944515  
     927A      3.956901   928A      3.960355   929A      3.976539  
     930A      3.981721   931A      3.995959   932A      4.008263  
     933A      4.051776   934A      4.061744   935A      4.069389  
     936A      4.084166   937A      4.090088   938A      4.101545  
     939A      4.120963   940A      4.127313   941A      4.137522  
     942A      4.155249   943A      4.164100   944A      4.189054  
     945A      4.193565   946A      4.201443   947A      4.208432  
     948A      4.217841   949A      4.257529   950A      4.300458  
     951A      4.358884   952A      4.364580   953A      4.384392  
     954A      4.404802   955A      4.414297   956A      4.420586  
     957A      4.427717   958A      4.432463   959A      4.440835  
     960A      4.453984   961A      4.456360   962A      4.467732  
     963A      4.520364   964A      4.546250   965A      4.553370  
     966A      4.581966   967A      4.584615   968A      4.617747  
     969A      4.626238   970A      4.667025   971A      4.719835  
     972A      4.770394   973A      4.776235   974A      4.785487  
     975A      4.910169   976A      4.942162   977A      5.006396  
     978A      5.048478   979A      5.221793   980A      5.248784  
     981A      5.262339   982A      5.273240   983A      5.293581  
     984A      5.331024   985A      5.353194   986A      5.388386  
     987A      5.417582   988A      5.606351   989A      5.690439  
     990A      5.697855   991A      5.799924   992A      5.854752  
     993A      5.866126   994A      6.392504   995A     24.757306  
     996A     24.786446   997A     24.815522   998A     24.823281  
     999A     24.845311  1000A     24.859076  1001A     24.940577  
    1002A     24.952272  1003A     25.016445  1004A     25.019787  
    1005A     25.046744  1006A     25.072845  1007A     25.073905  
    1008A     25.093747  1009A     25.100876  1010A     25.122278  
    1011A     25.127704  1012A     25.134240  1013A     25.139690  
    1014A     25.148917  1015A     25.174520  1016A     25.205325  
    1017A     25.211941  1018A     25.236103  1019A     25.247785  
    1020A     25.248819  1021A     25.254094  1022A     25.320237  
    1023A     25.329041  1024A     36.946176  1025A     36.996735  
    1026A     37.022486  1027A     37.070028  1028A     37.076044  
    1029A     37.136339  1030A     37.154553  1031A     51.760666  

    Final Occupation by Irrep:
              A 
    DOCC [   131 ]

  @DF-RHF Final Energy: -1572.37046927654637

   => Energetics <=

    Nuclear Repulsion Energy =           3799.5410548045774703
    One-Electron Energy =               -9697.4184523790045205
    Two-Electron Energy =                4325.5069282978811316
    Total Energy =                      -1572.3704692765459185

Computation Completed


Properties will be evaluated at   0.000000,   0.000000,   0.000000 [a0]

Properties computed using the SCF density matrix

  Nuclear Dipole Moment: [e a0]
     X:   -32.1523      Y:     8.7275      Z:     7.6155

  Electronic Dipole Moment: [e a0]
     X:    32.4534      Y:    -6.0502      Z:    -7.3872

  Dipole Moment: [e a0]
     X:     0.3011      Y:     2.6773      Z:     0.2283     Total:     2.7038

  Dipole Moment: [D]
     X:     0.7652      Y:     6.8049      Z:     0.5803     Total:     6.8723


*** tstop() called on node96.bme.utexas.edu at Tue Apr 14 13:06:07 2020
Module time:
	user time   =    3881.70 seconds =      64.70 minutes
	system time =     131.21 seconds =       2.19 minutes
	total time  =       1259 seconds =      20.98 minutes
Total time:
	user time   =    3881.70 seconds =      64.70 minutes
	system time =     131.21 seconds =       2.19 minutes
	total time  =       1259 seconds =      20.98 minutes

*** tstart() called on node96.bme.utexas.edu
*** at Tue Apr 14 13:06:07 2020


  //>>>>>>>>>>>>>>>>>>>>>>>>>>>>>>>>>>>//
  //               DFMP2               //
  //<<<<<<<<<<<<<<<<<<<<<<<<<<<<<<<<<<<//

   => Loading Basis Set <=

    Name: (6-311++G** AUX)
    Role: RIFIT
    Keyword: DF_BASIS_MP2
    atoms 1-4, 6-9, 11, 14-19, 21-28, 30-31, 33-35, 37 entry C          line   148 file /home/bdw2292/miniconda3/envs/p4env/share/psi4/basis/aug-cc-pvtz-ri.gbs 
    atoms 5, 10, 12-13, 20, 29, 32                     entry N          line   206 file /home/bdw2292/miniconda3/envs/p4env/share/psi4/basis/aug-cc-pvtz-ri.gbs 
    atoms 36                                           entry O          line   264 file /home/bdw2292/miniconda3/envs/p4env/share/psi4/basis/aug-cc-pvtz-ri.gbs 
    atoms 38-68                                        entry H          line    30 file /home/bdw2292/miniconda3/envs/p4env/share/psi4/basis/aug-cc-pvtz-ri.gbs 

	 --------------------------------------------------------
	                          DF-MP2                         
	      2nd-Order Density-Fitted Moller-Plesset Theory     
	              RMP2 Wavefunction,   6 Threads             
	                                                         
	        Rob Parrish, Justin Turney, Andy Simmonett,      
	           Ed Hohenstein, and C. David Sherrill          
	 --------------------------------------------------------

   => Auxiliary Basis Set <=

  Basis Set: (6-311++G** AUX)
    Blend: AUG-CC-PVTZ-RI
    Number of shells: 1470
    Number of basis function: 5348
    Number of Cartesian functions: 6737
    Spherical Harmonics?: true
    Max angular momentum: 4

	 --------------------------------------------------------
	                 NBF =  1031, NAUX =  5348
	 --------------------------------------------------------
	   CLASS    FOCC     OCC    AOCC    AVIR     VIR    FVIR
	   PAIRS      37     131      94     900     900       0
	 --------------------------------------------------------

	-----------------------------------------------------------
	 ==================> DF-MP2 Energies <==================== 
	-----------------------------------------------------------
	 Reference Energy          =   -1572.3704692765463733 [Eh]
	 Singles Energy            =      -0.0000000000000000 [Eh]
	 Same-Spin Energy          =      -1.4717007047606092 [Eh]
	 Opposite-Spin Energy      =      -4.0480552756445833 [Eh]
	 Correlation Energy        =      -5.5197559804051926 [Eh]
	 Total Energy              =   -1577.8902252569514530 [Eh]
	-----------------------------------------------------------
	 ================> DF-SCS-MP2 Energies <================== 
	-----------------------------------------------------------
	 SCS Same-Spin Scale       =       0.3333333333333333 [-]
	 SCS Opposite-Spin Scale   =       1.2000000000000000 [-]
	 SCS Same-Spin Energy      =      -0.4905669015868697 [Eh]
	 SCS Opposite-Spin Energy  =      -4.8576663307735002 [Eh]
	 SCS Correlation Energy    =      -5.3482332323603696 [Eh]
	 SCS Total Energy          =   -1577.7187025089067447 [Eh]
	-----------------------------------------------------------


*** tstop() called on node96.bme.utexas.edu at Tue Apr 14 13:13:58 2020
Module time:
	user time   =    2602.09 seconds =      43.37 minutes
	system time =      20.70 seconds =       0.34 minutes
	total time  =        471 seconds =       7.85 minutes
Total time:
	user time   =    6483.80 seconds =     108.06 minutes
	system time =     151.91 seconds =       2.53 minutes
	total time  =       1730 seconds =      28.83 minutes


Properties will be evaluated at   0.000000,   0.000000,   0.000000 [a0]
OEProp: No title given, name of density matrix used for the following properties is 'SCF density'


  Wiberg Bond Indices using Orthogonal Lowdin Orbitals:

  Irrep: 1 Size: 68 x 68

                 1                   2                   3                   4                   5

    1     0.00000000000000     1.46463354586542     0.12545537803780     0.14056540911671     0.12378288818640
    2     1.46463354586542     0.00000000000000     1.40019322596369     0.12847050342294     0.12141895551734
    3     0.12545537803780     1.40019322596369     0.00000000000000     1.36107389524732     0.11883315480594
    4     0.14056540911671     0.12847050342294     1.36107389524732     0.00000000000000     1.65989716724676
    5     0.12378288818640     0.12141895551734     0.11883315480594     1.65989716724676     0.00000000000000
    6     1.46233114141932     0.13896025050377     0.13529365870021     0.15358901318029     1.62372677660572
    7     0.01463146833771     0.10309136202707     1.02061693440241     0.10426916407475     0.01392360952365
    8     0.00356252878756     0.04152188059499     0.09826855752418     0.02373482639517     0.00221064435601
    9     0.00036982929477     0.00470607592991     0.01475650489266     0.00408508414911     0.00067637498321
   10     0.00041510708949     0.00534827031744     0.00580592874109     0.00599658839557     0.00033433268375
   11     0.00085963668039     0.00333538247922     0.01798319871350     0.00678682683515     0.00042694246521
   12     0.00280942670487     0.02199884334388     0.11919076361542     0.06129483793761     0.00403785382726
   13     0.00015817762731     0.00047020400190     0.00162229235627     0.00091625596106     0.00008340964154
   14     0.00003124932538     0.00009298580198     0.00057374048764     0.00126891895817     0.00010969828566
   15     0.00001024268420     0.00002334767611     0.00006772255986     0.00014310843730     0.00001578790227
   16     0.00000213259886     0.00000608324764     0.00003972871944     0.00025256573183     0.00001223880869
   17     0.00001259048831     0.00001891521356     0.00005441244830     0.00026365189109     0.00003887747177
   18     0.00002840120075     0.00005169095177     0.00029302494575     0.00178151433877     0.00023507295028
   19     0.00018735134288     0.00024133825750     0.00207637263238     0.01027783055789     0.00062645905546
   20     0.00006744587444     0.00006880048279     0.00031761136103     0.00296380936741     0.00063228789291
   21     0.00001306425749     0.00001272313341     0.00005236618454     0.00039392489621     0.00019578631208
   22     0.00006040966605     0.00003881392712     0.00004816230647     0.00068283227713     0.00153007158810
   23     0.00051633820334     0.00029574077510     0.00042198841113     0.00701591092952     0.02161161889646
   24     0.00026968638106     0.00018846629891     0.00030472199785     0.00181906345913     0.01481399233117
   25     0.00002256529230     0.00001560719331     0.00002565324382     0.00015298899968     0.00085727674140
   26     0.00001004943280     0.00000745838168     0.00001863547238     0.00025463681487     0.00067851245416
   27     0.00000955049949     0.00000632543569     0.00001639895886     0.00019203280544     0.00060360563701
   28     0.00000798423701     0.00000326561656     0.00000450532243     0.00002400644288     0.00009100628547
   29     0.00003853457617     0.00000524922432     0.00000637372310     0.00001049133445     0.00007338746774
   30     0.00018096823298     0.00002401957722     0.00002749260214     0.00005618232688     0.00040672086326
   31     0.00153422257013     0.00022880287798     0.00063211193030     0.00045639512550     0.00356676103790
   32     0.00037604512032     0.00014134173342     0.00025934234831     0.00017210700455     0.00059506301829
   33     0.00012106709813     0.00003216157883     0.00008438092197     0.00005423092232     0.00010460042044
   34     0.00006314944921     0.00010030692296     0.00008902425764     0.00012363110817     0.00059400298711
   35     0.00003277707009     0.00000688185945     0.00000712442278     0.00003818564648     0.00009456253473
   36     0.00000203394422     0.00000230245265     0.00001230099111     0.00010354193302     0.00003817079517
   37     0.00000226430499     0.00000724969787     0.00003282906994     0.00003433042544     0.00000283296290
   38     0.88559268795986     0.07935667103236     0.01180902279759     0.00638604493988     0.01072164388843
   39     0.07749617468094     0.87035570251227     0.07294482226306     0.01177603932121     0.00396594439208
   40     0.00567927943112     0.01052083623316     0.06914246038103     0.85034098098496     0.08690373071276
   41     0.07672603983036     0.01157568176007     0.00597014708691     0.01575927445026     0.08815117318585
   42     0.00105580860640     0.01395152477148     0.01431357124233     0.00137275253080     0.00029188123932
   43     0.00004404316379     0.00027601202224     0.00143117591876     0.00031696614612     0.00007707520818
   44     0.00002401046269     0.00008174547308     0.00034907741510     0.00009070352617     0.00000766374960
   45     0.00000032383326     0.00000106125003     0.00000679532498     0.00001837523124     0.00000173284865
   46     0.00000096838229     0.00000163543367     0.00000687465148     0.00002445442498     0.00000756058270
   47     0.00014429375681     0.00020137336276     0.00205441553262     0.00759994692668     0.00055322023958
   48     0.00013102614558     0.00007744774363     0.00021372911237     0.00240925727513     0.00073713416482
   49     0.00029450682128     0.00013941684372     0.00026254963155     0.00492917811074     0.01046855658708
   50     0.00010499235165     0.00006637069969     0.00013939827997     0.00049376638455     0.00479178742258
   51     0.00000077741703     0.00000046784499     0.00000134167417     0.00001665531208     0.00003532518941
   52     0.00000126135141     0.00000057893517     0.00000107490753     0.00001046917067     0.00003687337847
   53     0.00000183760643     0.00000097660312     0.00000130904538     0.00000290381836     0.00001211444001
   54     0.00000241782562     0.00000018988321     0.00000036239848     0.00000781890758     0.00000994368717
   55     0.00001340694208     0.00000258822452     0.00000247448981     0.00000499055557     0.00004555696161
   56     0.00004789896784     0.00000452815975     0.00000485390827     0.00003385263102     0.00022968363090
   57     0.00032078662214     0.00002577680674     0.00007427331924     0.00007936032675     0.00029195969687
   58     0.00072245250777     0.00020883739823     0.00023091737477     0.00033359232508     0.00316369325932
   59     0.00001231637523     0.00000425892156     0.00000493979250     0.00001447060725     0.00003448134684
   60     0.00005639267567     0.00000930947169     0.00002265193018     0.00001558217026     0.00001322231950
   61     0.00001749643123     0.00000633871182     0.00000808124292     0.00000724658633     0.00000643063663
   62     0.00000337823007     0.00000517865220     0.00000608663027     0.00002298731529     0.00003574094371
   63     0.00003227547772     0.00004862598301     0.00002308868691     0.00013052147205     0.00068592088587
   64     0.00001521071779     0.00000174439311     0.00000250311482     0.00001849871418     0.00002637166455
   65     0.00000157590580     0.00000050894239     0.00000068434330     0.00000171043953     0.00000666474558
   66     0.00000075178409     0.00000193248717     0.00001172417134     0.00000835467038     0.00000056084005
   67     0.00000098390016     0.00000272334315     0.00000978016920     0.00000838744864     0.00000073908787
   68     0.00000026012556     0.00000067527364     0.00000380061005     0.00000779533960     0.00000043838031

                 6                   7                   8                   9                  10

    1     1.46233114141932     0.01463146833771     0.00356252878756     0.00036982929477     0.00041510708949
    2     0.13896025050377     0.10309136202707     0.04152188059499     0.00470607592991     0.00534827031744
    3     0.13529365870021     1.02061693440241     0.09826855752418     0.01475650489266     0.00580592874109
    4     0.15358901318029     0.10426916407475     0.02373482639517     0.00408508414911     0.00599658839557
    5     1.62372677660572     0.01392360952365     0.00221064435601     0.00067637498321     0.00033433268375
    6     0.00000000000000     0.00984115626699     0.00675094719032     0.00120189292053     0.00330092172951
    7     0.00984115626699     0.00000000000000     1.38691171235793     0.14638800358080     0.11204374332079
    8     0.00675094719032     1.38691171235793     0.00000000000000     1.43309920350758     0.13046759968248
    9     0.00120189292053     0.14638800358080     1.43309920350758     0.00000000000000     1.66066705176702
   10     0.00330092172951     0.11204374332079     0.13046759968248     1.66066705176702     0.00000000000000
   11     0.00084346170899     0.14176218834764     0.11342696355341     0.15263208675832     1.50888489258402
   12     0.00600301676695     1.53191776574605     0.12667288529789     0.11118070492900     0.11019934951515
   13     0.00007460919767     0.01930761834537     0.02051195247985     0.02416479761854     0.15990130903070
   14     0.00004302760981     0.00291561571477     0.00249562915772     0.00326479787515     0.01692798988357
   15     0.00000534916617     0.00050196299341     0.00144704495836     0.00093083752353     0.00313692400744
   16     0.00000426397044     0.00016272713163     0.00019454720615     0.00016193756820     0.00047533116872
   17     0.00000797270620     0.00025184025706     0.00130285388094     0.00043865125695     0.00127592162478
   18     0.00004515615103     0.00056177804514     0.00026462314629     0.00014222903706     0.00041092689707
   19     0.00019601049476     0.00581773719949     0.00314724921643     0.00153384853252     0.00432882948144
   20     0.00007302780347     0.00013131869012     0.00002866358218     0.00001774654459     0.00005733395439
   21     0.00002136860638     0.00002155370586     0.00000804614011     0.00000472789045     0.00001573078359
   22     0.00014586871041     0.00000832196856     0.00000287224389     0.00000121122734     0.00000335187505
   23     0.00201621189009     0.00006894998058     0.00001488588904     0.00000401618989     0.00000365444100
   24     0.00271066737433     0.00003732145139     0.00001524022776     0.00000256776265     0.00000121181274
   25     0.00026229746799     0.00000408044812     0.00000225691644     0.00000042801658     0.00000059651278
   26     0.00014258459413     0.00000207380915     0.00000070612041     0.00000017859261     0.00000021534480
   27     0.00011334449483     0.00000314815941     0.00000110186117     0.00000037421833     0.00000083155410
   28     0.00008825647312     0.00000102654994     0.00000030376666     0.00000007704895     0.00000016473456
   29     0.00018393305506     0.00000080641871     0.00000042748365     0.00000010719027     0.00000017125044
   30     0.00115491049680     0.00000380392287     0.00000237159284     0.00000047193938     0.00000090642785
   31     0.01337822532783     0.00003598008900     0.00005503559121     0.00000896372020     0.00002454634062
   32     0.00220866802593     0.00001364024805     0.00001665543651     0.00000241494984     0.00000818576177
   33     0.00032172307714     0.00000503797064     0.00000376242820     0.00000063149911     0.00000150712244
   34     0.00048697838609     0.00000973207311     0.00000369469307     0.00000119380739     0.00000135900579
   35     0.00012875270265     0.00000064161237     0.00000032500520     0.00000008381593     0.00000011817071
   36     0.00000686931752     0.00000966773623     0.00000780814684     0.00000382205914     0.00001058689060
   37     0.00000185165864     0.00014387860968     0.00013630564459     0.00013365484047     0.00072337885671
   38     0.08256211717249     0.00129344014477     0.00025004069235     0.00003948763532     0.00002593727384
   39     0.01171584604924     0.01621313188560     0.01473686805271     0.00115080009645     0.00039969784660
   40     0.01482244222870     0.01570930133885     0.00167719451966     0.00039989332731     0.00058189123324
   41     0.87272878494832     0.00053168920136     0.00026432334064     0.00005184738202     0.00010396186263
   42     0.00047542970129     0.07528210575645     0.87651567354570     0.08080833308173     0.01046118641179
   43     0.00004310948344     0.01168748417544     0.07504468554906     0.87552695980101     0.09028368975375
   44     0.00001167139212     0.00206788877629     0.00202158366188     0.00366763615612     0.03141085106342
   45     0.00000044756449     0.00001861185208     0.00000792690149     0.00002314019785     0.00005197403897
   46     0.00000114253072     0.00002355293657     0.00004217286790     0.00001650789188     0.00005243699818
   47     0.00019162960376     0.00424763379213     0.00093922407130     0.00043826282488     0.00075949920585
   48     0.00009278305316     0.00008888530245     0.00002828954095     0.00001020874623     0.00002154790398
   49     0.00101391730668     0.00004997571131     0.00001044893296     0.00000313696606     0.00000297990369
   50     0.00169345042808     0.00001583131560     0.00000625323639     0.00000098831275     0.00000055548080
   51     0.00000695697740     0.00000012052074     0.00000005401746     0.00000001566815     0.00000002657218
   52     0.00000952466051     0.00000046576124     0.00000012093026     0.00000005588059     0.00000014356502
   53     0.00002482531162     0.00000021635504     0.00000006115206     0.00000000994918     0.00000001274800
   54     0.00001212494121     0.00000007535965     0.00000004394753     0.00000000819915     0.00000002546687
   55     0.00009608649228     0.00000068404484     0.00000029642246     0.00000003243652     0.00000009708866
   56     0.00040551846999     0.00000069975677     0.00000043611455     0.00000012834572     0.00000021877167
   57     0.00242513060032     0.00000499572338     0.00000475169984     0.00000068720016     0.00000238172117
   58     0.00815145955495     0.00001658683867     0.00001891251824     0.00000316915749     0.00000779260779
   59     0.00005212676688     0.00000031985387     0.00000018138804     0.00000004104295     0.00000003694331
   60     0.00007845569581     0.00000114832478     0.00000105072544     0.00000016073264     0.00000048876725
   61     0.00003040298412     0.00000064453082     0.00000022009663     0.00000002532845     0.00000004448758
   62     0.00003397955727     0.00000080002026     0.00000014817319     0.00000004720594     0.00000002627900
   63     0.00019869864751     0.00000514944319     0.00000082991154     0.00000027567640     0.00000031875328
   64     0.00006813351384     0.00000021734768     0.00000017578910     0.00000002496493     0.00000002190100
   65     0.00000866908920     0.00000012602166     0.00000003502568     0.00000000687061     0.00000001018936
   66     0.00000037718827     0.00004436955860     0.00007685620693     0.00004211852039     0.00025360441597
   67     0.00000116123587     0.00004370370810     0.00010635004866     0.00004009347389     0.00029187668877
   68     0.00000016226504     0.00001435640788     0.00000535057924     0.00000426217486     0.00003143845166

                11                  12                  13                  14                  15

    1     0.00085963668039     0.00280942670487     0.00015817762731     0.00003124932538     0.00001024268420
    2     0.00333538247922     0.02199884334388     0.00047020400190     0.00009298580198     0.00002334767611
    3     0.01798319871350     0.11919076361542     0.00162229235627     0.00057374048764     0.00006772255986
    4     0.00678682683515     0.06129483793761     0.00091625596106     0.00126891895817     0.00014310843730
    5     0.00042694246521     0.00403785382726     0.00008340964154     0.00010969828566     0.00001578790227
    6     0.00084346170899     0.00600301676695     0.00007460919767     0.00004302760981     0.00000534916617
    7     0.14176218834764     1.53191776574605     0.01930761834537     0.00291561571477     0.00050196299341
    8     0.11342696355341     0.12667288529789     0.02051195247985     0.00249562915772     0.00144704495836
    9     0.15263208675832     0.11118070492900     0.02416479761854     0.00326479787515     0.00093083752353
   10     1.50888489258402     0.11019934951515     0.15990130903070     0.01692798988357     0.00313692400744
   11     0.00000000000000     1.53373165984504     1.27046680937557     0.08256287471144     0.01779777093028
   12     1.53373165984504     0.00000000000000     0.14176473306990     0.02960021442112     0.00347588211417
   13     1.27046680937557     0.14176473306990     0.00000000000000     1.12608351725037     0.10555160599247
   14     0.08256287471144     0.02960021442112     1.12608351725037     0.00000000000000     1.31629383537661
   15     0.01779777093028     0.00347588211417     0.10555160599247     1.31629383537661     0.00000000000000
   16     0.00237350425909     0.00116122580063     0.01428138399505     0.12555057368094     1.44199858242942
   17     0.00409475853055     0.00247854976633     0.01189702059237     0.11941741651472     0.12408785064068
   18     0.00242885093866     0.00489744979432     0.01312207520616     0.12220203361619     0.11995230692213
   19     0.02847264142418     0.05559031773294     0.11047657972250     1.40294972546847     0.12000193782115
   20     0.00034215543618     0.00107941536112     0.00131655373458     0.01506612499355     0.01139266233932
   21     0.00006102827055     0.00012794987207     0.00030202071775     0.00275526926154     0.00576164460405
   22     0.00001204544070     0.00002879609940     0.00005548916735     0.00035476967870     0.00033772746071
   23     0.00001557847853     0.00012806247881     0.00001439486927     0.00012118409934     0.00035994232942
   24     0.00000258028505     0.00001468906124     0.00000293406239     0.00001297982609     0.00003661277753
   25     0.00000085257428     0.00000311045277     0.00000199843074     0.00002269871589     0.00014643248947
   26     0.00000061019265     0.00000152183437     0.00000220669230     0.00001746956580     0.00003257975111
   27     0.00000332260669     0.00000431860407     0.00001270580534     0.00009615706255     0.00030085628031
   28     0.00000019239318     0.00000060200662     0.00000016158792     0.00000208158006     0.00001054108495
   29     0.00000010404239     0.00000058397446     0.00000009459636     0.00000125410047     0.00000729362526
   30     0.00000035307763     0.00000192999775     0.00000007821608     0.00000029214380     0.00000099198428
   31     0.00000408463940     0.00003244184625     0.00000064173906     0.00000052692498     0.00000031824549
   32     0.00000151776363     0.00001245191972     0.00000020461299     0.00000106503248     0.00000034474466
   33     0.00000048043154     0.00000347901740     0.00000007778251     0.00000015152970     0.00000012884259
   34     0.00000058077823     0.00000286043665     0.00000013706387     0.00000114332514     0.00000148374502
   35     0.00000015014159     0.00000059216339     0.00000011979479     0.00000065347683     0.00000153519060
   36     0.00003828525766     0.00005125918456     0.00014699355597     0.00100061104634     0.00333140193282
   37     0.00356493391645     0.00078542707596     0.03767655546870     0.09660768751447     1.05936171297255
   38     0.00008963522792     0.00031392654086     0.00001561128857     0.00000713208476     0.00000076352475
   39     0.00029521513814     0.00110053308245     0.00007165147928     0.00002515577730     0.00000426268041
   40     0.00267842175395     0.02456014337422     0.00042337534887     0.00112891085546     0.00014154422168
   41     0.00004263860668     0.00024849854652     0.00000582456688     0.00000387324976     0.00000055020728
   42     0.00576253690310     0.01073216737315     0.00104134707314     0.00012085419226     0.00006514923336
   43     0.01584988059818     0.00400937677896     0.00136192761321     0.00038687532215     0.00006254454790
   44     0.07387022535929     0.01155741215136     0.93410309782102     0.05942381349262     0.01482168455694
   45     0.00036510835461     0.00006284680648     0.00115262592686     0.01142275979904     0.07490833958012
   46     0.00014704101731     0.00015785127907     0.00051616862664     0.00524975100631     0.01052995122504
   47     0.00969170340176     0.03787443687714     0.01582746017421     0.07325507586946     0.00971493416181
   48     0.00012279892438     0.00067630126436     0.00017806390325     0.00207036885640     0.00111894240388
   49     0.00001068735646     0.00006564331942     0.00000612169837     0.00004103038768     0.00011616827166
   50     0.00000088213422     0.00000382034041     0.00000038458114     0.00000138455011     0.00000161148635
   51     0.00000007072026     0.00000014512732     0.00000049736129     0.00000273088246     0.00000315922796
   52     0.00000067052471     0.00000067248193     0.00000225459903     0.00001501615515     0.00001932653143
   53     0.00000002135732     0.00000011444948     0.00000005502737     0.00000038007305     0.00000177950738
   54     0.00000002353930     0.00000004028620     0.00000004173844     0.00000030453231     0.00000156278234
   55     0.00000003142139     0.00000020684513     0.00000001765215     0.00000003848973     0.00000006258661
   56     0.00000011814039     0.00000032701044     0.00000001763576     0.00000007290620     0.00000047723712
   57     0.00000049885956     0.00000397771365     0.00000007633271     0.00000006797404     0.00000003873406
   58     0.00000165953740     0.00001048257891     0.00000059453097     0.00000046686905     0.00000019524106
   59     0.00000001884045     0.00000016211765     0.00000000773858     0.00000003071685     0.00000003447894
   60     0.00000016080396     0.00000119946819     0.00000004439184     0.00000001452642     0.00000001225389
   61     0.00000004271253     0.00000027039803     0.00000002777278     0.00000002711958     0.00000001939973
   62     0.00000008583333     0.00000066403149     0.00000002525723     0.00000024775791     0.00000045359806
   63     0.00000057119404     0.00000125258680     0.00000018616393     0.00000090775708     0.00000367118996
   64     0.00000004758359     0.00000020577977     0.00000001260476     0.00000019642262     0.00000012551995
   65     0.00000001549853     0.00000005971334     0.00000001951596     0.00000014871692     0.00000034546205
   66     0.00078033973118     0.00026451594574     0.00935597804134     0.01642270464530     0.05726930522221
   67     0.00087798960867     0.00028554432695     0.00974396554732     0.01657886636550     0.05876685353960
   68     0.00022883803032     0.00006133741517     0.00198999044940     0.00894497764397     0.05987746891958

                16                  17                  18                  19                  20

    1     0.00000213259886     0.00001259048831     0.00002840120075     0.00018735134288     0.00006744587444
    2     0.00000608324764     0.00001891521356     0.00005169095177     0.00024133825750     0.00006880048279
    3     0.00003972871944     0.00005441244830     0.00029302494575     0.00207637263238     0.00031761136103
    4     0.00025256573183     0.00026365189109     0.00178151433877     0.01027783055789     0.00296380936741
    5     0.00001223880869     0.00003887747177     0.00023507295028     0.00062645905546     0.00063228789291
    6     0.00000426397044     0.00000797270620     0.00004515615103     0.00019601049476     0.00007302780347
    7     0.00016272713163     0.00025184025706     0.00056177804514     0.00581773719949     0.00013131869012
    8     0.00019454720615     0.00130285388094     0.00026462314629     0.00314724921643     0.00002866358218
    9     0.00016193756820     0.00043865125695     0.00014222903706     0.00153384853252     0.00001774654459
   10     0.00047533116872     0.00127592162478     0.00041092689707     0.00432882948144     0.00005733395439
   11     0.00237350425909     0.00409475853055     0.00242885093866     0.02847264142418     0.00034215543618
   12     0.00116122580063     0.00247854976633     0.00489744979432     0.05559031773294     0.00107941536112
   13     0.01428138399505     0.01189702059237     0.01312207520616     0.11047657972250     0.00131655373458
   14     0.12555057368094     0.11941741651472     0.12220203361619     1.40294972546847     0.01506612499355
   15     1.44199858242942     0.12408785064068     0.11995230692213     0.12000193782115     0.01139266233932
   16     0.00000000000000     1.44413571013056     0.13315229804349     0.12570264931067     0.01369202281996
   17     1.44413571013056     0.00000000000000     1.40007543731671     0.12196455266286     0.10484643651724
   18     0.13315229804349     1.40007543731671     0.00000000000000     1.36166185467160     1.12787786401154
   19     0.12570264931067     0.12196455266286     1.36166185467160     0.00000000000000     0.12434018725652
   20     0.01369202281996     0.10484643651724     1.12787786401154     0.12434018725652     0.00000000000000
   21     0.00274359467284     0.03098924037220     0.08607118002467     0.02255995441241     1.31205303635888
   22     0.00035194766613     0.00325870091998     0.01471840967383     0.00212109577278     0.10628587833351
   23     0.00015024687921     0.00121265925666     0.00423321011735     0.00136658835281     0.04377054268144
   24     0.00002190459552     0.00016126365137     0.00044662800696     0.00014152979723     0.00393754924736
   25     0.00002590526818     0.00024913342457     0.00046647950548     0.00021605362913     0.00345604125397
   26     0.00002126432395     0.00013624005744     0.00050619833244     0.00010487027230     0.00253103903683
   27     0.00010255234568     0.00087261166452     0.00235651776208     0.00065754483696     0.01816347531972
   28     0.00000235800877     0.00002134936008     0.00004230573888     0.00001793995144     0.00026504732282
   29     0.00000133920685     0.00001106457362     0.00002113782112     0.00001017548241     0.00014948835013
   30     0.00000028505915     0.00000195095589     0.00000325534380     0.00000158491726     0.00001977975578
   31     0.00000019376986     0.00000167518999     0.00000270831975     0.00000211337094     0.00001329453810
   32     0.00000016550312     0.00000089977142     0.00000227583121     0.00000110640239     0.00001138969104
   33     0.00000004007873     0.00000027828511     0.00000066622056     0.00000029880049     0.00000185320134
   34     0.00000064582032     0.00000540692822     0.00000825805302     0.00000791321885     0.00004728915598
   35     0.00000060659362     0.00000344698983     0.00000843801014     0.00000283864197     0.00005151185241
   36     0.00329258161722     0.04667078361942     0.03109568290286     0.00523222828656     0.19182163761118
   37     0.11527839230020     0.01433526227484     0.00738829797587     0.01407624708292     0.00072942347575
   38     0.00000031600796     0.00000067775547     0.00000528818716     0.00002271376678     0.00000510218144
   39     0.00000160971210     0.00000237499885     0.00000601055154     0.00003712363501     0.00000675083224
   40     0.00022739553874     0.00022947334192     0.00171561807882     0.00813006155554     0.00202375216353
   41     0.00000040590033     0.00000074863080     0.00000271095079     0.00001353548926     0.00000482677516
   42     0.00001080906947     0.00004718780129     0.00002997127225     0.00020238720918     0.00000676359885
   43     0.00001576471174     0.00001169882761     0.00001514082368     0.00010739148657     0.00000174256165
   44     0.00149920336146     0.00108243189298     0.00129396254844     0.01047602208365     0.00023950291086
   45     0.87157140226769     0.07889754336550     0.01177880628362     0.00568350555857     0.00103514400118
   46     0.07703817098091     0.86067405555677     0.07594545633426     0.01127610325219     0.01470375201526
   47     0.00569393335757     0.01025329240722     0.07181939600865     0.83769914563855     0.02425560072184
   48     0.00136634535485     0.01010324798764     0.06270904147870     0.02169697839888     0.93528231819936
   49     0.00005392722880     0.00036651734368     0.00163961591164     0.00069912618485     0.01571702886233
   50     0.00000194225734     0.00001205914890     0.00003233135990     0.00001016897074     0.00021240420423
   51     0.00000281700413     0.00001855720943     0.00006598752108     0.00001718972906     0.00028695551537
   52     0.00002599642026     0.00015822211763     0.00024154169773     0.00007110741518     0.00162985896656
   53     0.00000052631475     0.00000424240705     0.00000866794921     0.00000299013987     0.00004316762384
   54     0.00000040091672     0.00000366072667     0.00000815971941     0.00000335259552     0.00005081292183
   55     0.00000002965265     0.00000017180715     0.00000047225354     0.00000014985423     0.00000166705410
   56     0.00000009938115     0.00000092534535     0.00000143543384     0.00000066453014     0.00000784282823
   57     0.00000001522438     0.00000016150045     0.00000014436214     0.00000016949805     0.00000103049659
   58     0.00000011214877     0.00000105822144     0.00000173932450     0.00000092940867     0.00000967134874
   59     0.00000000914613     0.00000006258019     0.00000021095052     0.00000003671759     0.00000045235424
   60     0.00000000469219     0.00000001822500     0.00000003142019     0.00000004929333     0.00000021844117
   61     0.00000001071712     0.00000006691779     0.00000014129414     0.00000006162532     0.00000026278674
   62     0.00000009238853     0.00000130570521     0.00000173553197     0.00000199453222     0.00000535618908
   63     0.00000154695576     0.00001371138760     0.00001617006720     0.00001108531772     0.00010754613112
   64     0.00000009132189     0.00000028079551     0.00000041526406     0.00000050549759     0.00000468216078
   65     0.00000023043191     0.00000117669950     0.00000323754405     0.00000063509132     0.00001935142127
   66     0.01496310021354     0.00125520989371     0.00289868681389     0.00120187832750     0.00036763933099
   67     0.01517392368984     0.00125764006832     0.00284697792559     0.00126674967934     0.00033947828277
   68     0.02381111305120     0.00190615207388     0.00055180862738     0.00109697606001     0.00008267254502

                21                  22                  23                  24                  25

    1     0.00001306425749     0.00006040966605     0.00051633820334     0.00026968638106     0.00002256529230
    2     0.00001272313341     0.00003881392712     0.00029574077510     0.00018846629891     0.00001560719331
    3     0.00005236618454     0.00004816230647     0.00042198841113     0.00030472199785     0.00002565324382
    4     0.00039392489621     0.00068283227713     0.00701591092952     0.00181906345913     0.00015298899968
    5     0.00019578631208     0.00153007158810     0.02161161889646     0.01481399233117     0.00085727674140
    6     0.00002136860638     0.00014586871041     0.00201621189009     0.00271066737433     0.00026229746799
    7     0.00002155370586     0.00000832196856     0.00006894998058     0.00003732145139     0.00000408044812
    8     0.00000804614011     0.00000287224389     0.00001488588904     0.00001524022776     0.00000225691644
    9     0.00000472789045     0.00000121122734     0.00000401618989     0.00000256776265     0.00000042801658
   10     0.00001573078359     0.00000335187505     0.00000365444100     0.00000121181274     0.00000059651278
   11     0.00006102827055     0.00001204544070     0.00001557847853     0.00000258028505     0.00000085257428
   12     0.00012794987207     0.00002879609940     0.00012806247881     0.00001468906124     0.00000311045277
   13     0.00030202071775     0.00005548916735     0.00001439486927     0.00000293406239     0.00000199843074
   14     0.00275526926154     0.00035476967870     0.00012118409934     0.00001297982609     0.00002269871589
   15     0.00576164460405     0.00033772746071     0.00035994232942     0.00003661277753     0.00014643248947
   16     0.00274359467284     0.00035194766613     0.00015024687921     0.00002190459552     0.00002590526818
   17     0.03098924037220     0.00325870091998     0.00121265925666     0.00016126365137     0.00024913342457
   18     0.08607118002467     0.01471840967383     0.00423321011735     0.00044662800696     0.00046647950548
   19     0.02255995441241     0.00212109577278     0.00136658835281     0.00014152979723     0.00021605362913
   20     1.31205303635888     0.10628587833351     0.04377054268144     0.00393754924736     0.00345604125397
   21     0.00000000000000     0.97151121801578     0.10475971838924     0.01445722410497     0.01111354881993
   22     0.97151121801578     0.00000000000000     1.39572319923774     0.12764255355849     0.12418105367203
   23     0.10475971838924     1.39572319923774     0.00000000000000     1.45826474779482     0.12661774671604
   24     0.01445722410497     0.12764255355849     1.45826474779482     0.00000000000000     1.39916762520494
   25     0.01111354881993     0.12418105367203     0.12661774671604     1.39916762520494     0.00000000000000
   26     0.01478292510362     0.12718281222593     0.12966424511193     0.12597734406894     1.40119595711347
   27     0.11063155994479     1.38976164877912     0.12443880410552     0.13270256592764     0.12667915515465
   28     0.00072261312902     0.00904871462893     0.01478782459503     0.10832026847154     1.01743935085317
   29     0.00037323935916     0.00424142013479     0.00223375812367     0.02114257540893     0.08145215350844
   30     0.00005889371419     0.00065533062553     0.00078766870255     0.00742988098613     0.01438086956536
   31     0.00005371224945     0.00042504977272     0.00266684419897     0.01750262865566     0.00817903100205
   32     0.00006639190324     0.00053282970805     0.00112823702212     0.00346092335717     0.00309728269131
   33     0.00001050631521     0.00011316273902     0.00030270157716     0.00079721532285     0.00082030652342
   34     0.00022896282186     0.00375103348875     0.01012233572122     0.02077086507353     0.02335555217562
   35     0.00014165337439     0.00145873670444     0.00214678751845     0.00907351115712     0.03126815894668
   36     2.18226534001341     0.13603963124597     0.02473550459335     0.00301974295860     0.00609377473618
[...]
   15     0.00000047723712     0.00000003873406     0.00000019524106     0.00000003447894     0.00000001225389
   16     0.00000009938115     0.00000001522438     0.00000011214877     0.00000000914613     0.00000000469219
   17     0.00000092534535     0.00000016150045     0.00000105822144     0.00000006258019     0.00000001822500
   18     0.00000143543384     0.00000014436214     0.00000173932450     0.00000021095052     0.00000003142019
   19     0.00000066453014     0.00000016949805     0.00000092940867     0.00000003671759     0.00000004929333
   20     0.00000784282823     0.00000103049659     0.00000967134874     0.00000045235424     0.00000021844117
   21     0.00002328426193     0.00000265226824     0.00003568914039     0.00000154588505     0.00000074339777
   22     0.00021513398940     0.00001776395108     0.00029860718849     0.00000875438877     0.00000793743257
   23     0.00016026412503     0.00009537499748     0.00214784853016     0.00002963715569     0.00001483020249
   24     0.00065761994482     0.00049241278095     0.01361812684613     0.00008288223428     0.00007632243682
   25     0.00190850315224     0.00029899112233     0.00443120570597     0.00015825515733     0.00006929601742
   26     0.00050811365913     0.00005854835323     0.00052871224014     0.00007450824446     0.00001816002446
   27     0.00010165070375     0.00002532774626     0.00040501541930     0.00001683926789     0.00000737164291
   28     0.01196456123536     0.00107727234467     0.00574941801152     0.00062951467594     0.00012158340820
   29     0.06274275683774     0.01234971105528     0.01331536893128     0.00276645385091     0.00062738586622
   30     0.80617728041876     0.05660772329635     0.04995866864786     0.01221412551963     0.00374991065774
   31     0.05166016642824     0.84993100768146     0.84231103728575     0.01612873060674     0.02012281632490
   32     0.01330517688256     0.05298456816773     0.06024317833929     0.06849147758597     0.06334241141572
   33     0.01326388682681     0.02236408074121     0.01121665877157     0.91037716800794     0.91966537780371
   34     0.00773299002011     0.01389568273912     0.01821609798001     0.01633735046856     0.01257080932929
   35     0.02185082759471     0.00210079811566     0.00731301321028     0.01214277501339     0.00164479266451
   36     0.00001981361453     0.00000160994782     0.00001542618169     0.00000035290860     0.00000050121576
   37     0.00000003715126     0.00000000744389     0.00000005176048     0.00000001774301     0.00000000154985
   38     0.00000192273870     0.00003897271123     0.00003509954511     0.00000077525823     0.00000585809164
   39     0.00000109991083     0.00000359478476     0.00001325217967     0.00000040477222     0.00000097516585
   40     0.00000363793472     0.00000301604670     0.00003183008747     0.00000058701627     0.00000060137914
   41     0.00022729354728     0.00177351477521     0.00496220453112     0.00001472797452     0.00001277500288
   42     0.00000004761125     0.00000027468792     0.00000177547945     0.00000003750619     0.00000020421598
   43     0.00000000777443     0.00000002248676     0.00000020733500     0.00000000246295     0.00000000518340
   44     0.00000001184460     0.00000001074048     0.00000008357750     0.00000000060710     0.00000000364737
   45     0.00000000645697     0.00000000211170     0.00000001284174     0.00000000050166     0.00000000046626
   46     0.00000002719558     0.00000001026848     0.00000027827630     0.00000000679142     0.00000000143613
   47     0.00000006913948     0.00000009463137     0.00000075730309     0.00000004624341     0.00000003781247
   48     0.00000268719153     0.00000032105984     0.00000755654111     0.00000059148020     0.00000020265450
   49     0.00001802419725     0.00000680018952     0.00022392024583     0.00000198756086     0.00000084729964
   50     0.00023745943305     0.00041285416871     0.00778340194349     0.00003321553044     0.00003627227714
   51     0.00010464211758     0.00001052732482     0.00005238801920     0.00001634362656     0.00000237774298
   52     0.00001700976104     0.00000151239430     0.00002248030725     0.00000106228252     0.00000053939754
   53     0.00115788999170     0.00016964770990     0.00160182994711     0.00006289201031     0.00001833207258
   54     0.00039199974759     0.00033970613617     0.00023781280943     0.00006252083616     0.00002379036732
   55     0.01754032382231     0.00552213868723     0.00769435851771     0.00037724999975     0.00010046459485
   56     0.00000000000000     0.00838816303752     0.01383357721720     0.00636688645355     0.00134703158262
   57     0.00838816303752     0.00000000000000     0.02391142134862     0.00303515811379     0.00728031175735
   58     0.01383357721720     0.02391142134862     0.00000000000000     0.00088099882694     0.00106469120868
   59     0.00636688645355     0.00303515811379     0.00088099882694     0.00000000000000     0.03486046466937
   60     0.00134703158262     0.00728031175735     0.00106469120868     0.03486046466937     0.00000000000000
   61     0.00054426831702     0.00118370798265     0.00071164051391     0.03489819997287     0.03771036478186
   62     0.00038765400277     0.00117845756155     0.00089988207117     0.00308331069693     0.00118802350557
   63     0.00072686451237     0.00088561464347     0.00485831365869     0.00090671557825     0.00066587252940
   64     0.00591208345506     0.00039588753601     0.00086283588165     0.00678264520401     0.00054630589840
   65     0.00084093784364     0.00038081891612     0.00039384321190     0.00049681741009     0.00021770593287
   66     0.00000002489873     0.00000000302140     0.00000001930871     0.00000000162903     0.00000000051040
   67     0.00000001725057     0.00000000248393     0.00000001438906     0.00000000076370     0.00000000092279
   68     0.00000000136558     0.00000000063983     0.00000000448045     0.00000000062006     0.00000000022559

                61                  62                  63                  64                  65

    1     0.00001749643123     0.00000337823007     0.00003227547772     0.00001521071779     0.00000157590580
    2     0.00000633871182     0.00000517865220     0.00004862598301     0.00000174439311     0.00000050894239
    3     0.00000808124292     0.00000608663027     0.00002308868691     0.00000250311482     0.00000068434330
    4     0.00000724658633     0.00002298731529     0.00013052147205     0.00001849871418     0.00000171043953
    5     0.00000643063663     0.00003574094371     0.00068592088587     0.00002637166455     0.00000666474558
    6     0.00003040298412     0.00003397955727     0.00019869864751     0.00006813351384     0.00000866908920
    7     0.00000064453082     0.00000080002026     0.00000514944319     0.00000021734768     0.00000012602166
    8     0.00000022009663     0.00000014817319     0.00000082991154     0.00000017578910     0.00000003502568
    9     0.00000002532845     0.00000004720594     0.00000027567640     0.00000002496493     0.00000000687061
   10     0.00000004448758     0.00000002627900     0.00000031875328     0.00000002190100     0.00000001018936
   11     0.00000004271253     0.00000008583333     0.00000057119404     0.00000004758359     0.00000001549853
   12     0.00000027039803     0.00000066403149     0.00000125258680     0.00000020577977     0.00000005971334
   13     0.00000002777278     0.00000002525723     0.00000018616393     0.00000001260476     0.00000001951596
   14     0.00000002711958     0.00000024775791     0.00000090775708     0.00000019642262     0.00000014871692
   15     0.00000001939973     0.00000045359806     0.00000367118996     0.00000012551995     0.00000034546205
   16     0.00000001071712     0.00000009238853     0.00000154695576     0.00000009132189     0.00000023043191
   17     0.00000006691779     0.00000130570521     0.00001371138760     0.00000028079551     0.00000117669950
   18     0.00000014129414     0.00000173553197     0.00001617006720     0.00000041526406     0.00000323754405
   19     0.00000006162532     0.00000199453222     0.00001108531772     0.00000050549759     0.00000063509132
   20     0.00000026278674     0.00000535618908     0.00010754613112     0.00000468216078     0.00001935142127
   21     0.00000175843774     0.00001689622364     0.00025788678211     0.00002910434907     0.00004655537622
   22     0.00001523106897     0.00013950300724     0.00380742732320     0.00015464385358     0.00047049608587
   23     0.00002891066591     0.00026856686456     0.00901598341800     0.00073700230046     0.00090918798525
   24     0.00006992582167     0.00057377317064     0.01846105611232     0.00069122956682     0.00217598101800
   25     0.00008530251450     0.00100529592177     0.01473885392003     0.00118805937062     0.01144815952860
   26     0.00002951043472     0.00034008064580     0.00617040439875     0.00052410165698     0.01199515340758
   27     0.00001385478377     0.00014042888372     0.00297571299727     0.00026825121558     0.00206247703603
   28     0.00011126873016     0.00106899527738     0.00601254062492     0.01224918447295     0.01739968770000
   29     0.00060388105979     0.01130740808261     0.01184599626016     0.06259723620839     0.05609078572740
   30     0.00164072005296     0.00211878645033     0.00670013760650     0.02233025367551     0.01238798170565
   31     0.01252288559630     0.01348009843290     0.01710569028834     0.00792827009847     0.00240546929991
   32     0.06312179915103     0.05331035989158     0.05831756214609     0.01340094114061     0.01037845439981
   33     0.91992563948831     0.02183151834775     0.01160109241775     0.01378024293017     0.00152744832639
   34     0.01968119887187     0.85936518726329     0.79935048277865     0.04902930033563     0.05832228337932
   35     0.00361434680772     0.05699964026881     0.04379233561639     0.79181651415738     0.87738254019036
   36     0.00000052984451     0.00001144302366     0.00008456305282     0.00000244084594     0.00002035937278
   37     0.00000000329407     0.00000005376254     0.00000031463087     0.00000002660666     0.00000002675861
   38     0.00000288679306     0.00000047562410     0.00000227989052     0.00000351853261     0.00000025583228
   39     0.00000089209953     0.00000020515257     0.00000249261010     0.00000003480518     0.00000003913407
   40     0.00000048421755     0.00000448251794     0.00000852274665     0.00000235501187     0.00000023602422
   41     0.00000696755404     0.00000748764212     0.00003861173018     0.00002664528226     0.00000787007014
   42     0.00000005834536     0.00000002233453     0.00000048625992     0.00000000967952     0.00000000439467
   43     0.00000000094271     0.00000000146230     0.00000007100930     0.00000000283837     0.00000000083656
   44     0.00000000347189     0.00000000534415     0.00000001978498     0.00000000108527     0.00000000561126
   45     0.00000000127252     0.00000000419241     0.00000046457186     0.00000000657358     0.00000005317716
   46     0.00000001375845     0.00000019429306     0.00000325031819     0.00000005665987     0.00000033254221
   47     0.00000018908020     0.00000171706112     0.00000253989755     0.00000024107544     0.00000014562746
   48     0.00000030674662     0.00001186867818     0.00015751420391     0.00003145872952     0.00001152858538
   49     0.00000277874769     0.00003999385280     0.00080941428248     0.00006426018382     0.00004488003938
   50     0.00001382765468     0.00007203779625     0.00300302567361     0.00012096503530     0.00013976662494
   51     0.00000631670122     0.00002509823533     0.00052343496573     0.00007464483537     0.00323850768106
   52     0.00000183590376     0.00001150571265     0.00012546369192     0.00001153701525     0.00007185318721
   53     0.00001657183611     0.00018760104782     0.00059771922844     0.00100427247872     0.00091579860502
   54     0.00002556308392     0.00017709908531     0.00045945314268     0.00088739933930     0.00285120287778
   55     0.00025642255742     0.00056567508088     0.00028678739337     0.00098744136726     0.00128135913548
   56     0.00054426831702     0.00038765400277     0.00072686451237     0.00591208345506     0.00084093784364
   57     0.00118370798265     0.00117845756155     0.00088561464347     0.00039588753601     0.00038081891612
   58     0.00071164051391     0.00089988207117     0.00485831365869     0.00086283588165     0.00039384321190
   59     0.03489819997287     0.00308331069693     0.00090671557825     0.00678264520401     0.00049681741009
   60     0.03771036478186     0.00118802350557     0.00066587252940     0.00054630589840     0.00021770593287
   61     0.00000000000000     0.00692454613227     0.00100891119933     0.00140645629978     0.00012914808013
   62     0.00692454613227     0.00000000000000     0.02082738639250     0.00932846019568     0.00563622373757
   63     0.00100891119933     0.02082738639250     0.00000000000000     0.01764594721141     0.00800118739091
   64     0.00140645629978     0.00932846019568     0.01764594721141     0.00000000000000     0.02287615749593
   65     0.00012914808013     0.00563622373757     0.00800118739091     0.02287615749593     0.00000000000000
   66     0.00000000077172     0.00000001550405     0.00000009946078     0.00000000420514     0.00000001054603
   67     0.00000000068380     0.00000001158474     0.00000016729390     0.00000001348462     0.00000001043301
   68     0.00000000043777     0.00000000309641     0.00000002556092     0.00000000150045     0.00000000288386

                66                  67                  68

    1     0.00000075178409     0.00000098390016     0.00000026012556
    2     0.00000193248717     0.00000272334315     0.00000067527364
    3     0.00001172417134     0.00000978016920     0.00000380061005
    4     0.00000835467038     0.00000838744864     0.00000779533960
    5     0.00000056084005     0.00000073908787     0.00000043838031
    6     0.00000037718827     0.00000116123587     0.00000016226504
    7     0.00004436955860     0.00004370370810     0.00001435640788
    8     0.00007685620693     0.00010635004866     0.00000535057924
    9     0.00004211852039     0.00004009347389     0.00000426217486
   10     0.00025360441597     0.00029187668877     0.00003143845166
   11     0.00078033973118     0.00087798960867     0.00022883803032
   12     0.00026451594574     0.00028554432695     0.00006133741517
   13     0.00935597804134     0.00974396554732     0.00198999044940
   14     0.01642270464530     0.01657886636550     0.00894497764397
   15     0.05726930522221     0.05876685353960     0.05987746891958
   16     0.01496310021354     0.01517392368984     0.02381111305120
   17     0.00125520989371     0.00125764006832     0.00190615207388
   18     0.00289868681389     0.00284697792559     0.00055180862738
   19     0.00120187832750     0.00126674967934     0.00109697606001
   20     0.00036763933099     0.00033947828277     0.00008267254502
   21     0.00020862812552     0.00020831042458     0.00002996088215
   22     0.00001161219047     0.00001499188057     0.00000674805945
   23     0.00001418350252     0.00001424049516     0.00000284744043
   24     0.00000146154256     0.00000157344432     0.00000031924792
   25     0.00000600997846     0.00000582178564     0.00000024928634
   26     0.00000109266160     0.00000133892402     0.00000027481461
   27     0.00001074260317     0.00001242096912     0.00000149082971
   28     0.00000045606650     0.00000037031762     0.00000003659932
   29     0.00000029305427     0.00000030931518     0.00000001761558
   30     0.00000003121785     0.00000004137886     0.00000000805792
   31     0.00000001611636     0.00000002308440     0.00000001448464
   32     0.00000001327789     0.00000001121109     0.00000000522053
   33     0.00000000480124     0.00000000487008     0.00000000210658
   34     0.00000004368813     0.00000006623195     0.00000001918745
   35     0.00000005874401     0.00000008718355     0.00000000862659
   36     0.00012273899797     0.00012508692596     0.00001547117280
   37     0.91878779799241     0.91941085854862     0.92065620273255
   38     0.00000009088695     0.00000008943420     0.00000003848848
   39     0.00000028047341     0.00000026292935     0.00000009950264
   40     0.00000664107817     0.00000732239634     0.00000702718029
   41     0.00000005495966     0.00000005915918     0.00000003975892
   42     0.00000331799679     0.00000422760050     0.00000045103618
   43     0.00000282712610     0.00000292625703     0.00000063996091
   44     0.00499734535235     0.00404177665964     0.00102978737114
   45     0.00123255383978     0.00124232523269     0.00769817973056
   46     0.00020851948374     0.00021629611725     0.00012872992668
   47     0.00018068344587     0.00018378638919     0.00035003935458
   48     0.00003767377230     0.00004310936864     0.00003904494824
   49     0.00000444142423     0.00000407501566     0.00000105847752
   50     0.00000006280758     0.00000012413170     0.00000004803456
   51     0.00000019282766     0.00000012676723     0.00000007970817
   52     0.00000088633623     0.00000076910399     0.00000044355454
   53     0.00000006343463     0.00000008046230     0.00000001438216
   54     0.00000005954168     0.00000007239568     0.00000000791699
   55     0.00000000180776     0.00000000404939     0.00000000181023
   56     0.00000002489873     0.00000001725057     0.00000000136558
   57     0.00000000302140     0.00000000248393     0.00000000063983
   58     0.00000001930871     0.00000001438906     0.00000000448045
   59     0.00000000162903     0.00000000076370     0.00000000062006
   60     0.00000000051040     0.00000000092279     0.00000000022559
   61     0.00000000077172     0.00000000068380     0.00000000043777
   62     0.00000001550405     0.00000001158474     0.00000000309641
   63     0.00000009946078     0.00000016729390     0.00000002556092
   64     0.00000000420514     0.00000001348462     0.00000000150045
   65     0.00000001054603     0.00000001043301     0.00000000288386
   66     0.00000000000000     0.03543452793509     0.03903394553205
   67     0.03543452793509     0.00000000000000     0.03916308261411
   68     0.03903394553205     0.03916308261411     0.00000000000000



  Atomic Valences: 

 #  #
 Irrep: 1
      1:  4.3917203
      2:  4.4226991
      3:  4.6036135
      4:  4.5814584
      5:  3.9281953
      6:  4.5626207
      7:  4.7427816
      8:  4.3680527
      9:  4.5228109
     10:  3.8655196
     11:  5.0037373
     12:  3.9622791
     13:  4.0361852
     14:  4.6635501
     15:  4.6239576
     16:  4.4368149
     17:  4.4008993
     18:  4.6701972
     19:  4.4258443
     20:  4.0840731
     21:  5.0021949
     22:  4.6204242
     23:  4.4689886
     24:  4.4969745
     25:  4.7085377
     26:  4.4561757
     27:  4.4266209
     28:  4.4941242
     29:  4.2382666
     30:  4.5630665
     31:  4.6027613
     32:  4.2067742
     33:  4.2814000
     34:  4.5593296
     35:  4.5514810
     36:  2.7546802
     37:  4.1496632
     38:  1.0981207
     39:  1.1013209
     40:  1.1127504
     41:  1.1027930
     42:  1.1092825
     43:  1.0860670
     44:  1.1752764
     45:  1.0999022
     46:  1.1063989
     47:  1.1351614
     48:  1.1860497
     49:  1.1144424
     50:  1.1175573
     51:  1.1032206
     52:  1.0969128
     53:  1.1189050
     54:  1.1081863
     55:  1.0541256
     56:  1.0510835
     57:  1.0704624
     58:  1.1127749
     59:  1.1314682
     60:  1.1073245
     61:  1.1063970
     62:  1.0726578
     63:  1.0730691
     64:  1.0458379
     65:  1.1126050
     66:  1.1055295
     67:  1.1077846
     68:  1.1067864


    Psi4 stopped on: Tuesday, 14 April 2020 01:14PM
    Psi4 wall time for execution: 0:28:52.91

*** Psi4 exiting successfully. Buy a developer a beer!
