 Entering Gaussian System, Link 0=g09
 Input=MOLECULE0-opt-25-28-29-35-086.com
 Output=MOLECULE0-opt-25-28-29-35-086.log
 Initial command:
 /opt/g09gh/gaussian/g09/l1.exe /scratch/bdw2292/Gau-MOLECULE0/Gau-10279.inp -scrdir=/scratch/bdw2292/Gau-MOLECULE0/
 Entering Link 1 = /opt/g09gh/gaussian/g09/l1.exe PID=     10280.
  
 Copyright (c) 1988,1990,1992,1993,1995,1998,2003,2009, Gaussian, Inc.
                  All Rights Reserved.
  
 This is part of the Gaussian(R) 09 program.  It is based on
 the Gaussian(R) 03 system (copyright 2003, Gaussian, Inc.),
 the Gaussian(R) 98 system (copyright 1998, Gaussian, Inc.),
 the Gaussian(R) 94 system (copyright 1995, Gaussian, Inc.),
 the Gaussian 92(TM) system (copyright 1992, Gaussian, Inc.),
 the Gaussian 90(TM) system (copyright 1990, Gaussian, Inc.),
 the Gaussian 88(TM) system (copyright 1988, Gaussian, Inc.),
 the Gaussian 86(TM) system (copyright 1986, Carnegie Mellon
 University), and the Gaussian 82(TM) system (copyright 1983,
 Carnegie Mellon University). Gaussian is a federally registered
 trademark of Gaussian, Inc.
  
 This software contains proprietary and confidential information,
 including trade secrets, belonging to Gaussian, Inc.
  
 This software is provided under written license and may be
 used, copied, transmitted, or stored only in accord with that
 written license.
  
 The following legend is applicable only to US Government
 contracts under FAR:
  
                    RESTRICTED RIGHTS LEGEND
  
 Use, reproduction and disclosure by the US Government is
 subject to restrictions as set forth in subparagraphs (a)
 and (c) of the Commercial Computer Software - Restricted
 Rights clause in FAR 52.227-19.
  
 Gaussian, Inc.
 340 Quinnipiac St., Bldg. 40, Wallingford CT 06492
  
  
 ---------------------------------------------------------------
 Warning -- This program may not be used in any manner that
 competes with the business of Gaussian, Inc. or will provide
 assistance to any competitor of Gaussian, Inc.  The licensee
 of this program is prohibited from giving any competitor of
 Gaussian, Inc. access to this program.  By using this program,
 the user acknowledges that Gaussian, Inc. is engaged in the
 business of creating and licensing software in the field of
 computational chemistry and represents and warrants to the
 licensee that it is not a competitor of Gaussian, Inc. and that
 it will not use this program in any manner prohibited above.
 ---------------------------------------------------------------
  

 Cite this work as:
 Gaussian 09, Revision A.02,
 M. J. Frisch, G. W. Trucks, H. B. Schlegel, G. E. Scuseria, 
 M. A. Robb, J. R. Cheeseman, G. Scalmani, V. Barone, B. Mennucci, 
 G. A. Petersson, H. Nakatsuji, M. Caricato, X. Li, H. P. Hratchian, 
 A. F. Izmaylov, J. Bloino, G. Zheng, J. L. Sonnenberg, M. Hada, 
 M. Ehara, K. Toyota, R. Fukuda, J. Hasegawa, M. Ishida, T. Nakajima, 
 Y. Honda, O. Kitao, H. Nakai, T. Vreven, J. A. Montgomery, Jr., 
 J. E. Peralta, F. Ogliaro, M. Bearpark, J. J. Heyd, E. Brothers, 
 K. N. Kudin, V. N. Staroverov, R. Kobayashi, J. Normand, 
 K. Raghavachari, A. Rendell, J. C. Burant, S. S. Iyengar, J. Tomasi, 
 M. Cossi, N. Rega, J. M. Millam, M. Klene, J. E. Knox, J. B. Cross, 
 V. Bakken, C. Adamo, J. Jaramillo, R. Gomperts, R. E. Stratmann, 
 O. Yazyev, A. J. Austin, R. Cammi, C. Pomelli, J. W. Ochterski, 
 R. L. Martin, K. Morokuma, V. G. Zakrzewski, G. A. Voth, 
 P. Salvador, J. J. Dannenberg, S. Dapprich, A. D. Daniels, 
 O. Farkas, J. B. Foresman, J. V. Ortiz, J. Cioslowski, 
 and D. J. Fox, Gaussian, Inc., Wallingford CT, 2009.
 
 ******************************************
 Gaussian 09:  EM64L-G09RevA.02 11-Jun-2009
                11-Mar-2020 
 ******************************************
 %RWF=/scratch/bdw2292/Gau-MOLECULE0/,100GB
 %Nosave
 %Chk=MOLECULE0-opt-25-28-29-35-086.chk
 %Mem=20GB
 %Nproc=6
 Will use up to    6 processors via shared memory.
 --------------------------------------------------
 #P opt=(,maxcycle=400) wB97XD/6-31G* MaxDisk=100GB
 --------------------------------------------------
 1/6=400,14=-1,18=20,19=15,26=3,38=1/1,3;
 2/9=110,12=2,17=6,18=5,40=1/2;
 3/5=1,6=6,7=1,11=2,16=1,25=1,30=1,71=1,74=-58/1,2,3;
 4//1;
 5/5=2,38=5/2;
 6/7=2,8=2,9=2,10=2,28=1/1;
 7//1,2,3,16;
 1/6=400,14=-1,18=20,19=15/3(2);
 2/9=110/2;
 99//99;
 2/9=110/2;
 3/5=1,6=6,7=1,11=2,16=1,25=1,30=1,71=1,74=-58/1,2,3;
 4/5=5,16=3/1;
 5/5=2,38=5/2;
 7//1,2,3,16;
 1/6=400,14=-1,18=20,19=15/3(-5);
 2/9=110/2;
 6/7=2,8=2,9=2,10=2,19=2,28=1/1;
 99/9=1/99;
 Leave Link    1 at Wed Mar 11 00:05:05 2020, MaxMem= 2684354560 cpu:       0.2
 (Enter /opt/g09gh/gaussian/g09/l101.exe)
 -----------------------------------------------------------------
 MOLECULE0 Rotatable Bond Optimization on g2-node38.bme.utexas.edu
 -----------------------------------------------------------------
 Symbolic Z-matrix:
 Charge =  0 Multiplicity = 1
 C                     0.00163   4.64266  -1.23891 
 C                     1.31827   4.49431  -0.78169 
 C                     1.86539   3.20631  -0.6162 
 C                     1.01348   2.12809  -0.9631 
 N                    -0.2433    2.24797  -1.40969 
 C                    -0.73471   3.49     -1.53563 
 C                     3.26996   2.95353  -0.12518 
 C                     4.23573   3.9383    0.1366 
 C                     5.48665   3.46569   0.54952 
 N                     5.78887   2.18135   0.71818 
 C                     4.79245   1.30571   0.46955 
 N                     3.56927   1.65349   0.05991 
 N                     5.1055   -0.03047   0.67238 
 C                     4.37647  -1.25863   0.46609 
 C                     5.08453  -2.49752   0.41523 
 C                     4.32765  -3.66004   0.18898 
 C                     2.93785  -3.66734   0.02043 
 C                     2.25493  -2.44977   0.10448 
 C                     2.9838   -1.26967   0.3213 
 N                     0.8431   -2.26604  -0.03873 
 C                    -0.15133  -3.13245  -0.42738 
 C                    -1.51315  -2.53549  -0.72661 
 C                    -1.68422  -1.26965  -1.31268 
 C                    -2.96476  -0.76022  -1.53601 
 C                    -4.11665  -1.50143  -1.21153 
 C                    -3.93124  -2.77285  -0.63528 
 C                    -2.65371  -3.29064  -0.40753 
 C                    -5.51505  -0.91973  -1.42286 
 N                    -6.01303  -0.04434  -0.342 
 C                    -7.40141  -0.22117   0.13633 
 C                    -8.42841   0.64166  -0.64027 
 N                    -8.09086   2.0841   -0.71998 
 C                    -8.49765   2.90852   0.42457 
 C                    -6.68749   2.23924  -1.16856 
 C                    -5.65348   1.38988  -0.38722 
 O                     0.02534  -4.33825  -0.50634 
 C                     6.59211  -2.60608   0.56716 
 H                    -0.44279   5.6257   -1.36383 
 H                     1.88544   5.39142  -0.54591 
 H                     1.38009   1.10907  -0.90098 
 H                    -1.75919   3.56171  -1.89766 
 H                     4.07054   5.00095   0.00784 
 H                     6.29686   4.165     0.75428 
 H                     6.07509  -0.11346   0.93931 
 H                     4.836    -4.62171   0.12971 
 H                     2.39258  -4.58581  -0.15969 
 H                     2.46427  -0.32723   0.38453 
 H                     0.53263  -1.31566   0.1074 
 H                    -0.81385  -0.67338  -1.57723 
 H                    -3.05615   0.23356  -1.97419 
 H                    -4.79536  -3.3736   -0.35257 
 H                    -2.51964  -4.27423   0.03599 
 H                    -5.5402   -0.36446  -2.37127 
 H                    -6.22275  -1.75158  -1.54696 
 H                    -7.67197  -1.28353   0.14208 
 H                    -7.45905   0.25698   1.60917 
 H                    -9.47751   0.52199  -0.21701 
 H                    -8.4308    0.08991  -2.1024 
 H                    -7.95037   2.62116   1.32971 
 H                    -9.57167   2.79384   0.61045 
 H                    -8.30543   3.96712   0.21614 
 H                    -6.32804   3.58236  -1.07827 
 H                    -6.62425   1.82049  -2.60466 
 H                    -5.67668   1.92307   1.07087 
 H                    -4.70755   1.50998  -0.71634 
 H                     6.91701  -2.28903   1.56841 
 H                     7.1174   -1.97741  -0.16555 
 H                     6.96477  -3.62983   0.42429 
 
 NAtoms=     68 NQM=     68 NQMF=      0 NMic=      0 NMicF=      0 NTot=     68.
                    Isotopes and Nuclear Properties:
 (Nuclear quadrupole moments (NQMom) in fm**2, nuclear magnetic moments (NMagM)
  in nuclear magnetons)

  Atom         1           2           3           4           5           6           7           8           9          10
 IAtWgt=          12          12          12          12          14          12          12          12          12          14
 AtmWgt=  12.0000000  12.0000000  12.0000000  12.0000000  14.0030740  12.0000000  12.0000000  12.0000000  12.0000000  14.0030740
 NucSpn=           0           0           0           0           2           0           0           0           0           2
 AtZEff=   0.0000000   0.0000000   0.0000000   0.0000000   0.0000000   0.0000000   0.0000000   0.0000000   0.0000000   0.0000000
 NQMom=    0.0000000   0.0000000   0.0000000   0.0000000   2.0440000   0.0000000   0.0000000   0.0000000   0.0000000   2.0440000
 NMagM=    0.0000000   0.0000000   0.0000000   0.0000000   0.4037610   0.0000000   0.0000000   0.0000000   0.0000000   0.4037610

  Atom        11          12          13          14          15          16          17          18          19          20
 IAtWgt=          12          14          14          12          12          12          12          12          12          14
 AtmWgt=  12.0000000  14.0030740  14.0030740  12.0000000  12.0000000  12.0000000  12.0000000  12.0000000  12.0000000  14.0030740
 NucSpn=           0           2           2           0           0           0           0           0           0           2
 AtZEff=   0.0000000   0.0000000   0.0000000   0.0000000   0.0000000   0.0000000   0.0000000   0.0000000   0.0000000   0.0000000
 NQMom=    0.0000000   2.0440000   2.0440000   0.0000000   0.0000000   0.0000000   0.0000000   0.0000000   0.0000000   2.0440000
 NMagM=    0.0000000   0.4037610   0.4037610   0.0000000   0.0000000   0.0000000   0.0000000   0.0000000   0.0000000   0.4037610

  Atom        21          22          23          24          25          26          27          28          29          30
 IAtWgt=          12          12          12          12          12          12          12          12          14          12
 AtmWgt=  12.0000000  12.0000000  12.0000000  12.0000000  12.0000000  12.0000000  12.0000000  12.0000000  14.0030740  12.0000000
 NucSpn=           0           0           0           0           0           0           0           0           2           0
 AtZEff=   0.0000000   0.0000000   0.0000000   0.0000000   0.0000000   0.0000000   0.0000000   0.0000000   0.0000000   0.0000000
 NQMom=    0.0000000   0.0000000   0.0000000   0.0000000   0.0000000   0.0000000   0.0000000   0.0000000   2.0440000   0.0000000
 NMagM=    0.0000000   0.0000000   0.0000000   0.0000000   0.0000000   0.0000000   0.0000000   0.0000000   0.4037610   0.0000000

  Atom        31          32          33          34          35          36          37          38          39          40
 IAtWgt=          12          14          12          12          12          16          12           1           1           1
 AtmWgt=  12.0000000  14.0030740  12.0000000  12.0000000  12.0000000  15.9949146  12.0000000   1.0078250   1.0078250   1.0078250
 NucSpn=           0           2           0           0           0           0           0           1           1           1
 AtZEff=   0.0000000   0.0000000   0.0000000   0.0000000   0.0000000   0.0000000   0.0000000   0.0000000   0.0000000   0.0000000
 NQMom=    0.0000000   2.0440000   0.0000000   0.0000000   0.0000000   0.0000000   0.0000000   0.0000000   0.0000000   0.0000000
 NMagM=    0.0000000   0.4037610   0.0000000   0.0000000   0.0000000   0.0000000   0.0000000   2.7928460   2.7928460   2.7928460

  Atom        41          42          43          44          45          46          47          48          49          50
 IAtWgt=           1           1           1           1           1           1           1           1           1           1
 AtmWgt=   1.0078250   1.0078250   1.0078250   1.0078250   1.0078250   1.0078250   1.0078250   1.0078250   1.0078250   1.0078250
 NucSpn=           1           1           1           1           1           1           1           1           1           1
 AtZEff=   0.0000000   0.0000000   0.0000000   0.0000000   0.0000000   0.0000000   0.0000000   0.0000000   0.0000000   0.0000000
 NQMom=    0.0000000   0.0000000   0.0000000   0.0000000   0.0000000   0.0000000   0.0000000   0.0000000   0.0000000   0.0000000
 NMagM=    2.7928460   2.7928460   2.7928460   2.7928460   2.7928460   2.7928460   2.7928460   2.7928460   2.7928460   2.7928460

  Atom        51          52          53          54          55          56          57          58          59          60
 IAtWgt=           1           1           1           1           1           1           1           1           1           1
 AtmWgt=   1.0078250   1.0078250   1.0078250   1.0078250   1.0078250   1.0078250   1.0078250   1.0078250   1.0078250   1.0078250
 NucSpn=           1           1           1           1           1           1           1           1           1           1
 AtZEff=   0.0000000   0.0000000   0.0000000   0.0000000   0.0000000   0.0000000   0.0000000   0.0000000   0.0000000   0.0000000
 NQMom=    0.0000000   0.0000000   0.0000000   0.0000000   0.0000000   0.0000000   0.0000000   0.0000000   0.0000000   0.0000000
 NMagM=    2.7928460   2.7928460   2.7928460   2.7928460   2.7928460   2.7928460   2.7928460   2.7928460   2.7928460   2.7928460

  Atom        61          62          63          64          65          66          67          68
 IAtWgt=           1           1           1           1           1           1           1           1
 AtmWgt=   1.0078250   1.0078250   1.0078250   1.0078250   1.0078250   1.0078250   1.0078250   1.0078250
 NucSpn=           1           1           1           1           1           1           1           1
 AtZEff=   0.0000000   0.0000000   0.0000000   0.0000000   0.0000000   0.0000000   0.0000000   0.0000000
 NQMom=    0.0000000   0.0000000   0.0000000   0.0000000   0.0000000   0.0000000   0.0000000   0.0000000
 NMagM=    2.7928460   2.7928460   2.7928460   2.7928460   2.7928460   2.7928460   2.7928460   2.7928460
 Leave Link  101 at Wed Mar 11 00:05:06 2020, MaxMem= 2684354560 cpu:       0.6
 (Enter /opt/g09gh/gaussian/g09/l103.exe)

 GradGradGradGradGradGradGradGradGradGradGradGradGradGradGradGradGradGrad
 Berny optimization.
 Initialization pass.
                           ----------------------------
                           !    Initial Parameters    !
                           ! (Angstroms and Degrees)  !
 --------------------------                            --------------------------
 ! Name  Definition              Value          Derivative Info.                !
 --------------------------------------------------------------------------------
 ! R1    R(1,2)                  1.4016         estimate D2E/DX2                !
 ! R2    R(1,6)                  1.3996         estimate D2E/DX2                !
 ! R3    R(1,38)                 1.086          estimate D2E/DX2                !
 ! R4    R(2,3)                  1.4091         estimate D2E/DX2                !
 ! R5    R(2,39)                 1.0872         estimate D2E/DX2                !
 ! R6    R(3,4)                  1.4173         estimate D2E/DX2                !
 ! R7    R(3,7)                  1.5092         estimate D2E/DX2                !
 ! R8    R(4,5)                  1.3391         estimate D2E/DX2                !
 ! R9    R(4,40)                 1.0847         estimate D2E/DX2                !
 ! R10   R(5,6)                  1.3416         estimate D2E/DX2                !
 ! R11   R(6,41)                 1.0889         estimate D2E/DX2                !
 ! R12   R(7,8)                  1.4039         estimate D2E/DX2                !
 ! R13   R(7,12)                 1.3468         estimate D2E/DX2                !
 ! R14   R(8,9)                  1.3995         estimate D2E/DX2                !
 ! R15   R(8,42)                 1.0831         estimate D2E/DX2                !
 ! R16   R(9,10)                 1.3301         estimate D2E/DX2                !
 ! R17   R(9,43)                 1.0897         estimate D2E/DX2                !
 ! R18   R(10,11)                1.3496         estimate D2E/DX2                !
 ! R19   R(11,12)                1.336          estimate D2E/DX2                !
 ! R20   R(11,13)                1.3873         estimate D2E/DX2                !
 ! R21   R(13,14)                1.4431         estimate D2E/DX2                !
 ! R22   R(13,44)                1.0091         estimate D2E/DX2                !
 ! R23   R(14,15)                1.4279         estimate D2E/DX2                !
 ! R24   R(14,19)                1.4002         estimate D2E/DX2                !
 ! R25   R(15,16)                1.4055         estimate D2E/DX2                !
 ! R26   R(15,37)                1.5191         estimate D2E/DX2                !
 ! R27   R(16,17)                1.4            estimate D2E/DX2                !
 ! R28   R(16,45)                1.0894         estimate D2E/DX2                !
 ! R29   R(17,18)                1.3985         estimate D2E/DX2                !
 ! R30   R(17,46)                1.0832         estimate D2E/DX2                !
 ! R31   R(18,19)                1.4039         estimate D2E/DX2                !
 ! R32   R(18,20)                1.4309         estimate D2E/DX2                !
 ! R33   R(19,47)                1.078          estimate D2E/DX2                !
 ! R34   R(20,21)                1.375          estimate D2E/DX2                !
 ! R35   R(20,48)                1.0104         estimate D2E/DX2                !
 ! R36   R(21,22)                1.5167         estimate D2E/DX2                !
 ! R37   R(21,36)                1.2212         estimate D2E/DX2                !
 ! R38   R(22,23)                1.4054         estimate D2E/DX2                !
 ! R39   R(22,27)                1.4046         estimate D2E/DX2                !
 ! R40   R(23,24)                1.3961         estimate D2E/DX2                !
 ! R41   R(23,49)                1.0877         estimate D2E/DX2                !
 ! R42   R(24,25)                1.4077         estimate D2E/DX2                !
 ! R43   R(24,50)                1.0899         estimate D2E/DX2                !
 ! R44   R(25,26)                1.4082         estimate D2E/DX2                !
 ! R45   R(25,28)                1.5292         estimate D2E/DX2                !
 ! R46   R(26,27)                1.3972         estimate D2E/DX2                !
 ! R47   R(26,51)                1.0897         estimate D2E/DX2                !
 ! R48   R(27,52)                1.0873         estimate D2E/DX2                !
 ! R49   R(28,29)                1.4773         estimate D2E/DX2                !
 ! R50   R(28,53)                1.0993         estimate D2E/DX2                !
 ! R51   R(28,54)                1.0992         estimate D2E/DX2                !
 ! R52   R(29,30)                1.4791         estimate D2E/DX2                !
 ! R53   R(29,35)                1.4793         estimate D2E/DX2                !
 ! R54   R(30,31)                1.5499         estimate D2E/DX2                !
 ! R55   R(30,55)                1.0963         estimate D2E/DX2                !
 ! R56   R(30,56)                1.5496         estimate D2E/DX2                !
 ! R57   R(31,32)                1.4835         estimate D2E/DX2                !
 ! R58   R(31,57)                1.1376         estimate D2E/DX2                !
 ! R59   R(31,58)                1.5628         estimate D2E/DX2                !
 ! R60   R(32,33)                1.468          estimate D2E/DX2                !
 ! R61   R(32,34)                1.4815         estimate D2E/DX2                !
 ! R62   R(33,59)                1.0961         estimate D2E/DX2                !
 ! R63   R(33,60)                1.096          estimate D2E/DX2                !
 ! R64   R(33,61)                1.0959         estimate D2E/DX2                !
 ! R65   R(34,35)                1.5495         estimate D2E/DX2                !
 ! R66   R(34,62)                1.3933         estimate D2E/DX2                !
 ! R67   R(34,63)                1.4972         estimate D2E/DX2                !
 ! R68   R(35,64)                1.5527         estimate D2E/DX2                !
 ! R69   R(35,65)                1.0087         estimate D2E/DX2                !
 ! R70   R(37,66)                1.0994         estimate D2E/DX2                !
 ! R71   R(37,67)                1.0991         estimate D2E/DX2                !
 ! R72   R(37,68)                1.0988         estimate D2E/DX2                !
 ! A1    A(2,1,6)              118.4372         estimate D2E/DX2                !
 ! A2    A(2,1,38)             121.1796         estimate D2E/DX2                !
 ! A3    A(6,1,38)             120.3832         estimate D2E/DX2                !
 ! A4    A(1,2,3)              119.985          estimate D2E/DX2                !
 ! A5    A(1,2,39)             118.2575         estimate D2E/DX2                !
 ! A6    A(3,2,39)             121.7479         estimate D2E/DX2                !
 ! A7    A(2,3,4)              115.6734         estimate D2E/DX2                !
 ! A8    A(2,3,7)              123.5483         estimate D2E/DX2                !
 ! A9    A(4,3,7)              120.7715         estimate D2E/DX2                !
 ! A10   A(3,4,5)              125.2852         estimate D2E/DX2                !
 ! A11   A(3,4,40)             119.8353         estimate D2E/DX2                !
 ! A12   A(5,4,40)             114.8584         estimate D2E/DX2                !
 ! A13   A(4,5,6)              117.2533         estimate D2E/DX2                !
 ! A14   A(1,6,5)              123.3547         estimate D2E/DX2                !
 ! A15   A(1,6,41)             120.7457         estimate D2E/DX2                !
 ! A16   A(5,6,41)             115.8976         estimate D2E/DX2                !
 ! A17   A(3,7,8)              125.6886         estimate D2E/DX2                !
 ! A18   A(3,7,12)             114.4063         estimate D2E/DX2                !
 ! A19   A(8,7,12)             119.9051         estimate D2E/DX2                !
 ! A20   A(7,8,9)              115.6589         estimate D2E/DX2                !
 ! A21   A(7,8,42)             124.1325         estimate D2E/DX2                !
 ! A22   A(9,8,42)             120.1801         estimate D2E/DX2                !
 ! A23   A(8,9,10)             124.51           estimate D2E/DX2                !
 ! A24   A(8,9,43)             120.2187         estimate D2E/DX2                !
 ! A25   A(10,9,43)            115.271          estimate D2E/DX2                !
 ! A26   A(9,10,11)            115.8089         estimate D2E/DX2                !
 ! A27   A(10,11,12)           124.3011         estimate D2E/DX2                !
 ! A28   A(10,11,13)           115.5557         estimate D2E/DX2                !
 ! A29   A(12,11,13)           120.1426         estimate D2E/DX2                !
 ! A30   A(7,12,11)            119.7932         estimate D2E/DX2                !
 ! A31   A(11,13,14)           133.2229         estimate D2E/DX2                !
 ! A32   A(11,13,44)           109.5558         estimate D2E/DX2                !
 ! A33   A(14,13,44)           116.9515         estimate D2E/DX2                !
 ! A34   A(13,14,15)           119.5393         estimate D2E/DX2                !
 ! A35   A(13,14,19)           121.5984         estimate D2E/DX2                !
 ! A36   A(15,14,19)           118.8612         estimate D2E/DX2                !
 ! A37   A(14,15,16)           117.1512         estimate D2E/DX2                !
 ! A38   A(14,15,37)           123.4061         estimate D2E/DX2                !
 ! A39   A(16,15,37)           119.4334         estimate D2E/DX2                !
 ! A40   A(15,16,17)           123.9366         estimate D2E/DX2                !
 ! A41   A(15,16,45)           119.1838         estimate D2E/DX2                !
 ! A42   A(17,16,45)           116.8775         estimate D2E/DX2                !
 ! A43   A(16,17,18)           118.2273         estimate D2E/DX2                !
 ! A44   A(16,17,46)           121.6118         estimate D2E/DX2                !
 ! A45   A(18,17,46)           120.1574         estimate D2E/DX2                !
 ! A46   A(17,18,19)           119.182          estimate D2E/DX2                !
 ! A47   A(17,18,20)           125.9844         estimate D2E/DX2                !
 ! A48   A(19,18,20)           114.8205         estimate D2E/DX2                !
 ! A49   A(14,19,18)           122.6139         estimate D2E/DX2                !
 ! A50   A(14,19,47)           117.7995         estimate D2E/DX2                !
 ! A51   A(18,19,47)           119.5862         estimate D2E/DX2                !
 ! A52   A(18,20,21)           131.373          estimate D2E/DX2                !
 ! A53   A(18,20,48)           114.1714         estimate D2E/DX2                !
 ! A54   A(21,20,48)           114.2879         estimate D2E/DX2                !
 ! A55   A(20,21,22)           117.2013         estimate D2E/DX2                !
 ! A56   A(20,21,36)           122.3988         estimate D2E/DX2                !
 ! A57   A(22,21,36)           120.381          estimate D2E/DX2                !
 ! A58   A(21,22,23)           123.098          estimate D2E/DX2                !
 ! A59   A(21,22,27)           118.2068         estimate D2E/DX2                !
 ! A60   A(23,22,27)           118.6942         estimate D2E/DX2                !
 ! A61   A(22,23,24)           120.4646         estimate D2E/DX2                !
 ! A62   A(22,23,49)           119.8543         estimate D2E/DX2                !
 ! A63   A(24,23,49)           119.6707         estimate D2E/DX2                !
 ! A64   A(23,24,25)           121.4361         estimate D2E/DX2                !
 ! A65   A(23,24,50)           118.2884         estimate D2E/DX2                !
 ! A66   A(25,24,50)           120.2753         estimate D2E/DX2                !
 ! A67   A(24,25,26)           117.516          estimate D2E/DX2                !
 ! A68   A(24,25,28)           121.0732         estimate D2E/DX2                !
 ! A69   A(26,25,28)           121.3599         estimate D2E/DX2                !
 ! A70   A(25,26,27)           121.4478         estimate D2E/DX2                !
 ! A71   A(25,26,51)           119.9663         estimate D2E/DX2                !
 ! A72   A(27,26,51)           118.5854         estimate D2E/DX2                !
 ! A73   A(22,27,26)           120.4111         estimate D2E/DX2                !
 ! A74   A(22,27,52)           118.6131         estimate D2E/DX2                !
 ! A75   A(26,27,52)           120.9656         estimate D2E/DX2                !
 ! A76   A(25,28,29)           115.6283         estimate D2E/DX2                !
 ! A77   A(25,28,53)           109.4082         estimate D2E/DX2                !
 ! A78   A(25,28,54)           108.4501         estimate D2E/DX2                !
 ! A79   A(29,28,53)           108.9166         estimate D2E/DX2                !
 ! A80   A(29,28,54)           108.3001         estimate D2E/DX2                !
 ! A81   A(53,28,54)           105.6723         estimate D2E/DX2                !
 ! A82   A(28,29,30)           118.8279         estimate D2E/DX2                !
 ! A83   A(28,29,35)           118.0469         estimate D2E/DX2                !
 ! A84   A(30,29,35)           110.7289         estimate D2E/DX2                !
 ! A85   A(29,30,31)           113.1651         estimate D2E/DX2                !
 ! A86   A(29,30,55)           110.4392         estimate D2E/DX2                !
 ! A87   A(29,30,56)           107.7831         estimate D2E/DX2                !
 ! A88   A(31,30,55)           112.244          estimate D2E/DX2                !
 ! A89   A(31,30,56)           106.2492         estimate D2E/DX2                !
 ! A90   A(55,30,56)           106.5501         estimate D2E/DX2                !
 ! A91   A(30,31,32)           114.6714         estimate D2E/DX2                !
 ! A92   A(30,31,57)           111.474          estimate D2E/DX2                !
 ! A93   A(30,31,58)           105.858          estimate D2E/DX2                !
 ! A94   A(32,31,57)           109.3972         estimate D2E/DX2                !
 ! A95   A(32,31,58)           107.0588         estimate D2E/DX2                !
 ! A96   A(57,31,58)           108.0327         estimate D2E/DX2                !
 ! A97   A(31,32,33)           116.1726         estimate D2E/DX2                !
 ! A98   A(31,32,34)           109.4892         estimate D2E/DX2                !
 ! A99   A(33,32,34)           116.0883         estimate D2E/DX2                !
 ! A100  A(32,33,59)           110.9923         estimate D2E/DX2                !
 ! A101  A(32,33,60)           110.183          estimate D2E/DX2                !
 ! A102  A(32,33,61)           110.2171         estimate D2E/DX2                !
 ! A103  A(59,33,60)           108.7719         estimate D2E/DX2                !
 ! A104  A(59,33,61)           108.8279         estimate D2E/DX2                !
 ! A105  A(60,33,61)           107.7704         estimate D2E/DX2                !
 ! A106  A(32,34,35)           114.9632         estimate D2E/DX2                !
 ! A107  A(32,34,62)           109.0085         estimate D2E/DX2                !
 ! A108  A(32,34,63)           107.5267         estimate D2E/DX2                !
 ! A109  A(35,34,62)           108.8788         estimate D2E/DX2                !
 ! A110  A(35,34,63)           107.5876         estimate D2E/DX2                !
 ! A111  A(62,34,63)           108.7152         estimate D2E/DX2                !
 ! A112  A(29,35,34)           112.6224         estimate D2E/DX2                !
 ! A113  A(29,35,64)           107.4938         estimate D2E/DX2                !
 ! A114  A(29,35,65)           110.6911         estimate D2E/DX2                !
 ! A115  A(34,35,64)           105.9812         estimate D2E/DX2                !
 ! A116  A(34,35,65)           113.3264         estimate D2E/DX2                !
 ! A117  A(64,35,65)           106.2318         estimate D2E/DX2                !
 ! A118  A(15,37,66)           111.3319         estimate D2E/DX2                !
 ! A119  A(15,37,67)           111.5155         estimate D2E/DX2                !
 ! A120  A(15,37,68)           112.9644         estimate D2E/DX2                !
 ! A121  A(66,37,67)           107.515          estimate D2E/DX2                !
 ! A122  A(66,37,68)           106.6719         estimate D2E/DX2                !
 ! A123  A(67,37,68)           106.508          estimate D2E/DX2                !
 ! D1    D(6,1,2,3)             -0.7168         estimate D2E/DX2                !
 ! D2    D(6,1,2,39)          -179.609          estimate D2E/DX2                !
 ! D3    D(38,1,2,3)           179.3729         estimate D2E/DX2                !
 ! D4    D(38,1,2,39)            0.4807         estimate D2E/DX2                !
 ! D5    D(2,1,6,5)             -0.257          estimate D2E/DX2                !
 ! D6    D(2,1,6,41)          -179.7222         estimate D2E/DX2                !
 ! D7    D(38,1,6,5)           179.654          estimate D2E/DX2                !
 ! D8    D(38,1,6,41)            0.1889         estimate D2E/DX2                !
 ! D9    D(1,2,3,4)              1.1681         estimate D2E/DX2                !
 ! D10   D(1,2,3,7)           -179.7785         estimate D2E/DX2                !
 ! D11   D(39,2,3,4)          -179.9794         estimate D2E/DX2                !
 ! D12   D(39,2,3,7)            -0.9261         estimate D2E/DX2                !
 ! D13   D(2,3,4,5)             -0.7702         estimate D2E/DX2                !
 ! D14   D(2,3,4,40)           177.4734         estimate D2E/DX2                !
 ! D15   D(7,3,4,5)           -179.852          estimate D2E/DX2                !
 ! D16   D(7,3,4,40)            -1.6084         estimate D2E/DX2                !
 ! D17   D(2,3,7,8)             -4.7876         estimate D2E/DX2                !
 ! D18   D(2,3,7,12)           175.2626         estimate D2E/DX2                !
 ! D19   D(4,3,7,8)            174.2194         estimate D2E/DX2                !
 ! D20   D(4,3,7,12)            -5.7304         estimate D2E/DX2                !
 ! D21   D(3,4,5,6)             -0.1424         estimate D2E/DX2                !
 ! D22   D(40,4,5,6)          -178.4632         estimate D2E/DX2                !
 ! D23   D(4,5,6,1)              0.6801         estimate D2E/DX2                !
 ! D24   D(4,5,6,41)          -179.8309         estimate D2E/DX2                !
 ! D25   D(3,7,8,9)           -178.2567         estimate D2E/DX2                !
 ! D26   D(3,7,8,42)            -0.2041         estimate D2E/DX2                !
 ! D27   D(12,7,8,9)             1.6906         estimate D2E/DX2                !
 ! D28   D(12,7,8,42)          179.7432         estimate D2E/DX2                !
 ! D29   D(3,7,12,11)          178.7751         estimate D2E/DX2                !
 ! D30   D(8,7,12,11)           -1.1779         estimate D2E/DX2                !
 ! D31   D(7,8,9,10)            -0.9693         estimate D2E/DX2                !
 ! D32   D(7,8,9,43)           178.8278         estimate D2E/DX2                !
 ! D33   D(42,8,9,10)         -179.1047         estimate D2E/DX2                !
 ! D34   D(42,8,9,43)            0.6924         estimate D2E/DX2                !
 ! D35   D(8,9,10,11)           -0.2957         estimate D2E/DX2                !
 ! D36   D(43,9,10,11)         179.8982         estimate D2E/DX2                !
 ! D37   D(9,10,11,12)           0.9347         estimate D2E/DX2                !
 ! D38   D(9,10,11,13)        -178.7849         estimate D2E/DX2                !
 ! D39   D(10,11,12,7)          -0.2022         estimate D2E/DX2                !
 ! D40   D(13,11,12,7)         179.5053         estimate D2E/DX2                !
 ! D41   D(10,11,13,14)       -176.3797         estimate D2E/DX2                !
 ! D42   D(10,11,13,44)         -2.714          estimate D2E/DX2                !
 ! D43   D(12,11,13,14)          3.8882         estimate D2E/DX2                !
 ! D44   D(12,11,13,44)        177.5538         estimate D2E/DX2                !
 ! D45   D(11,13,14,15)        162.5371         estimate D2E/DX2                !
 ! D46   D(11,13,14,19)        -17.8458         estimate D2E/DX2                !
 ! D47   D(44,13,14,15)        -10.765          estimate D2E/DX2                !
 ! D48   D(44,13,14,19)        168.8521         estimate D2E/DX2                !
 ! D49   D(13,14,15,16)       -178.9255         estimate D2E/DX2                !
 ! D50   D(13,14,15,37)         -0.0484         estimate D2E/DX2                !
 ! D51   D(19,14,15,16)          1.4468         estimate D2E/DX2                !
 ! D52   D(19,14,15,37)       -179.676          estimate D2E/DX2                !
 ! D53   D(13,14,19,18)        179.2485         estimate D2E/DX2                !
 ! D54   D(13,14,19,47)         -0.9624         estimate D2E/DX2                !
 ! D55   D(15,14,19,18)         -1.1318         estimate D2E/DX2                !
 ! D56   D(15,14,19,47)        178.6573         estimate D2E/DX2                !
 ! D57   D(14,15,16,17)         -0.3338         estimate D2E/DX2                !
 ! D58   D(14,15,16,45)        179.1322         estimate D2E/DX2                !
 ! D59   D(37,15,16,17)       -179.2576         estimate D2E/DX2                !
 ! D60   D(37,15,16,45)          0.2084         estimate D2E/DX2                !
 ! D61   D(14,15,37,66)         64.3668         estimate D2E/DX2                !
 ! D62   D(14,15,37,67)        -55.7156         estimate D2E/DX2                !
 ! D63   D(14,15,37,68)       -175.6343         estimate D2E/DX2                !
 ! D64   D(16,15,37,66)       -116.7804         estimate D2E/DX2                !
 ! D65   D(16,15,37,67)        123.1373         estimate D2E/DX2                !
 ! D66   D(16,15,37,68)          3.2186         estimate D2E/DX2                !
 ! D67   D(15,16,17,18)         -1.1523         estimate D2E/DX2                !
 ! D68   D(15,16,17,46)        179.5265         estimate D2E/DX2                !
 ! D69   D(45,16,17,18)        179.3703         estimate D2E/DX2                !
 ! D70   D(45,16,17,46)          0.0491         estimate D2E/DX2                !
 ! D71   D(16,17,18,19)          1.4854         estimate D2E/DX2                !
 ! D72   D(16,17,18,20)       -179.9079         estimate D2E/DX2                !
 ! D73   D(46,17,18,19)       -179.1832         estimate D2E/DX2                !
 ! D74   D(46,17,18,20)         -0.5765         estimate D2E/DX2                !
 ! D75   D(17,18,19,14)         -0.3778         estimate D2E/DX2                !
 ! D76   D(17,18,19,47)        179.8367         estimate D2E/DX2                !
 ! D77   D(20,18,19,14)       -179.1356         estimate D2E/DX2                !
 ! D78   D(20,18,19,47)          1.0789         estimate D2E/DX2                !
 ! D79   D(17,18,20,21)         -8.3638         estimate D2E/DX2                !
 ! D80   D(17,18,20,48)        176.6941         estimate D2E/DX2                !
 ! D81   D(19,18,20,21)        170.2959         estimate D2E/DX2                !
 ! D82   D(19,18,20,48)         -4.6462         estimate D2E/DX2                !
 ! D83   D(18,20,21,22)       -168.5013         estimate D2E/DX2                !
 ! D84   D(18,20,21,36)         13.0728         estimate D2E/DX2                !
 ! D85   D(48,20,21,22)          6.4361         estimate D2E/DX2                !
 ! D86   D(48,20,21,36)       -171.9898         estimate D2E/DX2                !
 ! D87   D(20,21,22,23)         34.8754         estimate D2E/DX2                !
 ! D88   D(20,21,22,27)       -145.4774         estimate D2E/DX2                !
 ! D89   D(36,21,22,23)       -146.6653         estimate D2E/DX2                !
 ! D90   D(36,21,22,27)         32.982          estimate D2E/DX2                !
 ! D91   D(21,22,23,24)       -178.5239         estimate D2E/DX2                !
 ! D92   D(21,22,23,49)          0.3002         estimate D2E/DX2                !
 ! D93   D(27,22,23,24)          1.8305         estimate D2E/DX2                !
 ! D94   D(27,22,23,49)       -179.3455         estimate D2E/DX2                !
 ! D95   D(21,22,27,26)        178.5365         estimate D2E/DX2                !
 ! D96   D(21,22,27,52)         -0.3122         estimate D2E/DX2                !
 ! D97   D(23,22,27,26)         -1.8004         estimate D2E/DX2                !
 ! D98   D(23,22,27,52)        179.351          estimate D2E/DX2                !
 ! D99   D(22,23,24,25)         -1.3687         estimate D2E/DX2                !
 ! D100  D(22,23,24,50)        178.7883         estimate D2E/DX2                !
 ! D101  D(49,23,24,25)        179.8051         estimate D2E/DX2                !
 ! D102  D(49,23,24,50)         -0.0379         estimate D2E/DX2                !
 ! D103  D(23,24,25,26)          0.8122         estimate D2E/DX2                !
 ! D104  D(23,24,25,28)        178.2497         estimate D2E/DX2                !
 ! D105  D(50,24,25,26)       -179.348          estimate D2E/DX2                !
 ! D106  D(50,24,25,28)         -1.9104         estimate D2E/DX2                !
 ! D107  D(24,25,26,27)         -0.7827         estimate D2E/DX2                !
 ! D108  D(24,25,26,51)        178.945          estimate D2E/DX2                !
 ! D109  D(28,25,26,27)       -178.2125         estimate D2E/DX2                !
 ! D110  D(28,25,26,51)          1.5152         estimate D2E/DX2                !
 ! D111  D(24,25,28,29)        -83.2502         estimate D2E/DX2                !
 ! D112  D(24,25,28,53)         40.1337         estimate D2E/DX2                !
 ! D113  D(24,25,28,54)        154.9349         estimate D2E/DX2                !
 ! D114  D(26,25,28,29)         94.0883         estimate D2E/DX2                !
 ! D115  D(26,25,28,53)       -142.5278         estimate D2E/DX2                !
 ! D116  D(26,25,28,54)        -27.7266         estimate D2E/DX2                !
 ! D117  D(25,26,27,22)          1.3094         estimate D2E/DX2                !
 ! D118  D(25,26,27,52)       -179.8694         estimate D2E/DX2                !
 ! D119  D(51,26,27,22)       -178.422          estimate D2E/DX2                !
 ! D120  D(51,26,27,52)          0.3993         estimate D2E/DX2                !
 ! D121  D(25,28,29,30)       -135.1136         estimate D2E/DX2                !
 ! D122  D(25,28,29,35)         86.2093         estimate D2E/DX2                !
 ! D123  D(53,28,29,30)        101.2445         estimate D2E/DX2                !
 ! D124  D(53,28,29,35)        -37.4326         estimate D2E/DX2                !
 ! D125  D(54,28,29,30)        -13.2186         estimate D2E/DX2                !
 ! D126  D(54,28,29,35)       -151.8957         estimate D2E/DX2                !
 ! D127  D(28,29,30,31)        -89.783          estimate D2E/DX2                !
 ! D128  D(28,29,30,55)         37.0062         estimate D2E/DX2                !
 ! D129  D(28,29,30,56)        153.0322         estimate D2E/DX2                !
 ! D130  D(35,29,30,31)         51.6746         estimate D2E/DX2                !
 ! D131  D(35,29,30,55)        178.4638         estimate D2E/DX2                !
 ! D132  D(35,29,30,56)        -65.5103         estimate D2E/DX2                !
 ! D133  D(28,29,35,34)         89.9963         estimate D2E/DX2                !
 ! D134  D(28,29,35,64)       -153.6395         estimate D2E/DX2                !
 ! D135  D(28,29,35,65)        -38.0241         estimate D2E/DX2                !
 ! D136  D(30,29,35,34)        -51.7962         estimate D2E/DX2                !
 ! D137  D(30,29,35,64)         64.568          estimate D2E/DX2                !
 ! D138  D(30,29,35,65)       -179.8166         estimate D2E/DX2                !
 ! D139  D(29,30,31,32)        -52.2567         estimate D2E/DX2                !
 ! D140  D(29,30,31,57)       -177.2472         estimate D2E/DX2                !
 ! D141  D(29,30,31,58)         65.5232         estimate D2E/DX2                !
 ! D142  D(55,30,31,32)       -178.0863         estimate D2E/DX2                !
 ! D143  D(55,30,31,57)         56.9233         estimate D2E/DX2                !
 ! D144  D(55,30,31,58)        -60.3064         estimate D2E/DX2                !
 ! D145  D(56,30,31,32)         65.8248         estimate D2E/DX2                !
 ! D146  D(56,30,31,57)        -59.1656         estimate D2E/DX2                !
 ! D147  D(56,30,31,58)       -176.3952         estimate D2E/DX2                !
 ! D148  D(30,31,32,33)        -84.4752         estimate D2E/DX2                !
 ! D149  D(30,31,32,34)         49.4493         estimate D2E/DX2                !
 ! D150  D(57,31,32,33)         41.5989         estimate D2E/DX2                !
 ! D151  D(57,31,32,34)        175.5233         estimate D2E/DX2                !
 ! D152  D(58,31,32,33)        158.4282         estimate D2E/DX2                !
 ! D153  D(58,31,32,34)        -67.6473         estimate D2E/DX2                !
 ! D154  D(31,32,33,59)         65.7847         estimate D2E/DX2                !
 ! D155  D(31,32,33,60)        -54.7644         estimate D2E/DX2                !
 ! D156  D(31,32,33,61)       -173.5734         estimate D2E/DX2                !
 ! D157  D(34,32,33,59)        -65.1014         estimate D2E/DX2                !
 ! D158  D(34,32,33,60)        174.3495         estimate D2E/DX2                !
 ! D159  D(34,32,33,61)         55.5406         estimate D2E/DX2                !
 ! D160  D(31,32,34,35)        -50.0297         estimate D2E/DX2                !
 ! D161  D(31,32,34,62)       -172.5681         estimate D2E/DX2                !
 ! D162  D(31,32,34,63)         69.742          estimate D2E/DX2                !
 ! D163  D(33,32,34,35)         83.9376         estimate D2E/DX2                !
 ! D164  D(33,32,34,62)        -38.6008         estimate D2E/DX2                !
 ! D165  D(33,32,34,63)       -156.2907         estimate D2E/DX2                !
 ! D166  D(32,34,35,29)         53.0211         estimate D2E/DX2                !
 ! D167  D(32,34,35,64)        -64.2432         estimate D2E/DX2                !
 ! D168  D(32,34,35,65)        179.6442         estimate D2E/DX2                !
 ! D169  D(62,34,35,29)        175.6291         estimate D2E/DX2                !
 ! D170  D(62,34,35,64)         58.3649         estimate D2E/DX2                !
 ! D171  D(62,34,35,65)        -57.7478         estimate D2E/DX2                !
 ! D172  D(63,34,35,29)        -66.7169         estimate D2E/DX2                !
 ! D173  D(63,34,35,64)        176.0188         estimate D2E/DX2                !
 ! D174  D(63,34,35,65)         59.9062         estimate D2E/DX2                !
 --------------------------------------------------------------------------------
 Trust Radius=3.00D-01 FncErr=1.00D-07 GrdErr=1.00D-06
 Number of steps in this run= 400 maximum allowed number of steps= 408.
 GradGradGradGradGradGradGradGradGradGradGradGradGradGradGradGradGradGrad

 Leave Link  103 at Wed Mar 11 00:05:06 2020, MaxMem= 2684354560 cpu:       0.1
 (Enter /opt/g09gh/gaussian/g09/l202.exe)
 Stoichiometry    C29H31N7O
 Framework group  C1[X(C29H31N7O)]
 Deg. of freedom   198
 Full point group                 C1      NOp   1
 Largest Abelian subgroup         C1      NOp   1
 Largest concise Abelian subgroup C1      NOp   1
                         Standard orientation:                         
 ---------------------------------------------------------------------
 Center     Atomic      Atomic             Coordinates (Angstroms)
 Number     Number       Type             X           Y           Z
 ---------------------------------------------------------------------
      1          6           0        0.047231    4.536884   -0.790141
      2          6           0        1.402402    4.464080   -0.439685
      3          6           0        2.041610    3.211119   -0.355090
      4          6           0        1.235445    2.088181   -0.667784
      5          7           0       -0.057522    2.136252   -1.013074
      6          6           0       -0.635284    3.346051   -1.063890
      7          6           0        3.493542    3.039081    0.019198
      8          6           0        4.412265    4.078385    0.235546
      9          6           0        5.719202    3.678907    0.537203
     10          7           0        6.114768    2.413420    0.643813
     11          6           0        5.159657    1.480624    0.446172
     12          7           0        3.888509    1.757323    0.141939
     13          7           0        5.571973    0.163293    0.584457
     14          6           0        4.908619   -1.104630    0.398013
     15          6           0        5.687871   -2.292661    0.256142
     16          6           0        4.991069   -3.496429    0.053891
     17          6           0        3.595628   -3.590875   -0.007903
     18          6           0        2.845339   -2.423282    0.164484
     19          6           0        3.512416   -1.203576    0.360002
     20          7           0        1.417808   -2.329240    0.135331
     21          6           0        0.453116   -3.249215   -0.201736
     22          6           0       -0.963160   -2.735799   -0.377884
     23          6           0       -1.259768   -1.469779   -0.911089
     24          6           0       -2.583670   -1.040231   -1.020425
     25          6           0       -3.657129   -1.863373   -0.630981
     26          6           0       -3.346658   -3.133765   -0.108827
     27          6           0       -2.024885   -3.571976    0.004893
     28          6           0       -5.101936   -1.369761   -0.717182
     29          7           0       -5.568394   -0.556104    0.424280
     30          6           0       -6.900969   -0.835621    1.002005
     31          6           0       -8.038440   -0.023138    0.332410
     32          7           0       -7.800589    1.439893    0.270186
     33          6           0       -8.168093    2.207122    1.466614
     34          6           0       -6.449382    1.698025   -0.279681
     35          6           0       -5.305436    0.899321    0.394508
     36          8           0        0.699388   -4.438462   -0.329957
     37          6           0        7.206568   -2.305642    0.288900
     38          1           0       -0.467233    5.491387   -0.851265
     39          1           0        1.928087    5.390394   -0.221340
     40          1           0        1.669860    1.094236   -0.664356
     41          1           0       -1.687451    3.359233   -1.344127
     42          1           0        4.170240    5.130758    0.151596
     43          1           0        6.496837    4.424658    0.700117
     44          1           0        6.562805    0.137597    0.773785
     45          1           0        5.553345   -4.420843   -0.072800
     46          1           0        3.097443   -4.538439   -0.173095
     47          1           0        2.940552   -0.299181    0.490924
     48          1           0        1.059919   -1.405246    0.333106
     49          1           0       -0.452490   -0.811212   -1.223577
     50          1           0       -2.772122   -0.044026   -1.420460
     51          1           0       -4.146024   -3.796847    0.221140
     52          1           0       -1.794196   -4.555330    0.407283
     53          1           0       -5.236563   -0.793973   -1.643876
     54          1           0       -5.762840   -2.242989   -0.811508
     55          1           0       -7.102135   -1.913285    0.996731
     56          1           0       -6.873363   -0.399015    2.488552
     57          1           0       -9.041414   -0.221978    0.830980
     58          1           0       -8.120251   -0.537376   -1.141059
     59          1           0       -7.534429    1.933965    2.318225
     60          1           0       -9.214774    2.017529    1.730672
     61          1           0       -8.060507    3.280913    1.275776
     62          1           0       -6.170121    3.059212   -0.177122
     63          1           0       -6.472319    1.320125   -1.728263
     64          1           0       -5.248216    1.393466    1.865355
     65          1           0       -4.397746    1.089467   -0.002339
     66          1           0        7.588070   -1.992884    1.271358
     67          1           0        7.631799   -1.625809   -0.462781
     68          1           0        7.631245   -3.298822    0.087421
 ---------------------------------------------------------------------
 Rotational constants (GHZ):      0.1408189      0.0475249      0.0365095
 Leave Link  202 at Wed Mar 11 00:05:06 2020, MaxMem= 2684354560 cpu:       0.0
 (Enter /opt/g09gh/gaussian/g09/l301.exe)
 Standard basis: 6-31G(d) (6D, 7F)
 Ernie: Thresh=  0.10000D-02 Tol=  0.10000D-05 Strict=F.
 There are   617 symmetry adapted basis functions of A   symmetry.
 Integral buffers will be    131072 words long.
 Raffenetti 2 integral format.
 Two-electron integral symmetry is turned on.
   617 basis functions,  1160 primitive gaussians,   617 cartesian basis functions
   131 alpha electrons      131 beta electrons
       nuclear repulsion energy      3652.2911820470 Hartrees.
 IExCor= 4639 DFT=T Ex+Corr=wB97XD ExCW=0 ScaHFX=  1.000000
 ScaDFX=  1.000000  1.000000  1.000000  1.000000 ScalE2=  1.000000  1.000000
 IRadAn=      0 IRanWt=     -1 IRanGd=            0 ICorTp=0
  HFx wShort=  0.000000 wLong=  0.200000 cFull=  0.222036 cShort=  0.000000 cLong=  0.777964
  DFx wShort=  0.000000 wLong=  0.200000 cFull=  0.000000 cShort=  0.000000 cLong=  1.000000
 NAtoms=   68 NActive=   68 NUniq=   68 SFac= 7.50D-01 NAtFMM=   80 NAOKFM=F Big=T
 R6Disp: Dispersion energy =        -0.0546792799 Hartrees.
 Nuclear repulsion after empirical dispersion term =     3652.2365027671 Hartrees.
 Leave Link  301 at Wed Mar 11 00:05:06 2020, MaxMem= 2684354560 cpu:       0.4
 (Enter /opt/g09gh/gaussian/g09/l302.exe)
 NPDir=0 NMtPBC=     1 NCelOv=     1 NCel=       1 NClECP=     1 NCelD=      1
         NCelK=      1 NCelE2=     1 NClLst=     1 CellRange=     0.0.
 One-electron integrals computed using PRISM.
 NBasis=   617 RedAO= T  NBF=   617
 NBsUse=   617 1.00D-06 NBFU=   617
 Precomputing XC quadrature grid using
 IXCGrd= 2 IRadAn=           0 IRanWt=          -1 IRanGd=           0 AccXCQ= 1.00D-10.
 NRdTot=    4402 NPtTot=      563174 NUsed=      594885 NTot=      594917
 NSgBfM=   592   592   592   592   592 NAtAll=    68    68.
 Leave Link  302 at Wed Mar 11 00:05:07 2020, MaxMem= 2684354560 cpu:       7.3
 (Enter /opt/g09gh/gaussian/g09/l303.exe)
 DipDrv:  MaxL=1.
 Leave Link  303 at Wed Mar 11 00:05:07 2020, MaxMem= 2684354560 cpu:       0.8
 (Enter /opt/g09gh/gaussian/g09/l401.exe)
 Harris functional with IExCor= 4639 diagonalized for initial guess.
 ExpMin= 1.61D-01 ExpMax= 5.48D+03 ExpMxC= 8.25D+02 IAcc=1 IRadAn=         1 AccDes= 0.00D+00
 HarFok:  IExCor= 4639 AccDes= 0.00D+00 IRadAn=         1 IDoV= 1
 ScaDFX=  1.000000  1.000000  1.000000  1.000000
 FoFCou: FMM=F IPFlag=           0 FMFlag=      100000 FMFlg1=           1
         NFxFlg=           0 DoJE=T BraDBF=F KetDBF=T FulRan=T
         Omega=  0.000000  0.000000  1.000000  0.000000  0.000000 ICntrl=     500 IOpCl=  0
         NMat0=    1 NMatS0=    1 NMatT0=    0 NMatD0=    1 NMtDS0=    0 NMtDT0=    0
         I1Cent=           4 NGrid=           0.
 Petite list used in FoFCou.
 Harris En= -1512.37143905527    
 Initial guess orbital symmetries:
       Occupied  (A) (A) (A) (A) (A) (A) (A) (A) (A) (A) (A) (A)
                 (A) (A) (A) (A) (A) (A) (A) (A) (A) (A) (A) (A)
                 (A) (A) (A) (A) (A) (A) (A) (A) (A) (A) (A) (A)
                 (A) (A) (A) (A) (A) (A) (A) (A) (A) (A) (A) (A)
                 (A) (A) (A) (A) (A) (A) (A) (A) (A) (A) (A) (A)
                 (A) (A) (A) (A) (A) (A) (A) (A) (A) (A) (A) (A)
                 (A) (A) (A) (A) (A) (A) (A) (A) (A) (A) (A) (A)
                 (A) (A) (A) (A) (A) (A) (A) (A) (A) (A) (A) (A)
                 (A) (A) (A) (A) (A) (A) (A) (A) (A) (A) (A) (A)
                 (A) (A) (A) (A) (A) (A) (A) (A) (A) (A) (A) (A)
                 (A) (A) (A) (A) (A) (A) (A) (A) (A) (A) (A)
       Virtual   (A) (A) (A) (A) (A) (A) (A) (A) (A) (A) (A) (A)
                 (A) (A) (A) (A) (A) (A) (A) (A) (A) (A) (A) (A)
                 (A) (A) (A) (A) (A) (A) (A) (A) (A) (A) (A) (A)
                 (A) (A) (A) (A) (A) (A) (A) (A) (A) (A) (A) (A)
                 (A) (A) (A) (A) (A) (A) (A) (A) (A) (A) (A) (A)
                 (A) (A) (A) (A) (A) (A) (A) (A) (A) (A) (A) (A)
                 (A) (A) (A) (A) (A) (A) (A) (A) (A) (A) (A) (A)
                 (A) (A) (A) (A) (A) (A) (A) (A) (A) (A) (A) (A)
                 (A) (A) (A) (A) (A) (A) (A) (A) (A) (A) (A) (A)
                 (A) (A) (A) (A) (A) (A) (A) (A) (A) (A) (A) (A)
                 (A) (A) (A) (A) (A) (A) (A) (A) (A) (A) (A) (A)
                 (A) (A) (A) (A) (A) (A) (A) (A) (A) (A) (A) (A)
                 (A) (A) (A) (A) (A) (A) (A) (A) (A) (A) (A) (A)
                 (A) (A) (A) (A) (A) (A) (A) (A) (A) (A) (A) (A)
                 (A) (A) (A) (A) (A) (A) (A) (A) (A) (A) (A) (A)
                 (A) (A) (A) (A) (A) (A) (A) (A) (A) (A) (A) (A)
                 (A) (A) (A) (A) (A) (A) (A) (A) (A) (A) (A) (A)
                 (A) (A) (A) (A) (A) (A) (A) (A) (A) (A) (A) (A)
                 (A) (A) (A) (A) (A) (A) (A) (A) (A) (A) (A) (A)
                 (A) (A) (A) (A) (A) (A) (A) (A) (A) (A) (A) (A)
                 (A) (A) (A) (A) (A) (A) (A) (A) (A) (A) (A) (A)
                 (A) (A) (A) (A) (A) (A) (A) (A) (A) (A) (A) (A)
                 (A) (A) (A) (A) (A) (A) (A) (A) (A) (A) (A) (A)
                 (A) (A) (A) (A) (A) (A) (A) (A) (A) (A) (A) (A)
                 (A) (A) (A) (A) (A) (A) (A) (A) (A) (A) (A) (A)
                 (A) (A) (A) (A) (A) (A) (A) (A) (A) (A) (A) (A)
                 (A) (A) (A) (A) (A) (A) (A) (A) (A) (A) (A) (A)
                 (A) (A) (A) (A) (A) (A) (A) (A) (A) (A) (A) (A)
                 (A) (A) (A) (A) (A) (A) (A) (A) (A) (A) (A) (A)
                 (A) (A) (A) (A) (A) (A) (A) (A) (A) (A) (A) (A)
                 (A) (A) (A) (A) (A) (A) (A) (A) (A) (A) (A) (A)
                 (A) (A) (A) (A) (A) (A) (A) (A) (A) (A) (A) (A)
                 (A) (A) (A) (A) (A) (A) (A) (A) (A) (A) (A) (A)
                 (A) (A) (A) (A) (A) (A) (A) (A) (A) (A) (A) (A)
                 (A) (A) (A) (A) (A) (A) (A) (A) (A) (A) (A) (A)
                 (A) (A) (A) (A) (A) (A) (A) (A) (A) (A) (A) (A)
                 (A) (A) (A) (A) (A) (A) (A) (A) (A) (A) (A) (A)
                 (A) (A) (A) (A) (A) (A) (A) (A) (A) (A) (A) (A)
                 (A) (A) (A) (A) (A) (A) (A) (A) (A) (A) (A) (A)
                 (A) (A) (A) (A) (A) (A) (A) (A) (A) (A) (A) (A)
                 (A) (A) (A) (A) (A) (A)
 The electronic state of the initial guess is 1-A.
 Leave Link  401 at Wed Mar 11 00:05:10 2020, MaxMem= 2684354560 cpu:      14.0
 (Enter /opt/g09gh/gaussian/g09/l502.exe)
 Closed shell SCF:
 Requested convergence on RMS density matrix=1.00D-08 within 128 cycles.
 Requested convergence on MAX density matrix=1.00D-06.
 Requested convergence on             energy=1.00D-06.
 No special actions if energy rises.
 Using DIIS extrapolation, IDIIS=  1040.
 Integral symmetry usage will be decided dynamically.
       594260 words used for storage of precomputed grid.
 IEnd=     1762840 IEndB=     1762840 NGot=  2684354560 MDV=  2682989667
 LenX=  2682989667 LenY=  2682608361
 Fock matrices will be formed incrementally for  20 cycles.
 Integral accuracy reduced to 1.0D-05 until final iterations.

 Cycle   1  Pass 0  IDiag  1:
 FoFJK:  IHMeth= 1 ICntrl=     0 DoSepK=T KAlg= 1 I1Cent= 0 FoldK=F
 FoFCou: FMM=T IPFlag=           0 FMFlag=      100000 FMFlg1=           1
         NFxFlg=           0 DoJE=T BraDBF=F KetDBF=F FulRan=T
         Omega=  0.000000  0.000000  1.000000  0.000000  0.000000 ICntrl=     500 IOpCl=  0
         NMat0=    1 NMatS0=    1 NMatT0=    0 NMatD0=    1 NMtDS0=    0 NMtDT0=    0
         I1Cent=           0 NGrid=           0.
 Symmetry not used in FoFCou.
 FMM levels:  10  Number of levels for PrismC:   9
 E= -1581.12184868060    
 DIIS: error= 6.16D-02 at cycle   1 NSaved=   1.
 NSaved= 1 IEnMin= 1 EnMin= -1581.12184868060     IErMin= 1 ErrMin= 6.16D-02
 ErrMax= 6.16D-02 EMaxC= 1.00D-01 BMatC= 1.46D+00 BMatP= 1.46D+00
 IDIUse=3 WtCom= 3.84D-01 WtEn= 6.16D-01
 Coeff-Com:  0.100D+01
 Coeff-En:   0.100D+01
 Coeff:      0.100D+01
 Gap=     0.276 Goal=   None    Shift=    0.000
 GapD=    0.276 DampG=1.000 DampE=0.500 DampFc=0.5000 IDamp=-1.
 Damping current iteration by 5.00D-01
 RMSDP=1.88D-03 MaxDP=8.89D-02              OVMax= 1.71D-01

 Cycle   2  Pass 0  IDiag  1:
 RMSU=  6.65D-04    CP:  1.00D+00
 FoFJK:  IHMeth= 1 ICntrl=     0 DoSepK=T KAlg= 1 I1Cent= 0 FoldK=F
 E= -1581.29855728249     Delta-E=       -0.176708601886 Rises=F Damp=T
 DIIS: error= 2.72D-02 at cycle   2 NSaved=   2.
 NSaved= 2 IEnMin= 2 EnMin= -1581.29855728249     IErMin= 2 ErrMin= 2.72D-02
 ErrMax= 2.72D-02 EMaxC= 1.00D-01 BMatC= 3.22D-01 BMatP= 1.46D+00
 IDIUse=3 WtCom= 7.28D-01 WtEn= 2.72D-01
 Coeff-Com: -0.651D+00 0.165D+01
 Coeff-En:   0.000D+00 0.100D+01
 Coeff:     -0.474D+00 0.147D+01
 Gap=     0.279 Goal=   None    Shift=    0.000
 RMSDP=8.78D-04 MaxDP=3.84D-02 DE=-1.77D-01 OVMax= 1.22D-01

 Cycle   3  Pass 0  IDiag  1:
 RMSU=  5.69D-04    CP:  1.00D+00  1.37D+00
 FoFJK:  IHMeth= 1 ICntrl=     0 DoSepK=T KAlg= 1 I1Cent= 0 FoldK=F
 E= -1581.42646069933     Delta-E=       -0.127903416838 Rises=F Damp=F
 DIIS: error= 9.08D-03 at cycle   3 NSaved=   3.
 NSaved= 3 IEnMin= 3 EnMin= -1581.42646069933     IErMin= 3 ErrMin= 9.08D-03
 ErrMax= 9.08D-03 EMaxC= 1.00D-01 BMatC= 6.48D-02 BMatP= 3.22D-01
 IDIUse=3 WtCom= 9.09D-01 WtEn= 9.08D-02
 Coeff-Com: -0.367D+00 0.759D+00 0.608D+00
 Coeff-En:   0.000D+00 0.000D+00 0.100D+01
 Coeff:     -0.334D+00 0.690D+00 0.644D+00
 Gap=     0.266 Goal=   None    Shift=    0.000
 RMSDP=4.83D-04 MaxDP=3.28D-02 DE=-1.28D-01 OVMax= 6.39D-02

 Cycle   4  Pass 0  IDiag  1:
 RMSU=  1.44D-04    CP:  1.00D+00  1.67D+00  5.83D-01
 FoFJK:  IHMeth= 1 ICntrl=     0 DoSepK=T KAlg= 1 I1Cent= 0 FoldK=F
 E= -1581.48362317506     Delta-E=       -0.057162475730 Rises=F Damp=F
 DIIS: error= 2.28D-03 at cycle   4 NSaved=   4.
 NSaved= 4 IEnMin= 4 EnMin= -1581.48362317506     IErMin= 4 ErrMin= 2.28D-03
 ErrMax= 2.28D-03 EMaxC= 1.00D-01 BMatC= 4.20D-03 BMatP= 6.48D-02
 IDIUse=3 WtCom= 9.77D-01 WtEn= 2.28D-02
 Coeff-Com: -0.165D+00 0.337D+00 0.351D+00 0.477D+00
 Coeff-En:   0.000D+00 0.000D+00 0.000D+00 0.100D+01
 Coeff:     -0.162D+00 0.330D+00 0.343D+00 0.489D+00
 Gap=     0.260 Goal=   None    Shift=    0.000
 RMSDP=1.09D-04 MaxDP=9.32D-03 DE=-5.72D-02 OVMax= 1.06D-02

 Cycle   5  Pass 0  IDiag  1:
 RMSU=  4.63D-05    CP:  1.00D+00  1.65D+00  6.57D-01  7.07D-01
 FoFJK:  IHMeth= 1 ICntrl=     0 DoSepK=T KAlg= 1 I1Cent= 0 FoldK=F
 E= -1581.48729430785     Delta-E=       -0.003671132798 Rises=F Damp=F
 DIIS: error= 5.64D-04 at cycle   5 NSaved=   5.
 NSaved= 5 IEnMin= 5 EnMin= -1581.48729430785     IErMin= 5 ErrMin= 5.64D-04
 ErrMax= 5.64D-04 EMaxC= 1.00D-01 BMatC= 8.75D-05 BMatP= 4.20D-03
 IDIUse=3 WtCom= 9.94D-01 WtEn= 5.64D-03
 Coeff-Com: -0.143D-01 0.281D-01 0.516D-01 0.152D+00 0.782D+00
 Coeff-En:   0.000D+00 0.000D+00 0.000D+00 0.000D+00 0.100D+01
 Coeff:     -0.142D-01 0.280D-01 0.513D-01 0.151D+00 0.784D+00
 Gap=     0.259 Goal=   None    Shift=    0.000
 RMSDP=2.40D-05 MaxDP=2.56D-03 DE=-3.67D-03 OVMax= 2.95D-03

 Cycle   6  Pass 0  IDiag  1:
 RMSU=  1.29D-05    CP:  1.00D+00  1.66D+00  6.64D-01  7.74D-01  9.94D-01
 FoFJK:  IHMeth= 1 ICntrl=     0 DoSepK=T KAlg= 1 I1Cent= 0 FoldK=F
 E= -1581.48737970735     Delta-E=       -0.000085399502 Rises=F Damp=F
 DIIS: error= 2.64D-04 at cycle   6 NSaved=   6.
 NSaved= 6 IEnMin= 6 EnMin= -1581.48737970735     IErMin= 6 ErrMin= 2.64D-04
 ErrMax= 2.64D-04 EMaxC= 1.00D-01 BMatC= 2.64D-05 BMatP= 8.75D-05
 IDIUse=3 WtCom= 9.97D-01 WtEn= 2.64D-03
 Coeff-Com:  0.234D-01-0.483D-01-0.370D-01-0.149D-01 0.397D+00 0.680D+00
 Coeff-En:   0.000D+00 0.000D+00 0.000D+00 0.000D+00 0.000D+00 0.100D+01
 Coeff:      0.233D-01-0.482D-01-0.369D-01-0.149D-01 0.396D+00 0.681D+00
 Gap=     0.260 Goal=   None    Shift=    0.000
 RMSDP=1.28D-05 MaxDP=7.94D-04 DE=-8.54D-05 OVMax= 1.61D-03

 Cycle   7  Pass 0  IDiag  1:
 RMSU=  5.57D-06    CP:  1.00D+00  1.66D+00  6.67D-01  7.99D-01  1.11D+00
                    CP:  8.79D-01
 FoFJK:  IHMeth= 1 ICntrl=     0 DoSepK=T KAlg= 1 I1Cent= 0 FoldK=F
 E= -1581.48740870047     Delta-E=       -0.000028993117 Rises=F Damp=F
 DIIS: error= 5.49D-05 at cycle   7 NSaved=   7.
 NSaved= 7 IEnMin= 7 EnMin= -1581.48740870047     IErMin= 7 ErrMin= 5.49D-05
 ErrMax= 5.49D-05 EMaxC= 1.00D-01 BMatC= 1.64D-06 BMatP= 2.64D-05
 IDIUse=1 WtCom= 1.00D+00 WtEn= 0.00D+00
 Coeff-Com:  0.954D-02-0.195D-01-0.170D-01-0.193D-01 0.676D-01 0.237D+00
 Coeff-Com:  0.742D+00
 Coeff:      0.954D-02-0.195D-01-0.170D-01-0.193D-01 0.676D-01 0.237D+00
 Coeff:      0.742D+00
 Gap=     0.260 Goal=   None    Shift=    0.000
 RMSDP=3.96D-06 MaxDP=2.63D-04 DE=-2.90D-05 OVMax= 6.28D-04

 Initial convergence to 1.0D-05 achieved.  Increase integral accuracy.
 Cycle   8  Pass 1  IDiag  1:
 FoFJK:  IHMeth= 1 ICntrl=     0 DoSepK=T KAlg= 1 I1Cent= 0 FoldK=F
 E= -1581.48593379063     Delta-E=        0.001474909842 Rises=F Damp=F
 DIIS: error= 9.38D-05 at cycle   1 NSaved=   1.
 NSaved= 1 IEnMin= 1 EnMin= -1581.48593379063     IErMin= 1 ErrMin= 9.38D-05
 ErrMax= 9.38D-05 EMaxC= 1.00D-01 BMatC= 1.26D-05 BMatP= 1.26D-05
 IDIUse=1 WtCom= 1.00D+00 WtEn= 0.00D+00
 Coeff-Com:  0.100D+01
 Coeff:      0.100D+01
 Gap=     0.260 Goal=   None    Shift=    0.000
 RMSDP=3.96D-06 MaxDP=2.63D-04 DE= 1.47D-03 OVMax= 3.75D-04

 Cycle   9  Pass 1  IDiag  1:
 RMSU=  1.83D-05    CP:  1.00D+00
 FoFJK:  IHMeth= 1 ICntrl=     0 DoSepK=T KAlg= 1 I1Cent= 0 FoldK=F
 E= -1581.48594397063     Delta-E=       -0.000010180005 Rises=F Damp=F
 DIIS: error= 2.66D-05 at cycle   2 NSaved=   2.
 NSaved= 2 IEnMin= 2 EnMin= -1581.48594397063     IErMin= 2 ErrMin= 2.66D-05
 ErrMax= 2.66D-05 EMaxC= 1.00D-01 BMatC= 7.95D-07 BMatP= 1.26D-05
 IDIUse=1 WtCom= 1.00D+00 WtEn= 0.00D+00
 Coeff-Com:  0.422D-01 0.958D+00
 Coeff:      0.422D-01 0.958D+00
 Gap=     0.260 Goal=   None    Shift=    0.000
 RMSDP=3.15D-06 MaxDP=2.08D-04 DE=-1.02D-05 OVMax= 2.91D-04

 Cycle  10  Pass 1  IDiag  1:
 RMSU=  2.07D-06    CP:  1.00D+00  1.04D+00
 FoFJK:  IHMeth= 1 ICntrl=     0 DoSepK=T KAlg= 1 I1Cent= 0 FoldK=F
 E= -1581.48594408971     Delta-E=       -0.000000119073 Rises=F Damp=F
 DIIS: error= 3.83D-05 at cycle   3 NSaved=   3.
 NSaved= 3 IEnMin= 3 EnMin= -1581.48594408971     IErMin= 2 ErrMin= 2.66D-05
 ErrMax= 3.83D-05 EMaxC= 1.00D-01 BMatC= 8.74D-07 BMatP= 7.95D-07
 IDIUse=1 WtCom= 1.00D+00 WtEn= 0.00D+00
 Coeff-Com: -0.396D-01 0.526D+00 0.514D+00
 Coeff:     -0.396D-01 0.526D+00 0.514D+00
 Gap=     0.260 Goal=   None    Shift=    0.000
 RMSDP=1.56D-06 MaxDP=1.31D-04 DE=-1.19D-07 OVMax= 1.55D-04

 Cycle  11  Pass 1  IDiag  1:
 RMSU=  6.33D-07    CP:  1.00D+00  1.06D+00  5.78D-01
 FoFJK:  IHMeth= 1 ICntrl=     0 DoSepK=T KAlg= 1 I1Cent= 0 FoldK=F
 E= -1581.48594485800     Delta-E=       -0.000000768296 Rises=F Damp=F
 DIIS: error= 7.73D-06 at cycle   4 NSaved=   4.
 NSaved= 4 IEnMin= 4 EnMin= -1581.48594485800     IErMin= 4 ErrMin= 7.73D-06
 ErrMax= 7.73D-06 EMaxC= 1.00D-01 BMatC= 2.34D-08 BMatP= 7.95D-07
 IDIUse=1 WtCom= 1.00D+00 WtEn= 0.00D+00
 Coeff-Com: -0.175D-01 0.126D+00 0.183D+00 0.708D+00
 Coeff:     -0.175D-01 0.126D+00 0.183D+00 0.708D+00
 Gap=     0.260 Goal=   None    Shift=    0.000
 RMSDP=3.42D-07 MaxDP=3.38D-05 DE=-7.68D-07 OVMax= 3.37D-05

 Cycle  12  Pass 1  IDiag  1:
 RMSU=  2.18D-07    CP:  1.00D+00  1.06D+00  6.28D-01  1.01D+00
 FoFJK:  IHMeth= 1 ICntrl=     0 DoSepK=T KAlg= 1 I1Cent= 0 FoldK=F
 E= -1581.48594488019     Delta-E=       -0.000000022190 Rises=F Damp=F
 DIIS: error= 3.48D-06 at cycle   5 NSaved=   5.
 NSaved= 5 IEnMin= 5 EnMin= -1581.48594488019     IErMin= 5 ErrMin= 3.48D-06
 ErrMax= 3.48D-06 EMaxC= 1.00D-01 BMatC= 4.82D-09 BMatP= 2.34D-08
 IDIUse=1 WtCom= 1.00D+00 WtEn= 0.00D+00
 Coeff-Com: -0.358D-03-0.361D-01-0.935D-02 0.311D+00 0.735D+00
 Coeff:     -0.358D-03-0.361D-01-0.935D-02 0.311D+00 0.735D+00
 Gap=     0.260 Goal=   None    Shift=    0.000
 RMSDP=1.84D-07 MaxDP=1.44D-05 DE=-2.22D-08 OVMax= 2.43D-05

 Cycle  13  Pass 1  IDiag  1:
 RMSU=  8.49D-08    CP:  1.00D+00  1.06D+00  6.46D-01  1.15D+00  9.30D-01
 FoFJK:  IHMeth= 1 ICntrl=     0 DoSepK=T KAlg= 1 I1Cent= 0 FoldK=F
 E= -1581.48594488629     Delta-E=       -0.000000006097 Rises=F Damp=F
 DIIS: error= 8.99D-07 at cycle   6 NSaved=   6.
 NSaved= 6 IEnMin= 6 EnMin= -1581.48594488629     IErMin= 6 ErrMin= 8.99D-07
 ErrMax= 8.99D-07 EMaxC= 1.00D-01 BMatC= 5.93D-10 BMatP= 4.82D-09
 IDIUse=1 WtCom= 1.00D+00 WtEn= 0.00D+00
 Coeff-Com:  0.190D-02-0.293D-01-0.259D-01 0.390D-01 0.299D+00 0.716D+00
 Coeff:      0.190D-02-0.293D-01-0.259D-01 0.390D-01 0.299D+00 0.716D+00
 Gap=     0.260 Goal=   None    Shift=    0.000
 RMSDP=7.25D-08 MaxDP=3.17D-06 DE=-6.10D-09 OVMax= 1.21D-05

 Cycle  14  Pass 1  IDiag  1:
 RMSU=  3.43D-08    CP:  1.00D+00  1.06D+00  6.49D-01  1.19D+00  1.05D+00
                    CP:  9.99D-01
 FoFJK:  IHMeth= 1 ICntrl=     0 DoSepK=T KAlg= 1 I1Cent= 0 FoldK=F
 E= -1581.48594488726     Delta-E=       -0.000000000972 Rises=F Damp=F
 DIIS: error= 3.04D-07 at cycle   7 NSaved=   7.
 NSaved= 7 IEnMin= 7 EnMin= -1581.48594488726     IErMin= 7 ErrMin= 3.04D-07
 ErrMax= 3.04D-07 EMaxC= 1.00D-01 BMatC= 9.50D-11 BMatP= 5.93D-10
 IDIUse=1 WtCom= 1.00D+00 WtEn= 0.00D+00
 Coeff-Com:  0.780D-03-0.437D-02-0.876D-02-0.477D-01-0.238D-01 0.270D+00
 Coeff-Com:  0.813D+00
 Coeff:      0.780D-03-0.437D-02-0.876D-02-0.477D-01-0.238D-01 0.270D+00
 Coeff:      0.813D+00
 Gap=     0.260 Goal=   None    Shift=    0.000
 RMSDP=3.91D-08 MaxDP=1.41D-06 DE=-9.72D-10 OVMax= 6.54D-06

 Cycle  15  Pass 1  IDiag  1:
 RMSU=  1.34D-08    CP:  1.00D+00  1.06D+00  6.53D-01  1.21D+00  1.10D+00
                    CP:  1.19D+00  1.07D+00
 FoFJK:  IHMeth= 1 ICntrl=     0 DoSepK=T KAlg= 1 I1Cent= 0 FoldK=F
 E= -1581.48594488749     Delta-E=       -0.000000000231 Rises=F Damp=F
 DIIS: error= 1.25D-07 at cycle   8 NSaved=   8.
 NSaved= 8 IEnMin= 8 EnMin= -1581.48594488749     IErMin= 8 ErrMin= 1.25D-07
 ErrMax= 1.25D-07 EMaxC= 1.00D-01 BMatC= 1.43D-11 BMatP= 9.50D-11
 IDIUse=1 WtCom= 1.00D+00 WtEn= 0.00D+00
 Coeff-Com:  0.568D-05 0.270D-02 0.717D-03-0.217D-01-0.489D-01-0.101D-01
 Coeff-Com:  0.288D+00 0.789D+00
 Coeff:      0.568D-05 0.270D-02 0.717D-03-0.217D-01-0.489D-01-0.101D-01
 Coeff:      0.288D+00 0.789D+00
 Gap=     0.260 Goal=   None    Shift=    0.000
 RMSDP=1.53D-08 MaxDP=6.88D-07 DE=-2.31D-10 OVMax= 3.44D-06

 Cycle  16  Pass 1  IDiag  1:
 RMSU=  6.03D-09    CP:  1.00D+00  1.06D+00  6.53D-01  1.22D+00  1.11D+00
                    CP:  1.24D+00  1.24D+00  1.06D+00
 FoFJK:  IHMeth= 1 ICntrl=     0 DoSepK=T KAlg= 1 I1Cent= 0 FoldK=F
 E= -1581.48594488751     Delta-E=       -0.000000000020 Rises=F Damp=F
 DIIS: error= 6.79D-08 at cycle   9 NSaved=   9.
 NSaved= 9 IEnMin= 9 EnMin= -1581.48594488751     IErMin= 9 ErrMin= 6.79D-08
 ErrMax= 6.79D-08 EMaxC= 1.00D-01 BMatC= 3.03D-12 BMatP= 1.43D-11
 IDIUse=1 WtCom= 1.00D+00 WtEn= 0.00D+00
 Coeff-Com: -0.156D-03 0.188D-02 0.209D-02 0.188D-02-0.142D-01-0.649D-01
 Coeff-Com: -0.682D-01 0.297D+00 0.845D+00
 Coeff:     -0.156D-03 0.188D-02 0.209D-02 0.188D-02-0.142D-01-0.649D-01
 Coeff:     -0.682D-01 0.297D+00 0.845D+00
 Gap=     0.260 Goal=   None    Shift=    0.000
 RMSDP=7.68D-09 MaxDP=3.86D-07 DE=-2.00D-11 OVMax= 1.70D-06

 SCF Done:  E(RwB97XD) =  -1581.48594489     A.U. after   16 cycles
             Convg  =    0.7683D-08             -V/T =  2.0110
 KE= 1.564235410663D+03 PE=-1.097265878238D+04 EE= 4.174700924058D+03
 Leave Link  502 at Wed Mar 11 00:07:38 2020, MaxMem= 2684354560 cpu:     886.2
 (Enter /opt/g09gh/gaussian/g09/l601.exe)
 Copying SCF densities to generalized density rwf, IOpCl= 0 IROHF=0.

 **********************************************************************

            Population analysis using the SCF density.

 **********************************************************************

 Orbital symmetries:
       Occupied  (A) (A) (A) (A) (A) (A) (A) (A) (A) (A) (A) (A)
                 (A) (A) (A) (A) (A) (A) (A) (A) (A) (A) (A) (A)
                 (A) (A) (A) (A) (A) (A) (A) (A) (A) (A) (A) (A)
                 (A) (A) (A) (A) (A) (A) (A) (A) (A) (A) (A) (A)
                 (A) (A) (A) (A) (A) (A) (A) (A) (A) (A) (A) (A)
                 (A) (A) (A) (A) (A) (A) (A) (A) (A) (A) (A) (A)
                 (A) (A) (A) (A) (A) (A) (A) (A) (A) (A) (A) (A)
                 (A) (A) (A) (A) (A) (A) (A) (A) (A) (A) (A) (A)
                 (A) (A) (A) (A) (A) (A) (A) (A) (A) (A) (A) (A)
                 (A) (A) (A) (A) (A) (A) (A) (A) (A) (A) (A) (A)
                 (A) (A) (A) (A) (A) (A) (A) (A) (A) (A) (A)
       Virtual   (A) (A) (A) (A) (A) (A) (A) (A) (A) (A) (A) (A)
                 (A) (A) (A) (A) (A) (A) (A) (A) (A) (A) (A) (A)
                 (A) (A) (A) (A) (A) (A) (A) (A) (A) (A) (A) (A)
                 (A) (A) (A) (A) (A) (A) (A) (A) (A) (A) (A) (A)
                 (A) (A) (A) (A) (A) (A) (A) (A) (A) (A) (A) (A)
                 (A) (A) (A) (A) (A) (A) (A) (A) (A) (A) (A) (A)
                 (A) (A) (A) (A) (A) (A) (A) (A) (A) (A) (A) (A)
                 (A) (A) (A) (A) (A) (A) (A) (A) (A) (A) (A) (A)
                 (A) (A) (A) (A) (A) (A) (A) (A) (A) (A) (A) (A)
                 (A) (A) (A) (A) (A) (A) (A) (A) (A) (A) (A) (A)
                 (A) (A) (A) (A) (A) (A) (A) (A) (A) (A) (A) (A)
                 (A) (A) (A) (A) (A) (A) (A) (A) (A) (A) (A) (A)
                 (A) (A) (A) (A) (A) (A) (A) (A) (A) (A) (A) (A)
                 (A) (A) (A) (A) (A) (A) (A) (A) (A) (A) (A) (A)
                 (A) (A) (A) (A) (A) (A) (A) (A) (A) (A) (A) (A)
                 (A) (A) (A) (A) (A) (A) (A) (A) (A) (A) (A) (A)
                 (A) (A) (A) (A) (A) (A) (A) (A) (A) (A) (A) (A)
                 (A) (A) (A) (A) (A) (A) (A) (A) (A) (A) (A) (A)
                 (A) (A) (A) (A) (A) (A) (A) (A) (A) (A) (A) (A)
                 (A) (A) (A) (A) (A) (A) (A) (A) (A) (A) (A) (A)
                 (A) (A) (A) (A) (A) (A) (A) (A) (A) (A) (A) (A)
                 (A) (A) (A) (A) (A) (A) (A) (A) (A) (A) (A) (A)
                 (A) (A) (A) (A) (A) (A) (A) (A) (A) (A) (A) (A)
                 (A) (A) (A) (A) (A) (A) (A) (A) (A) (A) (A) (A)
                 (A) (A) (A) (A) (A) (A) (A) (A) (A) (A) (A) (A)
                 (A) (A) (A) (A) (A) (A) (A) (A) (A) (A) (A) (A)
                 (A) (A) (A) (A) (A) (A) (A) (A) (A) (A) (A) (A)
                 (A) (A) (A) (A) (A) (A) (A) (A) (A) (A) (A) (A)
                 (A) (A) (A) (A) (A) (A) (A) (A) (A) (A) (A) (A)
                 (A) (A) (A) (A) (A) (A) (A) (A) (A) (A) (A) (A)
                 (A) (A) (A) (A) (A) (A) (A) (A) (A) (A) (A) (A)
                 (A) (A) (A) (A) (A) (A) (A) (A) (A) (A) (A) (A)
                 (A) (A) (A) (A) (A) (A) (A) (A) (A) (A) (A) (A)
                 (A) (A) (A) (A) (A) (A) (A) (A) (A) (A) (A) (A)
                 (A) (A) (A) (A) (A) (A) (A) (A) (A) (A) (A) (A)
                 (A) (A) (A) (A) (A) (A) (A) (A) (A) (A) (A) (A)
                 (A) (A) (A) (A) (A) (A) (A) (A) (A) (A) (A) (A)
                 (A) (A) (A) (A) (A) (A) (A) (A) (A) (A) (A) (A)
                 (A) (A) (A) (A) (A) (A) (A) (A) (A) (A) (A) (A)
                 (A) (A) (A) (A) (A) (A) (A) (A) (A) (A) (A) (A)
                 (A) (A) (A) (A) (A) (A)
 The electronic state is 1-A.
 Alpha  occ. eigenvalues --  -19.23329 -14.49483 -14.48821 -14.46672 -14.46168
 Alpha  occ. eigenvalues --  -14.46100 -14.46036 -14.45804 -10.42093 -10.40433
 Alpha  occ. eigenvalues --  -10.38524 -10.38259 -10.36920 -10.36585 -10.36454
 Alpha  occ. eigenvalues --  -10.35756 -10.35696 -10.35345 -10.35178 -10.34957
 Alpha  occ. eigenvalues --  -10.34369 -10.34225 -10.33957 -10.32960 -10.32249
 Alpha  occ. eigenvalues --  -10.32109 -10.31647 -10.31495 -10.31364 -10.30944
 Alpha  occ. eigenvalues --  -10.30628 -10.30625 -10.30568 -10.30320 -10.30149
 Alpha  occ. eigenvalues --  -10.29668 -10.29100  -1.13418  -1.11580  -1.05655
 Alpha  occ. eigenvalues --   -1.03828  -1.03686  -1.02978  -1.00142  -1.00020
 Alpha  occ. eigenvalues --   -0.95737  -0.94488  -0.92509  -0.89403  -0.87929
 Alpha  occ. eigenvalues --   -0.87154  -0.86353  -0.84530  -0.84229  -0.83816
 Alpha  occ. eigenvalues --   -0.81846  -0.79552  -0.78042  -0.77948  -0.75990
 Alpha  occ. eigenvalues --   -0.73445  -0.72978  -0.72486  -0.71969  -0.70816
 Alpha  occ. eigenvalues --   -0.70087  -0.69737  -0.68084  -0.66215  -0.64680
 Alpha  occ. eigenvalues --   -0.63227  -0.62251  -0.61615  -0.60740  -0.59856
 Alpha  occ. eigenvalues --   -0.58602  -0.58595  -0.57087  -0.56611  -0.56116
 Alpha  occ. eigenvalues --   -0.55876  -0.55594  -0.54740  -0.54357  -0.53897
 Alpha  occ. eigenvalues --   -0.53358  -0.53152  -0.52759  -0.52117  -0.51830
 Alpha  occ. eigenvalues --   -0.51429  -0.51348  -0.51042  -0.50651  -0.50261
 Alpha  occ. eigenvalues --   -0.50178  -0.49971  -0.49827  -0.49491  -0.48444
 Alpha  occ. eigenvalues --   -0.47392  -0.47276  -0.46490  -0.46444  -0.46112
 Alpha  occ. eigenvalues --   -0.45695  -0.44703  -0.44071  -0.43824  -0.43470
 Alpha  occ. eigenvalues --   -0.43071  -0.42910  -0.41798  -0.41456  -0.41403
 Alpha  occ. eigenvalues --   -0.40116  -0.38500  -0.38003  -0.37330  -0.35707
 Alpha  occ. eigenvalues --   -0.35314  -0.35140  -0.33713  -0.33633  -0.33312
 Alpha  occ. eigenvalues --   -0.32759  -0.31899  -0.31539  -0.29390  -0.27442
 Alpha  occ. eigenvalues --   -0.26652
 Alpha virt. eigenvalues --   -0.00672   0.02803   0.03282   0.04548   0.06428
 Alpha virt. eigenvalues --    0.06820   0.07304   0.07696   0.09962   0.10238
 Alpha virt. eigenvalues --    0.10863   0.12462   0.14041   0.14328   0.14453
 Alpha virt. eigenvalues --    0.15935   0.17058   0.17138   0.18381   0.19039
 Alpha virt. eigenvalues --    0.19511   0.19832   0.20385   0.21001   0.21280
 Alpha virt. eigenvalues --    0.21911   0.22732   0.23076   0.23180   0.23727
 Alpha virt. eigenvalues --    0.24122   0.24301   0.24706   0.25159   0.25266
 Alpha virt. eigenvalues --    0.25500   0.25781   0.26108   0.26640   0.27111
 Alpha virt. eigenvalues --    0.27675   0.27782   0.28027   0.28201   0.28659
 Alpha virt. eigenvalues --    0.29247   0.29548   0.29910   0.30550   0.31187
 Alpha virt. eigenvalues --    0.31603   0.31869   0.32720   0.32920   0.33345
 Alpha virt. eigenvalues --    0.33764   0.34683   0.35559   0.35987   0.37560
 Alpha virt. eigenvalues --    0.37756   0.38163   0.38425   0.39153   0.39584
 Alpha virt. eigenvalues --    0.39990   0.40820   0.41298   0.41393   0.42031
 Alpha virt. eigenvalues --    0.43433   0.44917   0.45332   0.46292   0.47037
 Alpha virt. eigenvalues --    0.47923   0.49659   0.51691   0.52661   0.53505
 Alpha virt. eigenvalues --    0.55413   0.56036   0.57023   0.57254   0.58309
 Alpha virt. eigenvalues --    0.58422   0.59467   0.59542   0.59783   0.60067
 Alpha virt. eigenvalues --    0.60491   0.61033   0.61554   0.62081   0.62172
 Alpha virt. eigenvalues --    0.62684   0.62981   0.63290   0.63644   0.63979
 Alpha virt. eigenvalues --    0.64677   0.64790   0.64950   0.65182   0.65426
 Alpha virt. eigenvalues --    0.65666   0.66081   0.66418   0.66481   0.66902
 Alpha virt. eigenvalues --    0.66916   0.67204   0.67477   0.67999   0.68336
 Alpha virt. eigenvalues --    0.69035   0.69286   0.69401   0.70188   0.70352
 Alpha virt. eigenvalues --    0.70663   0.70725   0.71043   0.71081   0.71264
 Alpha virt. eigenvalues --    0.72226   0.72292   0.72841   0.73008   0.73797
 Alpha virt. eigenvalues --    0.74250   0.74649   0.75259   0.75774   0.76163
 Alpha virt. eigenvalues --    0.77090   0.77228   0.77638   0.77889   0.78513
 Alpha virt. eigenvalues --    0.79175   0.80634   0.81039   0.81771   0.82163
 Alpha virt. eigenvalues --    0.82565   0.83149   0.83519   0.83744   0.84762
 Alpha virt. eigenvalues --    0.85194   0.85958   0.86431   0.86561   0.87083
 Alpha virt. eigenvalues --    0.87724   0.88831   0.89273   0.89462   0.89746
 Alpha virt. eigenvalues --    0.90042   0.90749   0.91361   0.91751   0.92282
 Alpha virt. eigenvalues --    0.92496   0.92954   0.93022   0.93481   0.93666
 Alpha virt. eigenvalues --    0.94148   0.94387   0.94722   0.95149   0.95407
 Alpha virt. eigenvalues --    0.96081   0.96871   0.97182   0.97369   0.97682
 Alpha virt. eigenvalues --    0.98343   0.98834   0.99031   0.99248   0.99665
 Alpha virt. eigenvalues --    1.00704   1.01282   1.01921   1.02549   1.02592
 Alpha virt. eigenvalues --    1.03256   1.04652   1.05176   1.05564   1.06153
 Alpha virt. eigenvalues --    1.06675   1.06828   1.07715   1.08010   1.08578
[...]
                 (A) (A) (A) (A) (A) (A) (A) (A) (A) (A) (A) (A)
                 (A) (A) (A) (A) (A) (A) (A) (A) (A) (A) (A) (A)
                 (A) (A) (A) (A) (A) (A) (A) (A) (A) (A) (A) (A)
                 (A) (A) (A) (A) (A) (A) (A) (A) (A) (A) (A) (A)
                 (A) (A) (A) (A) (A) (A) (A) (A) (A) (A) (A) (A)
                 (A) (A) (A) (A) (A) (A) (A) (A) (A) (A) (A) (A)
                 (A) (A) (A) (A) (A) (A) (A) (A) (A) (A) (A) (A)
                 (A) (A) (A) (A) (A) (A) (A) (A) (A) (A) (A) (A)
                 (A) (A) (A) (A) (A) (A) (A) (A) (A) (A) (A) (A)
                 (A) (A) (A) (A) (A) (A) (A) (A) (A) (A) (A) (A)
                 (A) (A) (A) (A) (A) (A) (A) (A) (A) (A) (A) (A)
                 (A) (A) (A) (A) (A) (A) (A) (A) (A) (A) (A) (A)
                 (A) (A) (A) (A) (A) (A) (A) (A) (A) (A) (A) (A)
                 (A) (A) (A) (A) (A) (A) (A) (A) (A) (A) (A) (A)
                 (A) (A) (A) (A) (A) (A) (A) (A) (A) (A) (A) (A)
                 (A) (A) (A) (A) (A) (A) (A) (A) (A) (A) (A) (A)
                 (A) (A) (A) (A) (A) (A) (A) (A) (A) (A) (A) (A)
                 (A) (A) (A) (A) (A) (A) (A) (A) (A) (A) (A) (A)
                 (A) (A) (A) (A) (A) (A) (A) (A) (A) (A) (A) (A)
                 (A) (A) (A) (A) (A) (A) (A) (A) (A) (A) (A) (A)
                 (A) (A) (A) (A) (A) (A) (A) (A) (A) (A) (A) (A)
                 (A) (A) (A) (A) (A) (A) (A) (A) (A) (A) (A) (A)
                 (A) (A) (A) (A) (A) (A) (A) (A) (A) (A) (A) (A)
                 (A) (A) (A) (A) (A) (A) (A) (A) (A) (A) (A) (A)
                 (A) (A) (A) (A) (A) (A) (A) (A) (A) (A) (A) (A)
                 (A) (A) (A) (A) (A) (A) (A) (A) (A) (A) (A) (A)
                 (A) (A) (A) (A) (A) (A) (A) (A) (A) (A) (A) (A)
                 (A) (A) (A) (A) (A) (A) (A) (A) (A) (A) (A) (A)
                 (A) (A) (A) (A) (A) (A) (A) (A) (A) (A) (A) (A)
                 (A) (A) (A) (A) (A) (A) (A) (A) (A) (A) (A) (A)
                 (A) (A) (A) (A) (A) (A) (A) (A) (A) (A) (A) (A)
                 (A) (A) (A) (A) (A) (A) (A) (A) (A) (A) (A) (A)
                 (A) (A) (A) (A) (A) (A) (A) (A) (A) (A) (A) (A)
                 (A) (A) (A) (A) (A) (A)
 The electronic state is 1-A.
 Alpha  occ. eigenvalues --  -19.23157 -14.49128 -14.48281 -14.46603 -14.45982
 Alpha  occ. eigenvalues --  -14.45623 -14.43981 -14.43582 -10.41641 -10.39921
 Alpha  occ. eigenvalues --  -10.37508 -10.36238 -10.35179 -10.34891 -10.34526
 Alpha  occ. eigenvalues --  -10.34035 -10.33978 -10.33488 -10.32739 -10.32324
 Alpha  occ. eigenvalues --  -10.31758 -10.31457 -10.31351 -10.31232 -10.31032
 Alpha  occ. eigenvalues --  -10.30985 -10.30672 -10.30559 -10.30282 -10.30275
 Alpha  occ. eigenvalues --  -10.29955 -10.29787 -10.29727 -10.29440 -10.29336
 Alpha  occ. eigenvalues --  -10.28823 -10.28225  -1.13295  -1.12192  -1.06193
 Alpha  occ. eigenvalues --   -1.04437  -1.04368  -1.03418  -1.00606  -0.99923
 Alpha  occ. eigenvalues --   -0.95688  -0.94558  -0.92983  -0.89650  -0.87971
 Alpha  occ. eigenvalues --   -0.87275  -0.86222  -0.85511  -0.84126  -0.83659
 Alpha  occ. eigenvalues --   -0.81594  -0.79581  -0.78169  -0.77971  -0.76215
 Alpha  occ. eigenvalues --   -0.73736  -0.73442  -0.72822  -0.72523  -0.71148
 Alpha  occ. eigenvalues --   -0.69932  -0.69368  -0.67930  -0.66241  -0.65045
 Alpha  occ. eigenvalues --   -0.63795  -0.63203  -0.62023  -0.61690  -0.59965
 Alpha  occ. eigenvalues --   -0.58712  -0.58436  -0.57518  -0.56511  -0.55968
 Alpha  occ. eigenvalues --   -0.55707  -0.55216  -0.55115  -0.54965  -0.54203
 Alpha  occ. eigenvalues --   -0.53877  -0.53511  -0.53006  -0.52281  -0.52067
 Alpha  occ. eigenvalues --   -0.51680  -0.51422  -0.51133  -0.50850  -0.50614
 Alpha  occ. eigenvalues --   -0.50342  -0.49978  -0.49642  -0.49465  -0.48073
 Alpha  occ. eigenvalues --   -0.47668  -0.47140  -0.46761  -0.46489  -0.46049
 Alpha  occ. eigenvalues --   -0.45859  -0.45513  -0.44378  -0.43822  -0.43295
 Alpha  occ. eigenvalues --   -0.43170  -0.42749  -0.41927  -0.41849  -0.41525
 Alpha  occ. eigenvalues --   -0.41184  -0.40713  -0.39881  -0.38086  -0.37468
 Alpha  occ. eigenvalues --   -0.35660  -0.35149  -0.33891  -0.33274  -0.33180
 Alpha  occ. eigenvalues --   -0.32639  -0.31970  -0.31135  -0.29039  -0.27003
 Alpha  occ. eigenvalues --   -0.25680
 Alpha virt. eigenvalues --   -0.00249   0.03014   0.03659   0.04707   0.07082
 Alpha virt. eigenvalues --    0.07448   0.08503   0.10470   0.14823   0.15098
 Alpha virt. eigenvalues --    0.15584   0.16320   0.17435   0.17465   0.18664
 Alpha virt. eigenvalues --    0.19707   0.19899   0.20356   0.20440   0.21663
 Alpha virt. eigenvalues --    0.21930   0.22128   0.22500   0.22782   0.23333
 Alpha virt. eigenvalues --    0.23498   0.23611   0.24333   0.24483   0.24681
 Alpha virt. eigenvalues --    0.24961   0.25308   0.25659   0.26198   0.26471
 Alpha virt. eigenvalues --    0.27024   0.27288   0.27537   0.28171   0.28457
 Alpha virt. eigenvalues --    0.28692   0.29130   0.29619   0.29784   0.30260
 Alpha virt. eigenvalues --    0.31104   0.31441   0.31884   0.32090   0.32323
 Alpha virt. eigenvalues --    0.32856   0.33184   0.33375   0.34025   0.34171
 Alpha virt. eigenvalues --    0.34615   0.34945   0.36022   0.36368   0.36886
 Alpha virt. eigenvalues --    0.38505   0.38694   0.38839   0.39583   0.40386
 Alpha virt. eigenvalues --    0.41334   0.41573   0.42174   0.43036   0.43396
 Alpha virt. eigenvalues --    0.43686   0.45203   0.46686   0.47314   0.47766
 Alpha virt. eigenvalues --    0.48609   0.50202   0.52634   0.53100   0.54514
 Alpha virt. eigenvalues --    0.56041   0.56613   0.57210   0.58434   0.58892
 Alpha virt. eigenvalues --    0.59358   0.59683   0.60159   0.60284   0.60859
 Alpha virt. eigenvalues --    0.61426   0.62259   0.62462   0.62930   0.63104
 Alpha virt. eigenvalues --    0.63397   0.63506   0.64223   0.64270   0.64864
 Alpha virt. eigenvalues --    0.64999   0.65366   0.65625   0.65714   0.65967
 Alpha virt. eigenvalues --    0.66402   0.66576   0.66737   0.67113   0.67301
 Alpha virt. eigenvalues --    0.67786   0.68059   0.68428   0.68837   0.69251
 Alpha virt. eigenvalues --    0.69690   0.70048   0.70444   0.70850   0.71253
 Alpha virt. eigenvalues --    0.71337   0.71684   0.71886   0.72856   0.73022
 Alpha virt. eigenvalues --    0.73183   0.73343   0.73536   0.74612   0.75064
 Alpha virt. eigenvalues --    0.75173   0.75766   0.76066   0.76417   0.77522
 Alpha virt. eigenvalues --    0.77763   0.78563   0.79742   0.80591   0.80885
 Alpha virt. eigenvalues --    0.81391   0.81793   0.82346   0.83287   0.84316
 Alpha virt. eigenvalues --    0.84741   0.85758   0.86042   0.87055   0.87757
 Alpha virt. eigenvalues --    0.88051   0.88224   0.88801   0.89562   0.89882
 Alpha virt. eigenvalues --    0.90632   0.90763   0.91409   0.91774   0.92534
 Alpha virt. eigenvalues --    0.92897   0.93029   0.93218   0.93697   0.94064
 Alpha virt. eigenvalues --    0.94218   0.94425   0.94659   0.94718   0.95129
 Alpha virt. eigenvalues --    0.95497   0.95951   0.96645   0.96988   0.97319
 Alpha virt. eigenvalues --    0.97905   0.98317   0.98979   0.99209   0.99527
 Alpha virt. eigenvalues --    1.00372   1.00692   1.01348   1.01454   1.02047
 Alpha virt. eigenvalues --    1.02275   1.02956   1.03689   1.04066   1.04755
 Alpha virt. eigenvalues --    1.05477   1.05872   1.06106   1.06660   1.07489
 Alpha virt. eigenvalues --    1.07770   1.08139   1.08372   1.08644   1.09032
 Alpha virt. eigenvalues --    1.09243   1.09738   1.10745   1.11458   1.11882
 Alpha virt. eigenvalues --    1.12164   1.12519   1.13967   1.14420   1.14592
 Alpha virt. eigenvalues --    1.15816   1.16585   1.17204   1.17649   1.19072
 Alpha virt. eigenvalues --    1.20413   1.21188   1.22310   1.22928   1.23526
 Alpha virt. eigenvalues --    1.24008   1.25684   1.26093   1.26820   1.28041
 Alpha virt. eigenvalues --    1.28870   1.29333   1.29844   1.30340   1.30710
 Alpha virt. eigenvalues --    1.31159   1.32888   1.33572   1.34019   1.34534
 Alpha virt. eigenvalues --    1.35680   1.36907   1.37372   1.37888   1.38384
 Alpha virt. eigenvalues --    1.39541   1.40006   1.43581   1.44053   1.45064
 Alpha virt. eigenvalues --    1.46444   1.46714   1.47543   1.48222   1.48818
 Alpha virt. eigenvalues --    1.49030   1.49192   1.49533   1.51247   1.52014
 Alpha virt. eigenvalues --    1.52588   1.52808   1.53316   1.54093   1.54231
 Alpha virt. eigenvalues --    1.54753   1.55139   1.55657   1.56277   1.56989
 Alpha virt. eigenvalues --    1.57126   1.57650   1.58038   1.58174   1.59254
 Alpha virt. eigenvalues --    1.59625   1.60129   1.61414   1.62021   1.62633
 Alpha virt. eigenvalues --    1.64158   1.65185   1.65469   1.66512   1.66584
 Alpha virt. eigenvalues --    1.68153   1.69985   1.72143   1.75502   1.76307
 Alpha virt. eigenvalues --    1.78680   1.80577   1.82290   1.83507   1.84954
 Alpha virt. eigenvalues --    1.85099   1.85952   1.86591   1.86812   1.87721
 Alpha virt. eigenvalues --    1.87838   1.88101   1.89358   1.90146   1.90883
 Alpha virt. eigenvalues --    1.91618   1.91980   1.92613   1.92743   1.94066
 Alpha virt. eigenvalues --    1.94399   1.94778   1.95151   1.95666   1.97563
 Alpha virt. eigenvalues --    1.98505   1.99555   1.99597   2.00806   2.00985
 Alpha virt. eigenvalues --    2.01676   2.01769   2.02127   2.02604   2.03237
 Alpha virt. eigenvalues --    2.03873   2.05682   2.06255   2.06303   2.07407
 Alpha virt. eigenvalues --    2.08630   2.08954   2.09631   2.10223   2.12312
 Alpha virt. eigenvalues --    2.12416   2.13029   2.13445   2.14758   2.14963
 Alpha virt. eigenvalues --    2.15561   2.16130   2.16833   2.19583   2.19811
 Alpha virt. eigenvalues --    2.20346   2.20605   2.21281   2.22533   2.22670
 Alpha virt. eigenvalues --    2.22801   2.23114   2.24038   2.24173   2.25039
 Alpha virt. eigenvalues --    2.25465   2.25995   2.26252   2.27006   2.27288
 Alpha virt. eigenvalues --    2.28033   2.29185   2.29475   2.31736   2.32695
 Alpha virt. eigenvalues --    2.33661   2.34115   2.34680   2.35172   2.37012
 Alpha virt. eigenvalues --    2.37679   2.37912   2.38665   2.39185   2.40237
 Alpha virt. eigenvalues --    2.40861   2.41313   2.42101   2.42564   2.43263
 Alpha virt. eigenvalues --    2.43544   2.44070   2.44462   2.45066   2.45530
 Alpha virt. eigenvalues --    2.45900   2.47507   2.48432   2.49528   2.49933
 Alpha virt. eigenvalues --    2.50523   2.51687   2.52223   2.53662   2.56437
 Alpha virt. eigenvalues --    2.58828   2.60027   2.61737   2.61909   2.63906
 Alpha virt. eigenvalues --    2.64827   2.65563   2.65829   2.66147   2.68187
 Alpha virt. eigenvalues --    2.68792   2.70035   2.70634   2.71898   2.72308
 Alpha virt. eigenvalues --    2.74028   2.74479   2.75326   2.76009   2.76151
 Alpha virt. eigenvalues --    2.76508   2.77249   2.78925   2.81711   2.82090
 Alpha virt. eigenvalues --    2.82836   2.83194   2.84494   2.85071   2.85355
 Alpha virt. eigenvalues --    2.85965   2.86586   2.87017   2.87908   2.88430
 Alpha virt. eigenvalues --    2.89404   2.90695   2.92584   2.94188   2.94647
 Alpha virt. eigenvalues --    2.94987   2.96436   2.98993   3.03657   3.04541
 Alpha virt. eigenvalues --    3.05078   3.07144   3.09695   3.10177   3.13410
 Alpha virt. eigenvalues --    3.18927   3.28021   3.29623   3.39179   3.41522
 Alpha virt. eigenvalues --    3.44793   3.54220   3.56491   3.57690   4.13404
 Alpha virt. eigenvalues --    4.15196   4.15770   4.18236   4.18574   4.19138
 Alpha virt. eigenvalues --    4.19506   4.20793   4.22156   4.23000   4.23225
 Alpha virt. eigenvalues --    4.25037   4.26055   4.27501   4.30296   4.31774
 Alpha virt. eigenvalues --    4.32379   4.33939   4.36802   4.39432   4.40310
 Alpha virt. eigenvalues --    4.41888   4.44393   4.44545   4.46434   4.49012
 Alpha virt. eigenvalues --    4.50065   4.54599   4.55495   4.57543   4.61132
 Alpha virt. eigenvalues --    4.62220   4.67483   4.68973   4.79170   4.84463
 Alpha virt. eigenvalues --    4.89567
          Condensed to atoms (all electrons):
 Mulliken atomic charges:
              1
     1  C   -0.198608
     2  C   -0.155441
     3  C    0.033870
     4  C    0.007610
     5  N   -0.435242
     6  C    0.031694
     7  C    0.297133
     8  C   -0.253909
     9  C    0.047964
    10  N   -0.492514
    11  C    0.708972
    12  N   -0.568220
    13  N   -0.795680
    14  C    0.287674
    15  C    0.120510
    16  C   -0.239974
    17  C   -0.190353
    18  C    0.354645
    19  C   -0.264125
    20  N   -0.766777
    21  C    0.597988
    22  C    0.018185
    23  C   -0.211496
    24  C   -0.228183
    25  C    0.114970
    26  C   -0.195480
    27  C   -0.183663
    28  C   -0.219591
    29  N   -0.401020
    30  C   -0.185378
    31  C   -0.187072
    32  N   -0.385144
    33  C   -0.350558
    34  C   -0.186527
    35  C   -0.193019
    36  O   -0.516842
    37  C   -0.607133
    38  H    0.186189
    39  H    0.185497
    40  H    0.201619
    41  H    0.181937
    42  H    0.180055
    43  H    0.188931
    44  H    0.368657
    45  H    0.160521
    46  H    0.216158
    47  H    0.193183
    48  H    0.358680
    49  H    0.186762
    50  H    0.165265
    51  H    0.183172
    52  H    0.196158
    53  H    0.136876
    54  H    0.178410
    55  H    0.158854
    56  H    0.163644
    57  H    0.158649
    58  H    0.160858
    59  H    0.136511
    60  H    0.168232
    61  H    0.168880
    62  H    0.159520
    63  H    0.158725
    64  H    0.162579
    65  H    0.175185
    66  H    0.177527
    67  H    0.183326
    68  H    0.190176
 Sum of Mulliken atomic charges =   0.00000
 Mulliken charges with hydrogens summed into heavy atoms:
              1
     1  C   -0.012419
     2  C    0.030056
     3  C    0.033870
     4  C    0.209229
     5  N   -0.435242
     6  C    0.213631
     7  C    0.297133
     8  C   -0.073854
     9  C    0.236896
    10  N   -0.492514
    11  C    0.708972
    12  N   -0.568220
    13  N   -0.427023
    14  C    0.287674
    15  C    0.120510
    16  C   -0.079453
    17  C    0.025805
    18  C    0.354645
    19  C   -0.070942
    20  N   -0.408097
    21  C    0.597988
    22  C    0.018185
    23  C   -0.024734
    24  C   -0.062918
    25  C    0.114970
    26  C   -0.012308
    27  C    0.012495
    28  C    0.095695
    29  N   -0.401020
    30  C    0.137119
    31  C    0.132435
    32  N   -0.385144
    33  C    0.123064
    34  C    0.131718
    35  C    0.144744
    36  O   -0.516842
    37  C   -0.056103
 Sum of Mulliken charges with hydrogens summed into heavy atoms =   0.00000
 Electronic spatial extent (au):  <R**2>=          27479.0091
 Charge=              0.0000 electrons
 Dipole moment (field-independent basis, Debye):
    X=              0.6177    Y=              6.3865    Z=              1.0065  Tot=              6.4947
 Quadrupole moment (field-independent basis, Debye-Ang):
   XX=           -182.4195   YY=           -204.7093   ZZ=           -218.5672
   XY=              7.6620   XZ=              1.9587   YZ=             -4.8063
 Traceless Quadrupole moment (field-independent basis, Debye-Ang):
   XX=             19.4791   YY=             -2.8106   ZZ=            -16.6685
   XY=              7.6620   XZ=              1.9587   YZ=             -4.8063
 Octapole moment (field-independent basis, Debye-Ang**2):
  XXX=            -25.2142  YYY=            171.3771  ZZZ=             14.0014  XYY=            110.2514
  XXY=            -35.5779  XXZ=             -1.8350  XZZ=            -41.8176  YZZ=              0.7126
  YYZ=              9.5351  XYZ=             10.4124
 Hexadecapole moment (field-independent basis, Debye-Ang**3):
 XXXX=         -26250.3582 YYYY=          -7382.3544 ZZZZ=          -1123.5690 XXXY=             98.6567
 XXXZ=             80.1603 YYYX=            315.3623 YYYZ=            -56.0306 ZZZX=            -61.4432
 ZZZY=             29.8153 XXYY=          -5654.6532 XXZZ=          -4820.1109 YYZZ=          -1599.4158
 XXYZ=            -82.2162 YYXZ=             52.6758 ZZXY=            -28.4559
 N-N= 3.711590395878D+03 E-N=-1.109495063966D+04  KE= 1.567150487429D+03
 No NMR shielding tensors so no spin-rotation constants.
 Leave Link  601 at Wed Mar 11 01:35:38 2020, MaxMem= 2684354560 cpu:       2.8
 (Enter /opt/g09gh/gaussian/g09/l9999.exe)
 1\1\GINC-NODE40\FOpt\RwB97XD\6-31G(d)\C29H31N7O1\BDW2292\11-Mar-2020\0
 \\#P opt=(,maxcycle=400) wB97XD/6-31G* MaxDisk=100GB\\MOLECULE0 Rotata
 ble Bond Optimization on g2-node38.bme.utexas.edu\\0,1\C,0.4065100733,
 4.6420336355,-1.8314262514\C,1.7103416059,4.4572247183,-1.388750537\C,
 2.2088762307,3.1605225881,-1.2732855682\C,1.3540877521,2.1081372613,-1
 .6273144823\N,0.0992396162,2.2692986457,-2.0428557931\C,-0.3587968888,
 3.5213001699,-2.1358121873\C,3.5674807246,2.8559891063,-0.7582796088\C
 ,4.62355008,3.7631346055,-0.7608382988\C,5.8196919589,3.3107810429,-0.
 20545327\N,5.9903233686,2.0923726668,0.2896869674\C,4.9111822762,1.286
 4370858,0.2209120235\N,3.7184115665,1.6236624156,-0.2672824709\N,5.105
 3465876,0.0242713396,0.7104109956\C,4.2547870444,-1.0977402119,0.67412
 90964\C,4.8347509488,-2.3744217757,0.8117032231\C,3.9885747421,-3.4774
 747629,0.7476445667\C,2.6153416412,-3.3763493438,0.5401612917\C,2.0627
 401696,-2.1039486417,0.4149229002\C,2.8789463204,-0.9758391847,0.51106
 34543\N,0.7022789116,-1.8457602739,0.1697083162\C,-0.3014236506,-2.722
 0738488,-0.1562062615\C,-1.5859145382,-2.0577674773,-0.5646497355\C,-1
 .6408790639,-0.7895238818,-1.1467764956\C,-2.8668536577,-0.2316952342,
 -1.4933594681\C,-4.0549163793,-0.9261733459,-1.2789928575\C,-3.9941591
 073,-2.2041744956,-0.7144194343\C,-2.7747675631,-2.7659107589,-0.36794
 54608\C,-5.3860398386,-0.3234361531,-1.6745257192\N,-6.4171126964,-0.5
 680072097,-0.6748204666\C,-7.7704661671,-0.2701110011,-1.1423487053\C,
 -8.0741249808,1.2360497473,-1.1804725339\N,-7.824689684,1.9042961557,0
 .0954841458\C,-8.8559234093,1.6625531804,1.0890478105\C,-6.474681253,1
 .6005616752,0.5689657033\C,-6.1696456165,0.0961889452,0.6081026143\O,-
 0.186723169,-3.9363291918,-0.1090041337\C,6.3197519306,-2.5461494832,1
 .0069148364\H,-0.0177430131,5.6360232646,-1.923955055\H,2.319760431,5.
 3125993159,-1.1116863235\H,1.7212393809,1.0868881171,-1.5702670045\H,-
 1.3887389092,3.6308181371,-2.4671891121\H,4.5411566004,4.7596104947,-1
 .1764678805\H,6.6877052998,3.9657105312,-0.1627923423\H,6.0563654396,-
 0.129165259,1.010546707\H,4.4242481985,-4.4682668406,0.8490415034\H,1.
 9884968312,-4.253818154,0.4696459255\H,2.4461355062,0.0096686195,0.422
 9665337\H,0.4514314148,-0.8687152321,0.1803232812\H,-0.7437905708,-0.2
 182007127,-1.3717515765\H,-2.8856740174,0.7590532824,-1.9406288509\H,-
 4.9213644637,-2.7401400971,-0.5360394666\H,-2.7203138577,-3.7610619829
 ,0.0614094571\H,-5.2323681805,0.7441483844,-1.9135294919\H,-5.72528138
 86,-0.796172002,-2.6057534833\H,-7.9102901552,-0.7149470064,-2.1343753
 93\H,-8.4729906612,-0.7713032924,-0.4632144572\H,-9.1163536119,1.40869
 00009,-1.4729724742\H,-7.4430157801,1.7182262357,-1.9397171036\H,-8.96
 5927661,0.61294671,1.4141642078\H,-9.8217898506,1.9892552961,0.6888402
 454\H,-8.6432901984,2.2649187069,1.9787580854\H,-6.3402681914,2.041739
 1873,1.5632017094\H,-5.7644101476,2.1030838371,-0.1018612642\H,-6.8029
 789802,-0.3926404384,1.3597673384\H,-5.1302755464,-0.0779613294,0.9038
 503889\H,6.6727884953,-2.087875898,1.9409340559\H,6.8953686918,-2.1058
 912571,0.1826223774\H,6.5790730103,-3.6067523281,1.0550902575\\Version
 =EM64L-G09RevA.02\State=1-A\HF=-1581.7642333\RMSD=5.134e-09\RMSF=5.556
 e-06\Dipole=0.2497491,2.5411198,-0.0975603\Quadrupole=14.406628,-3.888
 6185,-10.5180095,6.10253,1.4801342,-5.0096742\PG=C01 [X(C29H31N7O1)]\\
 @


 ASKING DUMB QUESTIONS IS EASIER THAN CORECTING DUMB MISTAKES.
 Job cpu time:  0 days  8 hours 59 minutes 57.0 seconds.
 File lengths (MBytes):  RWF=    244 Int=      0 D2E=      0 Chk=     25 Scr=      1
 Normal termination of Gaussian 09 at Wed Mar 11 01:35:38 2020.
