 Entering Gaussian System, Link 0=g09
 Input=MOLECULE0-opt-21-20-18-19-006.com
 Output=MOLECULE0-opt-21-20-18-19-006.log
 Initial command:
 /opt/g09gh/gaussian/g09/l1.exe /scratch/bdw2292/Gau-MOLECULE0/Gau-43109.inp -scrdir=/scratch/bdw2292/Gau-MOLECULE0/
 Entering Link 1 = /opt/g09gh/gaussian/g09/l1.exe PID=     43110.
  
 Copyright (c) 1988,1990,1992,1993,1995,1998,2003,2009, Gaussian, Inc.
                  All Rights Reserved.
  
 This is part of the Gaussian(R) 09 program.  It is based on
 the Gaussian(R) 03 system (copyright 2003, Gaussian, Inc.),
 the Gaussian(R) 98 system (copyright 1998, Gaussian, Inc.),
 the Gaussian(R) 94 system (copyright 1995, Gaussian, Inc.),
 the Gaussian 92(TM) system (copyright 1992, Gaussian, Inc.),
 the Gaussian 90(TM) system (copyright 1990, Gaussian, Inc.),
 the Gaussian 88(TM) system (copyright 1988, Gaussian, Inc.),
 the Gaussian 86(TM) system (copyright 1986, Carnegie Mellon
 University), and the Gaussian 82(TM) system (copyright 1983,
 Carnegie Mellon University). Gaussian is a federally registered
 trademark of Gaussian, Inc.
  
 This software contains proprietary and confidential information,
 including trade secrets, belonging to Gaussian, Inc.
  
 This software is provided under written license and may be
 used, copied, transmitted, or stored only in accord with that
 written license.
  
 The following legend is applicable only to US Government
 contracts under FAR:
  
                    RESTRICTED RIGHTS LEGEND
  
 Use, reproduction and disclosure by the US Government is
 subject to restrictions as set forth in subparagraphs (a)
 and (c) of the Commercial Computer Software - Restricted
 Rights clause in FAR 52.227-19.
  
 Gaussian, Inc.
 340 Quinnipiac St., Bldg. 40, Wallingford CT 06492
  
  
 ---------------------------------------------------------------
 Warning -- This program may not be used in any manner that
 competes with the business of Gaussian, Inc. or will provide
 assistance to any competitor of Gaussian, Inc.  The licensee
 of this program is prohibited from giving any competitor of
 Gaussian, Inc. access to this program.  By using this program,
 the user acknowledges that Gaussian, Inc. is engaged in the
 business of creating and licensing software in the field of
 computational chemistry and represents and warrants to the
 licensee that it is not a competitor of Gaussian, Inc. and that
 it will not use this program in any manner prohibited above.
 ---------------------------------------------------------------
  

 Cite this work as:
 Gaussian 09, Revision A.02,
 M. J. Frisch, G. W. Trucks, H. B. Schlegel, G. E. Scuseria, 
 M. A. Robb, J. R. Cheeseman, G. Scalmani, V. Barone, B. Mennucci, 
 G. A. Petersson, H. Nakatsuji, M. Caricato, X. Li, H. P. Hratchian, 
 A. F. Izmaylov, J. Bloino, G. Zheng, J. L. Sonnenberg, M. Hada, 
 M. Ehara, K. Toyota, R. Fukuda, J. Hasegawa, M. Ishida, T. Nakajima, 
 Y. Honda, O. Kitao, H. Nakai, T. Vreven, J. A. Montgomery, Jr., 
 J. E. Peralta, F. Ogliaro, M. Bearpark, J. J. Heyd, E. Brothers, 
 K. N. Kudin, V. N. Staroverov, R. Kobayashi, J. Normand, 
 K. Raghavachari, A. Rendell, J. C. Burant, S. S. Iyengar, J. Tomasi, 
 M. Cossi, N. Rega, J. M. Millam, M. Klene, J. E. Knox, J. B. Cross, 
 V. Bakken, C. Adamo, J. Jaramillo, R. Gomperts, R. E. Stratmann, 
 O. Yazyev, A. J. Austin, R. Cammi, C. Pomelli, J. W. Ochterski, 
 R. L. Martin, K. Morokuma, V. G. Zakrzewski, G. A. Voth, 
 P. Salvador, J. J. Dannenberg, S. Dapprich, A. D. Daniels, 
 O. Farkas, J. B. Foresman, J. V. Ortiz, J. Cioslowski, 
 and D. J. Fox, Gaussian, Inc., Wallingford CT, 2009.
 
 ******************************************
 Gaussian 09:  EM64L-G09RevA.02 11-Jun-2009
                 3-Mar-2020 
 ******************************************
 %RWF=/scratch/bdw2292/Gau-MOLECULE0/,100GB
 %Nosave
 %Chk=MOLECULE0-opt-21-20-18-19-006.chk
 %Mem=20GB
 %Nproc=6
 Will use up to    6 processors via shared memory.
 --------------------------------------------------
 #P opt=(,maxcycle=400) wB97XD/6-31G* MaxDisk=100GB
 --------------------------------------------------
 1/6=400,14=-1,18=20,19=15,26=3,38=1/1,3;
 2/9=110,12=2,17=6,18=5,40=1/2;
 3/5=1,6=6,7=1,11=2,16=1,25=1,30=1,71=1,74=-58/1,2,3;
 4//1;
 5/5=2,38=5/2;
 6/7=2,8=2,9=2,10=2,28=1/1;
 7//1,2,3,16;
 1/6=400,14=-1,18=20,19=15/3(2);
 2/9=110/2;
 99//99;
 2/9=110/2;
 3/5=1,6=6,7=1,11=2,16=1,25=1,30=1,71=1,74=-58/1,2,3;
 4/5=5,16=3/1;
 5/5=2,38=5/2;
 7//1,2,3,16;
 1/6=400,14=-1,18=20,19=15/3(-5);
 2/9=110/2;
 6/7=2,8=2,9=2,10=2,19=2,28=1/1;
 99/9=1/99;
 Leave Link    1 at Tue Mar  3 19:03:53 2020, MaxMem= 2684354560 cpu:       0.2
 (Enter /opt/g09gh/gaussian/g09/l101.exe)
 --------------------------------------------------------------
 MOLECULE0 Rotatable Bond Optimization on node37.bme.utexas.edu
 --------------------------------------------------------------
 Symbolic Z-matrix:
 Charge =  0 Multiplicity = 1
 C                    -1.1876   -9.93267  -0.58509 
 C                     0.1875   -9.76105  -0.78878 
 C                     0.77985  -8.48992  -0.62788 
 C                    -0.10028  -7.4461   -0.25204 
 N                    -1.41841  -7.59666  -0.04904 
 C                    -1.94382  -8.81703  -0.21651 
 C                     2.25898  -8.24256  -0.81551 
 C                     3.17829  -9.25833  -1.13712 
 C                     4.51541  -8.86965  -1.23275 
 N                     4.94672  -7.62957  -1.04249 
 C                     3.99926  -6.71219  -0.74746 
 N                     2.69278  -6.97335  -0.63832 
 N                     4.52148  -5.43861  -0.56899 
 C                     4.00574  -4.15207  -0.1873 
 C                     4.93749  -3.15767   0.24271 
 C                     4.41181  -1.91653   0.62901 
 C                     3.04973  -1.60364   0.59626 
 C                     2.14574  -2.57165   0.13683 
 C                     2.64172  -3.83789  -0.22535 
 N                     0.7359   -2.3228    0.0506 
 C                    -0.34587  -3.12677  -0.22876 
 C                    -1.68388  -2.46661  -0.49138 
 C                    -1.82457  -1.23319  -1.14722 
 C                    -3.0909   -0.67694  -1.34144 
 C                    -4.25773  -1.34096  -0.9178 
 C                    -4.10159  -2.58026  -0.26799 
 C                    -2.83929  -3.14137  -0.0626 
 C                    -5.63981  -0.71363  -1.10638 
 N                    -6.13342   0.26251  -0.11995 
 C                    -5.57512   1.63275  -0.12146 
 C                    -4.40759   1.8499    0.87533 
 N                    -4.71565   1.45141   2.26864 
 C                    -5.46208   2.4187    3.0824 
 C                    -5.2272    0.05915   2.26817 
 C                    -6.38354  -0.19476   1.26621 
 O                    -0.27501  -4.34265  -0.24181 
 C                     6.43799  -3.38376   0.32977 
 H                    -1.66038  -10.90316  -0.70467 
 H                     0.76669  -10.63637  -1.07161 
 H                     0.28668  -6.44606  -0.10255 
 H                    -3.01575  -8.9003   -0.04392 
 H                     2.91191  -10.29669  -1.28965 
 H                     5.28693  -9.60184  -1.46923 
 H                     5.52433  -5.49377  -0.66391 
 H                     5.08923  -1.1379    0.97873 
 H                     2.70469  -0.62369   0.90527 
 H                     1.96002  -4.60764  -0.55564 
 H                     0.51068  -1.34242   0.14745 
 H                    -0.93931  -0.71357  -1.50534 
 H                    -3.16738   0.28612  -1.84638 
 H                    -4.97645  -3.12397   0.08731 
 H                    -2.72743  -4.10745   0.42505 
 H                    -5.66416  -0.22472  -2.09111 
 H                    -6.38573  -1.52053  -1.14946 
 H                    -5.33404   1.94273  -1.10887 
 H                    -6.72712   2.59046   0.37605 
 H                    -4.08147   3.30304   0.861 
 H                    -3.44563   1.25883   0.53392 
 H                    -6.47377   2.5676    2.68844 
 H                    -4.94206   3.38318   3.09589 
 H                    -5.53639   2.06341   4.11667 
 H                    -5.50697  -0.23418   3.29953 
 H                    -4.07603  -0.82608   1.84464 
 H                    -7.60302   0.63946   1.81324 
 H                    -6.70774  -1.31288   1.27299 
 H                     6.87285  -3.56814  -0.6628 
 H                     6.67873  -4.25015   0.96208 
 H                     6.97897  -2.52753   0.75553 
 
 NAtoms=     68 NQM=     68 NQMF=      0 NMic=      0 NMicF=      0 NTot=     68.
                    Isotopes and Nuclear Properties:
 (Nuclear quadrupole moments (NQMom) in fm**2, nuclear magnetic moments (NMagM)
  in nuclear magnetons)

  Atom         1           2           3           4           5           6           7           8           9          10
 IAtWgt=          12          12          12          12          14          12          12          12          12          14
 AtmWgt=  12.0000000  12.0000000  12.0000000  12.0000000  14.0030740  12.0000000  12.0000000  12.0000000  12.0000000  14.0030740
 NucSpn=           0           0           0           0           2           0           0           0           0           2
 AtZEff=   0.0000000   0.0000000   0.0000000   0.0000000   0.0000000   0.0000000   0.0000000   0.0000000   0.0000000   0.0000000
 NQMom=    0.0000000   0.0000000   0.0000000   0.0000000   2.0440000   0.0000000   0.0000000   0.0000000   0.0000000   2.0440000
 NMagM=    0.0000000   0.0000000   0.0000000   0.0000000   0.4037610   0.0000000   0.0000000   0.0000000   0.0000000   0.4037610

  Atom        11          12          13          14          15          16          17          18          19          20
 IAtWgt=          12          14          14          12          12          12          12          12          12          14
 AtmWgt=  12.0000000  14.0030740  14.0030740  12.0000000  12.0000000  12.0000000  12.0000000  12.0000000  12.0000000  14.0030740
 NucSpn=           0           2           2           0           0           0           0           0           0           2
 AtZEff=   0.0000000   0.0000000   0.0000000   0.0000000   0.0000000   0.0000000   0.0000000   0.0000000   0.0000000   0.0000000
 NQMom=    0.0000000   2.0440000   2.0440000   0.0000000   0.0000000   0.0000000   0.0000000   0.0000000   0.0000000   2.0440000
 NMagM=    0.0000000   0.4037610   0.4037610   0.0000000   0.0000000   0.0000000   0.0000000   0.0000000   0.0000000   0.4037610

  Atom        21          22          23          24          25          26          27          28          29          30
 IAtWgt=          12          12          12          12          12          12          12          12          14          12
 AtmWgt=  12.0000000  12.0000000  12.0000000  12.0000000  12.0000000  12.0000000  12.0000000  12.0000000  14.0030740  12.0000000
 NucSpn=           0           0           0           0           0           0           0           0           2           0
 AtZEff=   0.0000000   0.0000000   0.0000000   0.0000000   0.0000000   0.0000000   0.0000000   0.0000000   0.0000000   0.0000000
 NQMom=    0.0000000   0.0000000   0.0000000   0.0000000   0.0000000   0.0000000   0.0000000   0.0000000   2.0440000   0.0000000
 NMagM=    0.0000000   0.0000000   0.0000000   0.0000000   0.0000000   0.0000000   0.0000000   0.0000000   0.4037610   0.0000000

  Atom        31          32          33          34          35          36          37          38          39          40
 IAtWgt=          12          14          12          12          12          16          12           1           1           1
 AtmWgt=  12.0000000  14.0030740  12.0000000  12.0000000  12.0000000  15.9949146  12.0000000   1.0078250   1.0078250   1.0078250
 NucSpn=           0           2           0           0           0           0           0           1           1           1
 AtZEff=   0.0000000   0.0000000   0.0000000   0.0000000   0.0000000   0.0000000   0.0000000   0.0000000   0.0000000   0.0000000
 NQMom=    0.0000000   2.0440000   0.0000000   0.0000000   0.0000000   0.0000000   0.0000000   0.0000000   0.0000000   0.0000000
 NMagM=    0.0000000   0.4037610   0.0000000   0.0000000   0.0000000   0.0000000   0.0000000   2.7928460   2.7928460   2.7928460

  Atom        41          42          43          44          45          46          47          48          49          50
 IAtWgt=           1           1           1           1           1           1           1           1           1           1
 AtmWgt=   1.0078250   1.0078250   1.0078250   1.0078250   1.0078250   1.0078250   1.0078250   1.0078250   1.0078250   1.0078250
 NucSpn=           1           1           1           1           1           1           1           1           1           1
 AtZEff=   0.0000000   0.0000000   0.0000000   0.0000000   0.0000000   0.0000000   0.0000000   0.0000000   0.0000000   0.0000000
 NQMom=    0.0000000   0.0000000   0.0000000   0.0000000   0.0000000   0.0000000   0.0000000   0.0000000   0.0000000   0.0000000
 NMagM=    2.7928460   2.7928460   2.7928460   2.7928460   2.7928460   2.7928460   2.7928460   2.7928460   2.7928460   2.7928460

  Atom        51          52          53          54          55          56          57          58          59          60
 IAtWgt=           1           1           1           1           1           1           1           1           1           1
 AtmWgt=   1.0078250   1.0078250   1.0078250   1.0078250   1.0078250   1.0078250   1.0078250   1.0078250   1.0078250   1.0078250
 NucSpn=           1           1           1           1           1           1           1           1           1           1
 AtZEff=   0.0000000   0.0000000   0.0000000   0.0000000   0.0000000   0.0000000   0.0000000   0.0000000   0.0000000   0.0000000
 NQMom=    0.0000000   0.0000000   0.0000000   0.0000000   0.0000000   0.0000000   0.0000000   0.0000000   0.0000000   0.0000000
 NMagM=    2.7928460   2.7928460   2.7928460   2.7928460   2.7928460   2.7928460   2.7928460   2.7928460   2.7928460   2.7928460

  Atom        61          62          63          64          65          66          67          68
 IAtWgt=           1           1           1           1           1           1           1           1
 AtmWgt=   1.0078250   1.0078250   1.0078250   1.0078250   1.0078250   1.0078250   1.0078250   1.0078250
 NucSpn=           1           1           1           1           1           1           1           1
 AtZEff=   0.0000000   0.0000000   0.0000000   0.0000000   0.0000000   0.0000000   0.0000000   0.0000000
 NQMom=    0.0000000   0.0000000   0.0000000   0.0000000   0.0000000   0.0000000   0.0000000   0.0000000
 NMagM=    2.7928460   2.7928460   2.7928460   2.7928460   2.7928460   2.7928460   2.7928460   2.7928460
 Leave Link  101 at Tue Mar  3 19:03:53 2020, MaxMem= 2684354560 cpu:       0.4
 (Enter /opt/g09gh/gaussian/g09/l103.exe)

 GradGradGradGradGradGradGradGradGradGradGradGradGradGradGradGradGradGrad
 Berny optimization.
 Initialization pass.
                           ----------------------------
                           !    Initial Parameters    !
                           ! (Angstroms and Degrees)  !
 --------------------------                            --------------------------
 ! Name  Definition              Value          Derivative Info.                !
 --------------------------------------------------------------------------------
 ! R1    R(1,2)                  1.4007         estimate D2E/DX2                !
 ! R2    R(1,6)                  1.3973         estimate D2E/DX2                !
 ! R3    R(1,38)                 1.0861         estimate D2E/DX2                !
 ! R4    R(2,3)                  1.4116         estimate D2E/DX2                !
 ! R5    R(2,39)                 1.087          estimate D2E/DX2                !
 ! R6    R(3,4)                  1.4161         estimate D2E/DX2                !
 ! R7    R(3,7)                  1.5114         estimate D2E/DX2                !
 ! R8    R(4,5)                  1.3421         estimate D2E/DX2                !
 ! R9    R(4,40)                 1.0827         estimate D2E/DX2                !
 ! R10   R(5,6)                  1.3392         estimate D2E/DX2                !
 ! R11   R(6,41)                 1.0889         estimate D2E/DX2                !
 ! R12   R(7,8)                  1.4072         estimate D2E/DX2                !
 ! R13   R(7,12)                 1.353          estimate D2E/DX2                !
 ! R14   R(8,9)                  1.3957         estimate D2E/DX2                !
 ! R15   R(8,42)                 1.0828         estimate D2E/DX2                !
 ! R16   R(9,10)                 1.3267         estimate D2E/DX2                !
 ! R17   R(9,43)                 1.0896         estimate D2E/DX2                !
 ! R18   R(10,11)                1.3514         estimate D2E/DX2                !
 ! R19   R(11,12)                1.3368         estimate D2E/DX2                !
 ! R20   R(11,13)                1.388          estimate D2E/DX2                !
 ! R21   R(13,14)                1.4377         estimate D2E/DX2                !
 ! R22   R(13,44)                1.0088         estimate D2E/DX2                !
 ! R23   R(14,15)                1.429          estimate D2E/DX2                !
 ! R24   R(14,19)                1.4002         estimate D2E/DX2                !
 ! R25   R(15,16)                1.4021         estimate D2E/DX2                !
 ! R26   R(15,37)                1.5199         estimate D2E/DX2                !
 ! R27   R(16,17)                1.3979         estimate D2E/DX2                !
 ! R28   R(16,45)                1.0897         estimate D2E/DX2                !
 ! R29   R(17,18)                1.4019         estimate D2E/DX2                !
 ! R30   R(17,46)                1.0839         estimate D2E/DX2                !
 ! R31   R(18,19)                1.4073         estimate D2E/DX2                !
 ! R32   R(18,20)                1.4342         estimate D2E/DX2                !
 ! R33   R(19,47)                1.08           estimate D2E/DX2                !
 ! R34   R(20,21)                1.3765         estimate D2E/DX2                !
 ! R35   R(20,48)                1.0106         estimate D2E/DX2                !
 ! R36   R(21,22)                1.5149         estimate D2E/DX2                !
 ! R37   R(21,36)                1.218          estimate D2E/DX2                !
 ! R38   R(22,23)                1.404          estimate D2E/DX2                !
 ! R39   R(22,27)                1.405          estimate D2E/DX2                !
 ! R40   R(23,24)                1.3967         estimate D2E/DX2                !
 ! R41   R(23,49)                1.0872         estimate D2E/DX2                !
 ! R42   R(24,25)                1.4078         estimate D2E/DX2                !
 ! R43   R(24,50)                1.0901         estimate D2E/DX2                !
 ! R44   R(25,26)                1.408          estimate D2E/DX2                !
 ! R45   R(25,28)                1.5295         estimate D2E/DX2                !
 ! R46   R(26,27)                1.3966         estimate D2E/DX2                !
 ! R47   R(26,51)                1.0896         estimate D2E/DX2                !
 ! R48   R(27,52)                1.0879         estimate D2E/DX2                !
 ! R49   R(28,29)                1.4729         estimate D2E/DX2                !
 ! R50   R(28,53)                1.0997         estimate D2E/DX2                !
 ! R51   R(28,54)                1.0997         estimate D2E/DX2                !
 ! R52   R(29,30)                1.4796         estimate D2E/DX2                !
 ! R53   R(29,35)                1.4809         estimate D2E/DX2                !
 ! R54   R(30,31)                1.5504         estimate D2E/DX2                !
 ! R55   R(30,55)                1.0626         estimate D2E/DX2                !
 ! R56   R(30,56)                1.5786         estimate D2E/DX2                !
 ! R57   R(31,32)                1.4816         estimate D2E/DX2                !
 ! R58   R(31,57)                1.4894         estimate D2E/DX2                !
 ! R59   R(31,58)                1.1795         estimate D2E/DX2                !
 ! R60   R(32,33)                1.468          estimate D2E/DX2                !
 ! R61   R(32,34)                1.4833         estimate D2E/DX2                !
 ! R62   R(33,59)                1.0959         estimate D2E/DX2                !
 ! R63   R(33,60)                1.0958         estimate D2E/DX2                !
 ! R64   R(33,61)                1.0961         estimate D2E/DX2                !
 ! R65   R(34,35)                1.551          estimate D2E/DX2                !
 ! R66   R(34,62)                1.1082         estimate D2E/DX2                !
 ! R67   R(34,63)                1.5127         estimate D2E/DX2                !
 ! R68   R(35,64)                1.5755         estimate D2E/DX2                !
 ! R69   R(35,65)                1.1642         estimate D2E/DX2                !
 ! R70   R(37,66)                1.0992         estimate D2E/DX2                !
 ! R71   R(37,67)                1.0993         estimate D2E/DX2                !
 ! R72   R(37,68)                1.0987         estimate D2E/DX2                !
 ! A1    A(2,1,6)              118.1554         estimate D2E/DX2                !
 ! A2    A(2,1,38)             121.3871         estimate D2E/DX2                !
 ! A3    A(6,1,38)             120.4571         estimate D2E/DX2                !
 ! A4    A(1,2,3)              120.3809         estimate D2E/DX2                !
 ! A5    A(1,2,39)             117.5338         estimate D2E/DX2                !
 ! A6    A(3,2,39)             122.0853         estimate D2E/DX2                !
 ! A7    A(2,3,4)              115.6708         estimate D2E/DX2                !
 ! A8    A(2,3,7)              122.9514         estimate D2E/DX2                !
 ! A9    A(4,3,7)              121.3692         estimate D2E/DX2                !
 ! A10   A(3,4,5)              124.5992         estimate D2E/DX2                !
 ! A11   A(3,4,40)             119.693          estimate D2E/DX2                !
 ! A12   A(5,4,40)             115.7061         estimate D2E/DX2                !
 ! A13   A(4,5,6)              117.9456         estimate D2E/DX2                !
 ! A14   A(1,6,5)              123.2473         estimate D2E/DX2                !
 ! A15   A(1,6,41)             120.898          estimate D2E/DX2                !
 ! A16   A(5,6,41)             115.8545         estimate D2E/DX2                !
 ! A17   A(3,7,8)              123.3373         estimate D2E/DX2                !
 ! A18   A(3,7,12)             116.8128         estimate D2E/DX2                !
 ! A19   A(8,7,12)             119.8418         estimate D2E/DX2                !
 ! A20   A(7,8,9)              116.1348         estimate D2E/DX2                !
 ! A21   A(7,8,42)             124.3111         estimate D2E/DX2                !
 ! A22   A(9,8,42)             119.5425         estimate D2E/DX2                !
 ! A23   A(8,9,10)             124.1886         estimate D2E/DX2                !
 ! A24   A(8,9,43)             120.4025         estimate D2E/DX2                !
 ! A25   A(10,9,43)            115.4072         estimate D2E/DX2                !
 ! A26   A(9,10,11)            115.9709         estimate D2E/DX2                !
 ! A27   A(10,11,12)           124.7782         estimate D2E/DX2                !
 ! A28   A(10,11,13)           112.7781         estimate D2E/DX2                !
 ! A29   A(12,11,13)           122.4432         estimate D2E/DX2                !
 ! A30   A(7,12,11)            119.0741         estimate D2E/DX2                !
 ! A31   A(11,13,14)           136.0774         estimate D2E/DX2                !
 ! A32   A(11,13,44)           108.1641         estimate D2E/DX2                !
 ! A33   A(14,13,44)           115.5001         estimate D2E/DX2                !
 ! A34   A(13,14,15)           117.9516         estimate D2E/DX2                !
 ! A35   A(13,14,19)           122.8901         estimate D2E/DX2                !
 ! A36   A(15,14,19)           119.1578         estimate D2E/DX2                !
 ! A37   A(14,15,16)           117.0286         estimate D2E/DX2                !
 ! A38   A(14,15,37)           123.8788         estimate D2E/DX2                !
 ! A39   A(16,15,37)           119.0786         estimate D2E/DX2                !
 ! A40   A(15,16,17)           123.846          estimate D2E/DX2                !
 ! A41   A(15,16,45)           119.1985         estimate D2E/DX2                !
 ! A42   A(17,16,45)           116.9555         estimate D2E/DX2                !
 ! A43   A(16,17,18)           118.7785         estimate D2E/DX2                !
 ! A44   A(16,17,46)           120.3875         estimate D2E/DX2                !
 ! A45   A(18,17,46)           120.8258         estimate D2E/DX2                !
 ! A46   A(17,18,19)           118.578          estimate D2E/DX2                !
 ! A47   A(17,18,20)           122.2603         estimate D2E/DX2                !
 ! A48   A(19,18,20)           119.1492         estimate D2E/DX2                !
 ! A49   A(14,19,18)           122.5615         estimate D2E/DX2                !
 ! A50   A(14,19,47)           117.5991         estimate D2E/DX2                !
 ! A51   A(18,19,47)           119.8375         estimate D2E/DX2                !
 ! A52   A(18,20,21)           133.1102         estimate D2E/DX2                !
 ! A53   A(18,20,48)           112.4356         estimate D2E/DX2                !
 ! A54   A(21,20,48)           114.2632         estimate D2E/DX2                !
 ! A55   A(20,21,22)           118.3452         estimate D2E/DX2                !
 ! A56   A(20,21,36)           122.6505         estimate D2E/DX2                !
 ! A57   A(22,21,36)           118.9816         estimate D2E/DX2                !
 ! A58   A(21,22,23)           123.525          estimate D2E/DX2                !
 ! A59   A(21,22,27)           117.653          estimate D2E/DX2                !
 ! A60   A(23,22,27)           118.8188         estimate D2E/DX2                !
 ! A61   A(22,23,24)           120.3773         estimate D2E/DX2                !
 ! A62   A(22,23,49)           119.4826         estimate D2E/DX2                !
 ! A63   A(24,23,49)           120.14           estimate D2E/DX2                !
 ! A64   A(23,24,25)           121.4513         estimate D2E/DX2                !
 ! A65   A(23,24,50)           118.6778         estimate D2E/DX2                !
 ! A66   A(25,24,50)           119.8646         estimate D2E/DX2                !
 ! A67   A(24,25,26)           117.5246         estimate D2E/DX2                !
 ! A68   A(24,25,28)           121.2248         estimate D2E/DX2                !
 ! A69   A(26,25,28)           121.2066         estimate D2E/DX2                !
 ! A70   A(25,26,27)           121.4486         estimate D2E/DX2                !
 ! A71   A(25,26,51)           120.044          estimate D2E/DX2                !
 ! A72   A(27,26,51)           118.5074         estimate D2E/DX2                !
 ! A73   A(22,27,26)           120.3605         estimate D2E/DX2                !
 ! A74   A(22,27,52)           118.5995         estimate D2E/DX2                !
 ! A75   A(26,27,52)           121.0392         estimate D2E/DX2                !
 ! A76   A(25,28,29)           119.4773         estimate D2E/DX2                !
 ! A77   A(25,28,53)           108.2266         estimate D2E/DX2                !
 ! A78   A(25,28,54)           108.4701         estimate D2E/DX2                !
 ! A79   A(29,28,53)           107.3156         estimate D2E/DX2                !
 ! A80   A(29,28,54)           106.5703         estimate D2E/DX2                !
 ! A81   A(53,28,54)           106.0279         estimate D2E/DX2                !
 ! A82   A(28,29,30)           119.1168         estimate D2E/DX2                !
 ! A83   A(28,29,35)           118.6086         estimate D2E/DX2                !
 ! A84   A(30,29,35)           110.5261         estimate D2E/DX2                !
 ! A85   A(29,30,31)           114.4053         estimate D2E/DX2                !
 ! A86   A(29,30,55)           110.8976         estimate D2E/DX2                !
 ! A87   A(29,30,56)           106.628          estimate D2E/DX2                !
 ! A88   A(31,30,55)           112.6876         estimate D2E/DX2                !
 ! A89   A(31,30,56)           105.1862         estimate D2E/DX2                !
 ! A90   A(55,30,56)           106.3462         estimate D2E/DX2                !
 ! A91   A(30,31,32)           114.2282         estimate D2E/DX2                !
 ! A92   A(30,31,57)           107.1785         estimate D2E/DX2                !
 ! A93   A(30,31,58)           110.9685         estimate D2E/DX2                !
 ! A94   A(32,31,57)           108.4819         estimate D2E/DX2                !
 ! A95   A(32,31,58)           107.8788         estimate D2E/DX2                !
 ! A96   A(57,31,58)           107.9121         estimate D2E/DX2                !
 ! A97   A(31,32,33)           116.7317         estimate D2E/DX2                !
 ! A98   A(31,32,34)           108.8972         estimate D2E/DX2                !
 ! A99   A(33,32,34)           116.315          estimate D2E/DX2                !
 ! A100  A(32,33,59)           111.0796         estimate D2E/DX2                !
 ! A101  A(32,33,60)           110.2104         estimate D2E/DX2                !
 ! A102  A(32,33,61)           110.1173         estimate D2E/DX2                !
 ! A103  A(59,33,60)           108.8412         estimate D2E/DX2                !
 ! A104  A(59,33,61)           108.7041         estimate D2E/DX2                !
 ! A105  A(60,33,61)           107.8086         estimate D2E/DX2                !
 ! A106  A(32,34,35)           114.2676         estimate D2E/DX2                !
 ! A107  A(32,34,62)           109.5865         estimate D2E/DX2                !
 ! A108  A(32,34,63)           106.6746         estimate D2E/DX2                !
 ! A109  A(35,34,62)           111.6961         estimate D2E/DX2                !
 ! A110  A(35,34,63)           106.9001         estimate D2E/DX2                !
 ! A111  A(62,34,63)           107.326          estimate D2E/DX2                !
 ! A112  A(29,35,34)           115.3543         estimate D2E/DX2                !
 ! A113  A(29,35,64)           106.9914         estimate D2E/DX2                !
 ! A114  A(29,35,65)           110.4283         estimate D2E/DX2                !
 ! A115  A(34,35,64)           105.4319         estimate D2E/DX2                !
 ! A116  A(34,35,65)           111.1667         estimate D2E/DX2                !
 ! A117  A(64,35,65)           106.9162         estimate D2E/DX2                !
 ! A118  A(15,37,66)           111.3327         estimate D2E/DX2                !
 ! A119  A(15,37,67)           111.4921         estimate D2E/DX2                !
 ! A120  A(15,37,68)           113.1022         estimate D2E/DX2                !
 ! A121  A(66,37,67)           107.4913         estimate D2E/DX2                !
 ! A122  A(66,37,68)           106.6103         estimate D2E/DX2                !
 ! A123  A(67,37,68)           106.4684         estimate D2E/DX2                !
 ! D1    D(6,1,2,3)             -0.2368         estimate D2E/DX2                !
 ! D2    D(6,1,2,39)           179.7775         estimate D2E/DX2                !
 ! D3    D(38,1,2,3)           179.982          estimate D2E/DX2                !
 ! D4    D(38,1,2,39)           -0.0037         estimate D2E/DX2                !
 ! D5    D(2,1,6,5)             -0.0211         estimate D2E/DX2                !
 ! D6    D(2,1,6,41)          -179.8165         estimate D2E/DX2                !
 ! D7    D(38,1,6,5)           179.7622         estimate D2E/DX2                !
 ! D8    D(38,1,6,41)           -0.0332         estimate D2E/DX2                !
 ! D9    D(1,2,3,4)              0.2547         estimate D2E/DX2                !
 ! D10   D(1,2,3,7)            179.1964         estimate D2E/DX2                !
 ! D11   D(39,2,3,4)          -179.7602         estimate D2E/DX2                !
 ! D12   D(39,2,3,7)            -0.8185         estimate D2E/DX2                !
 ! D13   D(2,3,4,5)             -0.0256         estimate D2E/DX2                !
 ! D14   D(2,3,4,40)           179.4826         estimate D2E/DX2                !
 ! D15   D(7,3,4,5)           -178.9855         estimate D2E/DX2                !
 ! D16   D(7,3,4,40)             0.5227         estimate D2E/DX2                !
 ! D17   D(2,3,7,8)             -1.4412         estimate D2E/DX2                !
 ! D18   D(2,3,7,12)           179.5972         estimate D2E/DX2                !
 ! D19   D(4,3,7,8)            177.4417         estimate D2E/DX2                !
 ! D20   D(4,3,7,12)            -1.5199         estimate D2E/DX2                !
 ! D21   D(3,4,5,6)             -0.2206         estimate D2E/DX2                !
 ! D22   D(40,4,5,6)          -179.7464         estimate D2E/DX2                !
 ! D23   D(4,5,6,1)              0.2444         estimate D2E/DX2                !
 ! D24   D(4,5,6,41)          -179.9507         estimate D2E/DX2                !
 ! D25   D(3,7,8,9)           -177.9941         estimate D2E/DX2                !
 ! D26   D(3,7,8,42)             0.7565         estimate D2E/DX2                !
 ! D27   D(12,7,8,9)             0.9375         estimate D2E/DX2                !
 ! D28   D(12,7,8,42)          179.6881         estimate D2E/DX2                !
 ! D29   D(3,7,12,11)          177.7018         estimate D2E/DX2                !
 ! D30   D(8,7,12,11)           -1.2981         estimate D2E/DX2                !
 ! D31   D(7,8,9,10)            -0.0602         estimate D2E/DX2                !
 ! D32   D(7,8,9,43)           179.4406         estimate D2E/DX2                !
 ! D33   D(42,8,9,10)         -178.874          estimate D2E/DX2                !
 ! D34   D(42,8,9,43)            0.6268         estimate D2E/DX2                !
 ! D35   D(8,9,10,11)           -0.4283         estimate D2E/DX2                !
 ! D36   D(43,9,10,11)        -179.9516         estimate D2E/DX2                !
 ! D37   D(9,10,11,12)           0.0576         estimate D2E/DX2                !
 ! D38   D(9,10,11,13)        -179.6829         estimate D2E/DX2                !
 ! D39   D(10,11,12,7)           0.8127         estimate D2E/DX2                !
 ! D40   D(13,11,12,7)        -179.4708         estimate D2E/DX2                !
 ! D41   D(10,11,13,14)       -176.0671         estimate D2E/DX2                !
 ! D42   D(10,11,13,44)         -2.4347         estimate D2E/DX2                !
 ! D43   D(12,11,13,14)          4.1855         estimate D2E/DX2                !
 ! D44   D(12,11,13,44)        177.8178         estimate D2E/DX2                !
 ! D45   D(11,13,14,15)        162.6653         estimate D2E/DX2                !
 ! D46   D(11,13,14,19)        -17.5926         estimate D2E/DX2                !
 ! D47   D(44,13,14,15)        -10.6299         estimate D2E/DX2                !
 ! D48   D(44,13,14,19)        169.1123         estimate D2E/DX2                !
 ! D49   D(13,14,15,16)       -179.0937         estimate D2E/DX2                !
 ! D50   D(13,14,15,37)         -0.4732         estimate D2E/DX2                !
 ! D51   D(19,14,15,16)          1.1542         estimate D2E/DX2                !
 ! D52   D(19,14,15,37)        179.7748         estimate D2E/DX2                !
 ! D53   D(13,14,19,18)       -179.3304         estimate D2E/DX2                !
 ! D54   D(13,14,19,47)          0.1722         estimate D2E/DX2                !
 ! D55   D(15,14,19,18)          0.4088         estimate D2E/DX2                !
 ! D56   D(15,14,19,47)        179.9113         estimate D2E/DX2                !
 ! D57   D(14,15,16,17)         -0.9569         estimate D2E/DX2                !
 ! D58   D(14,15,16,45)        178.9998         estimate D2E/DX2                !
 ! D59   D(37,15,16,17)       -179.6465         estimate D2E/DX2                !
 ! D60   D(37,15,16,45)          0.3103         estimate D2E/DX2                !
 ! D61   D(14,15,37,66)         64.4702         estimate D2E/DX2                !
 ! D62   D(14,15,37,67)        -55.5667         estimate D2E/DX2                !
 ! D63   D(14,15,37,68)       -175.5138         estimate D2E/DX2                !
 ! D64   D(16,15,37,66)       -116.9359         estimate D2E/DX2                !
 ! D65   D(16,15,37,67)        123.0272         estimate D2E/DX2                !
 ! D66   D(16,15,37,68)          3.0801         estimate D2E/DX2                !
 ! D67   D(15,16,17,18)         -0.8339         estimate D2E/DX2                !
 ! D68   D(15,16,17,46)       -179.8039         estimate D2E/DX2                !
 ! D69   D(45,16,17,18)        179.2085         estimate D2E/DX2                !
 ! D70   D(45,16,17,46)          0.2385         estimate D2E/DX2                !
 ! D71   D(16,17,18,19)          2.3735         estimate D2E/DX2                !
 ! D72   D(16,17,18,20)       -178.925          estimate D2E/DX2                !
 ! D73   D(46,17,18,19)       -178.6612         estimate D2E/DX2                !
 ! D74   D(46,17,18,20)          0.0404         estimate D2E/DX2                !
 ! D75   D(17,18,19,14)         -2.2155         estimate D2E/DX2                !
 ! D76   D(17,18,19,47)        178.2927         estimate D2E/DX2                !
 ! D77   D(20,18,19,14)        179.0417         estimate D2E/DX2                !
 ! D78   D(20,18,19,47)         -0.45           estimate D2E/DX2                !
 ! D79   D(17,18,20,21)       -172.3321         estimate D2E/DX2                !
 ! D80   D(17,18,20,48)         13.1044         estimate D2E/DX2                !
 ! D81   D(19,18,20,21)          6.3622         estimate D2E/DX2                !
 ! D82   D(19,18,20,48)       -168.2013         estimate D2E/DX2                !
 ! D83   D(18,20,21,22)       -168.5633         estimate D2E/DX2                !
 ! D84   D(18,20,21,36)         13.192          estimate D2E/DX2                !
 ! D85   D(48,20,21,22)          5.9246         estimate D2E/DX2                !
 ! D86   D(48,20,21,36)       -172.3201         estimate D2E/DX2                !
 ! D87   D(20,21,22,23)         34.894          estimate D2E/DX2                !
 ! D88   D(20,21,22,27)       -145.7639         estimate D2E/DX2                !
 ! D89   D(36,21,22,23)       -146.7955         estimate D2E/DX2                !
 ! D90   D(36,21,22,27)         32.5465         estimate D2E/DX2                !
 ! D91   D(21,22,23,24)       -179.2758         estimate D2E/DX2                !
 ! D92   D(21,22,23,49)          0.8353         estimate D2E/DX2                !
 ! D93   D(27,22,23,24)          1.3894         estimate D2E/DX2                !
 ! D94   D(27,22,23,49)       -178.4995         estimate D2E/DX2                !
 ! D95   D(21,22,27,26)        179.5847         estimate D2E/DX2                !
 ! D96   D(21,22,27,52)         -0.7429         estimate D2E/DX2                !
 ! D97   D(23,22,27,26)         -1.0414         estimate D2E/DX2                !
 ! D98   D(23,22,27,52)        178.631          estimate D2E/DX2                !
 ! D99   D(22,23,24,25)         -1.4362         estimate D2E/DX2                !
 ! D100  D(22,23,24,50)        179.4765         estimate D2E/DX2                !
 ! D101  D(49,23,24,25)        178.452          estimate D2E/DX2                !
 ! D102  D(49,23,24,50)         -0.6353         estimate D2E/DX2                !
 ! D103  D(23,24,25,26)          1.0699         estimate D2E/DX2                !
 ! D104  D(23,24,25,28)        178.6861         estimate D2E/DX2                !
 ! D105  D(50,24,25,26)       -179.8535         estimate D2E/DX2                !
 ! D106  D(50,24,25,28)         -2.2372         estimate D2E/DX2                !
 ! D107  D(24,25,26,27)         -0.7166         estimate D2E/DX2                !
 ! D108  D(24,25,26,51)        179.2894         estimate D2E/DX2                !
 ! D109  D(28,25,26,27)       -178.3333         estimate D2E/DX2                !
 ! D110  D(28,25,26,51)          1.6727         estimate D2E/DX2                !
 ! D111  D(24,25,28,29)        -83.1813         estimate D2E/DX2                !
 ! D112  D(24,25,28,53)         39.9178         estimate D2E/DX2                !
 ! D113  D(24,25,28,54)        154.5295         estimate D2E/DX2                !
 ! D114  D(26,25,28,29)         94.3471         estimate D2E/DX2                !
 ! D115  D(26,25,28,53)       -142.5538         estimate D2E/DX2                !
 ! D116  D(26,25,28,54)        -27.9421         estimate D2E/DX2                !
 ! D117  D(25,26,27,22)          0.7272         estimate D2E/DX2                !
 ! D118  D(25,26,27,52)       -178.9371         estimate D2E/DX2                !
 ! D119  D(51,26,27,22)       -179.2787         estimate D2E/DX2                !
 ! D120  D(51,26,27,52)          1.057          estimate D2E/DX2                !
 ! D121  D(25,28,29,30)         74.7188         estimate D2E/DX2                !
 ! D122  D(25,28,29,35)        -64.8292         estimate D2E/DX2                !
 ! D123  D(53,28,29,30)        -48.8243         estimate D2E/DX2                !
 ! D124  D(53,28,29,35)        171.6276         estimate D2E/DX2                !
 ! D125  D(54,28,29,30)       -162.0597         estimate D2E/DX2                !
 ! D126  D(54,28,29,35)         58.3923         estimate D2E/DX2                !
 ! D127  D(28,29,30,31)        -95.0451         estimate D2E/DX2                !
 ! D128  D(28,29,30,55)         33.7558         estimate D2E/DX2                !
 ! D129  D(28,29,30,56)        149.1239         estimate D2E/DX2                !
 ! D130  D(35,29,30,31)         47.4946         estimate D2E/DX2                !
 ! D131  D(35,29,30,55)        176.2956         estimate D2E/DX2                !
 ! D132  D(35,29,30,56)        -68.3364         estimate D2E/DX2                !
 ! D133  D(28,29,35,34)         96.2403         estimate D2E/DX2                !
 ! D134  D(28,29,35,64)       -146.8433         estimate D2E/DX2                !
 ! D135  D(28,29,35,65)        -30.8361         estimate D2E/DX2                !
 ! D136  D(30,29,35,34)        -46.5133         estimate D2E/DX2                !
 ! D137  D(30,29,35,64)         70.4032         estimate D2E/DX2                !
 ! D138  D(30,29,35,65)       -173.5896         estimate D2E/DX2                !
 ! D139  D(29,30,31,32)        -53.1474         estimate D2E/DX2                !
 ! D140  D(29,30,31,57)       -173.3443         estimate D2E/DX2                !
 ! D141  D(29,30,31,58)         69.0604         estimate D2E/DX2                !
 ! D142  D(55,30,31,32)        178.9563         estimate D2E/DX2                !
 ! D143  D(55,30,31,57)         58.7594         estimate D2E/DX2                !
 ! D144  D(55,30,31,58)        -58.8359         estimate D2E/DX2                !
 ! D145  D(56,30,31,32)         63.5169         estimate D2E/DX2                !
 ! D146  D(56,30,31,57)        -56.68           estimate D2E/DX2                !
 ! D147  D(56,30,31,58)       -174.2752         estimate D2E/DX2                !
 ! D148  D(30,31,32,33)        -81.6114         estimate D2E/DX2                !
 ! D149  D(30,31,32,34)         52.5785         estimate D2E/DX2                !
 ! D150  D(57,31,32,33)         37.8543         estimate D2E/DX2                !
 ! D151  D(57,31,32,34)        172.0442         estimate D2E/DX2                !
 ! D152  D(58,31,32,33)        154.5056         estimate D2E/DX2                !
 ! D153  D(58,31,32,34)        -71.3045         estimate D2E/DX2                !
 ! D154  D(31,32,33,59)         65.585          estimate D2E/DX2                !
 ! D155  D(31,32,33,60)        -55.1265         estimate D2E/DX2                !
 ! D156  D(31,32,33,61)       -173.9376         estimate D2E/DX2                !
 ! D157  D(34,32,33,59)        -65.2308         estimate D2E/DX2                !
 ! D158  D(34,32,33,60)        174.0577         estimate D2E/DX2                !
 ! D159  D(34,32,33,61)         55.2465         estimate D2E/DX2                !
 ! D160  D(31,32,34,35)        -51.1017         estimate D2E/DX2                !
 ! D161  D(31,32,34,62)       -177.3183         estimate D2E/DX2                !
 ! D162  D(31,32,34,63)         66.7975         estimate D2E/DX2                !
 ! D163  D(33,32,34,35)         83.3013         estimate D2E/DX2                !
 ! D164  D(33,32,34,62)        -42.9152         estimate D2E/DX2                !
 ! D165  D(33,32,34,63)       -158.7994         estimate D2E/DX2                !
 ! D166  D(32,34,35,29)         50.5219         estimate D2E/DX2                !
 ! D167  D(32,34,35,64)        -67.2711         estimate D2E/DX2                !
 ! D168  D(32,34,35,65)        177.2246         estimate D2E/DX2                !
 ! D169  D(62,34,35,29)        175.6309         estimate D2E/DX2                !
 ! D170  D(62,34,35,64)         57.838          estimate D2E/DX2                !
 ! D171  D(62,34,35,65)        -57.6664         estimate D2E/DX2                !
 ! D172  D(63,34,35,29)        -67.2485         estimate D2E/DX2                !
 ! D173  D(63,34,35,64)        174.9585         estimate D2E/DX2                !
 ! D174  D(63,34,35,65)         59.4542         estimate D2E/DX2                !
 --------------------------------------------------------------------------------
 Trust Radius=3.00D-01 FncErr=1.00D-07 GrdErr=1.00D-06
 Number of steps in this run= 400 maximum allowed number of steps= 408.
 GradGradGradGradGradGradGradGradGradGradGradGradGradGradGradGradGradGrad

 Leave Link  103 at Tue Mar  3 19:03:54 2020, MaxMem= 2684354560 cpu:       0.1
 (Enter /opt/g09gh/gaussian/g09/l202.exe)
 Stoichiometry    C29H31N7O
 Framework group  C1[X(C29H31N7O)]
 Deg. of freedom   198
 Full point group                 C1      NOp   1
 Largest Abelian subgroup         C1      NOp   1
 Largest concise Abelian subgroup C1      NOp   1
                         Standard orientation:                         
 ---------------------------------------------------------------------
 Center     Atomic      Atomic             Coordinates (Angstroms)
 Number     Number       Type             X           Y           Z
 ---------------------------------------------------------------------
      1          6           0        3.724761   -5.134713    0.530030
      2          6           0        4.640834   -4.099127    0.305977
      3          6           0        4.203183   -2.758221    0.251438
      4          6           0        2.814145   -2.558066    0.441089
      5          7           0        1.925752   -3.539739    0.661136
      6          6           0        2.379171   -4.799200    0.700872
      7          6           0        5.142742   -1.595142    0.030796
      8          6           0        6.535230   -1.741770   -0.109997
      9          6           0        7.265138   -0.562166   -0.264542
     10          7           0        6.726882    0.650214   -0.285551
     11          6           0        5.382907    0.703391   -0.154379
     12          7           0        4.588333   -0.361608   -0.008020
     13          7           0        4.890169    2.000443   -0.192302
     14          6           0        3.604522    2.624727   -0.036529
     15          6           0        3.569081    4.029553    0.222517
     16          6           0        2.306064    4.614836    0.390500
     17          6           0        1.102660    3.909325    0.299429
     18          6           0        1.144215    2.538886    0.007032
     19          6           0        2.399461    1.918186   -0.133045
     20          7           0       -0.044882    1.748118   -0.126084
     21          6           0       -0.264860    0.396949   -0.269581
     22          6           0       -1.656262   -0.069277   -0.645994
     23          6           0       -2.508644    0.646085   -1.502107
     24          6           0       -3.785988    0.161933   -1.793190
     25          6           0       -4.245424   -1.060750   -1.267969
     26          6           0       -3.377074   -1.770575   -0.416730
     27          6           0       -2.100746   -1.291316   -0.113842
     28          6           0       -5.655860   -1.571705   -1.566028
     29          7           0       -6.788831   -1.083122   -0.761537
     30          6           0       -7.298630    0.286465   -0.993078
     31          6           0       -6.707390    1.359306   -0.042658
     32          7           0       -6.830923    1.030879    1.396744
     33          6           0       -8.122639    1.319951    2.031505
     34          6           0       -6.271880   -0.323015    1.630261
     35          6           0       -6.829675   -1.415419    0.681029
     36          8           0        0.603912   -0.434494   -0.075921
     37          6           0        4.809221    4.898606    0.352963
     38          1           0        4.043488   -6.172059    0.574806
     39          1           0        5.685469   -4.371216    0.178134
     40          1           0        2.409215   -1.554197    0.420427
     41          1           0        1.629560   -5.568322    0.880574
     42          1           0        7.054527   -2.691575   -0.085325
     43          1           0        8.349145   -0.594297   -0.370168
     44          1           0        5.672811    2.631973   -0.272273
     45          1           0        2.238578    5.680909    0.605933
     46          1           0        0.156229    4.419601    0.436294
     47          1           0        2.455551    0.857969   -0.330862
     48          1           0       -0.878713    2.314541   -0.197862
     49          1           0       -2.166341    1.580706   -1.939447
     50          1           0       -4.427938    0.744084   -2.454465
     51          1           0       -3.695265   -2.715852    0.021955
     52          1           0       -1.428807   -1.853655    0.531055
     53          1           0       -5.884819   -1.354732   -2.619510
     54          1           0       -5.655928   -2.667613   -1.474772
     55          1           0       -7.212909    0.554636   -2.017735
     56          1           0       -8.843445    0.254056   -0.670062
     57          1           0       -7.441294    2.629095   -0.301874
     58          1           0       -5.566108    1.546037   -0.274830
     59          1           0       -8.916664    0.690754    1.613744
     60          1           0       -8.390160    2.372244    1.883408
     61          1           0       -8.061399    1.138306    3.110733
     62          1           0       -6.402318   -0.600176    2.695247
     63          1           0       -4.785054   -0.229857    1.367856
     64          1           0       -8.346954   -1.576944    1.073512
     65          1           0       -6.318112   -2.442869    0.875985
     66          1           0        5.368967    4.941078   -0.592114
     67          1           0        5.491541    4.513577    1.124071
     68          1           0        4.580766    5.937037    0.629613
 ---------------------------------------------------------------------
 Rotational constants (GHZ):      0.1533922      0.0442943      0.0360367
 Leave Link  202 at Tue Mar  3 19:03:54 2020, MaxMem= 2684354560 cpu:       0.0
 (Enter /opt/g09gh/gaussian/g09/l301.exe)
 Standard basis: 6-31G(d) (6D, 7F)
 Ernie: Thresh=  0.10000D-02 Tol=  0.10000D-05 Strict=F.
 There are   617 symmetry adapted basis functions of A   symmetry.
 Integral buffers will be    131072 words long.
 Raffenetti 2 integral format.
 Two-electron integral symmetry is turned on.
   617 basis functions,  1160 primitive gaussians,   617 cartesian basis functions
   131 alpha electrons      131 beta electrons
       nuclear repulsion energy      3665.7847652399 Hartrees.
 IExCor= 4639 DFT=T Ex+Corr=wB97XD ExCW=0 ScaHFX=  1.000000
 ScaDFX=  1.000000  1.000000  1.000000  1.000000 ScalE2=  1.000000  1.000000
 IRadAn=      0 IRanWt=     -1 IRanGd=            0 ICorTp=0
  HFx wShort=  0.000000 wLong=  0.200000 cFull=  0.222036 cShort=  0.000000 cLong=  0.777964
  DFx wShort=  0.000000 wLong=  0.200000 cFull=  0.000000 cShort=  0.000000 cLong=  1.000000
 NAtoms=   68 NActive=   68 NUniq=   68 SFac= 7.50D-01 NAtFMM=   80 NAOKFM=F Big=T
 R6Disp: Dispersion energy =        -0.0561220905 Hartrees.
 Nuclear repulsion after empirical dispersion term =     3665.7286431494 Hartrees.
 Leave Link  301 at Tue Mar  3 19:03:54 2020, MaxMem= 2684354560 cpu:       0.2
 (Enter /opt/g09gh/gaussian/g09/l302.exe)
 NPDir=0 NMtPBC=     1 NCelOv=     1 NCel=       1 NClECP=     1 NCelD=      1
         NCelK=      1 NCelE2=     1 NClLst=     1 CellRange=     0.0.
 One-electron integrals computed using PRISM.
 NBasis=   617 RedAO= T  NBF=   617
 NBsUse=   617 1.00D-06 NBFU=   617
 Precomputing XC quadrature grid using
 IXCGrd= 2 IRadAn=           0 IRanWt=          -1 IRanGd=           0 AccXCQ= 1.00D-10.
 NRdTot=    4400 NPtTot=      562590 NUsed=      594287 NTot=      594319
 NSgBfM=   581   583   584   584   584 NAtAll=    68    68.
 Leave Link  302 at Tue Mar  3 19:03:55 2020, MaxMem= 2684354560 cpu:       7.1
 (Enter /opt/g09gh/gaussian/g09/l303.exe)
 DipDrv:  MaxL=1.
 Leave Link  303 at Tue Mar  3 19:03:55 2020, MaxMem= 2684354560 cpu:       0.5
 (Enter /opt/g09gh/gaussian/g09/l401.exe)
 Harris functional with IExCor= 4639 diagonalized for initial guess.
 ExpMin= 1.61D-01 ExpMax= 5.48D+03 ExpMxC= 8.25D+02 IAcc=1 IRadAn=         1 AccDes= 0.00D+00
 HarFok:  IExCor= 4639 AccDes= 0.00D+00 IRadAn=         1 IDoV= 1
 ScaDFX=  1.000000  1.000000  1.000000  1.000000
 FoFCou: FMM=F IPFlag=           0 FMFlag=      100000 FMFlg1=           1
         NFxFlg=           0 DoJE=T BraDBF=F KetDBF=T FulRan=T
         Omega=  0.000000  0.000000  1.000000  0.000000  0.000000 ICntrl=     500 IOpCl=  0
         NMat0=    1 NMatS0=    1 NMatT0=    0 NMatD0=    1 NMtDS0=    0 NMtDT0=    0
         I1Cent=           4 NGrid=           0.
 Petite list used in FoFCou.
 Harris En= -1512.39797449034    
 Initial guess orbital symmetries:
       Occupied  (A) (A) (A) (A) (A) (A) (A) (A) (A) (A) (A) (A)
                 (A) (A) (A) (A) (A) (A) (A) (A) (A) (A) (A) (A)
                 (A) (A) (A) (A) (A) (A) (A) (A) (A) (A) (A) (A)
                 (A) (A) (A) (A) (A) (A) (A) (A) (A) (A) (A) (A)
                 (A) (A) (A) (A) (A) (A) (A) (A) (A) (A) (A) (A)
                 (A) (A) (A) (A) (A) (A) (A) (A) (A) (A) (A) (A)
                 (A) (A) (A) (A) (A) (A) (A) (A) (A) (A) (A) (A)
                 (A) (A) (A) (A) (A) (A) (A) (A) (A) (A) (A) (A)
                 (A) (A) (A) (A) (A) (A) (A) (A) (A) (A) (A) (A)
                 (A) (A) (A) (A) (A) (A) (A) (A) (A) (A) (A) (A)
                 (A) (A) (A) (A) (A) (A) (A) (A) (A) (A) (A)
       Virtual   (A) (A) (A) (A) (A) (A) (A) (A) (A) (A) (A) (A)
                 (A) (A) (A) (A) (A) (A) (A) (A) (A) (A) (A) (A)
                 (A) (A) (A) (A) (A) (A) (A) (A) (A) (A) (A) (A)
                 (A) (A) (A) (A) (A) (A) (A) (A) (A) (A) (A) (A)
                 (A) (A) (A) (A) (A) (A) (A) (A) (A) (A) (A) (A)
                 (A) (A) (A) (A) (A) (A) (A) (A) (A) (A) (A) (A)
                 (A) (A) (A) (A) (A) (A) (A) (A) (A) (A) (A) (A)
                 (A) (A) (A) (A) (A) (A) (A) (A) (A) (A) (A) (A)
                 (A) (A) (A) (A) (A) (A) (A) (A) (A) (A) (A) (A)
                 (A) (A) (A) (A) (A) (A) (A) (A) (A) (A) (A) (A)
                 (A) (A) (A) (A) (A) (A) (A) (A) (A) (A) (A) (A)
                 (A) (A) (A) (A) (A) (A) (A) (A) (A) (A) (A) (A)
                 (A) (A) (A) (A) (A) (A) (A) (A) (A) (A) (A) (A)
                 (A) (A) (A) (A) (A) (A) (A) (A) (A) (A) (A) (A)
                 (A) (A) (A) (A) (A) (A) (A) (A) (A) (A) (A) (A)
                 (A) (A) (A) (A) (A) (A) (A) (A) (A) (A) (A) (A)
                 (A) (A) (A) (A) (A) (A) (A) (A) (A) (A) (A) (A)
                 (A) (A) (A) (A) (A) (A) (A) (A) (A) (A) (A) (A)
                 (A) (A) (A) (A) (A) (A) (A) (A) (A) (A) (A) (A)
                 (A) (A) (A) (A) (A) (A) (A) (A) (A) (A) (A) (A)
                 (A) (A) (A) (A) (A) (A) (A) (A) (A) (A) (A) (A)
                 (A) (A) (A) (A) (A) (A) (A) (A) (A) (A) (A) (A)
                 (A) (A) (A) (A) (A) (A) (A) (A) (A) (A) (A) (A)
                 (A) (A) (A) (A) (A) (A) (A) (A) (A) (A) (A) (A)
                 (A) (A) (A) (A) (A) (A) (A) (A) (A) (A) (A) (A)
                 (A) (A) (A) (A) (A) (A) (A) (A) (A) (A) (A) (A)
                 (A) (A) (A) (A) (A) (A) (A) (A) (A) (A) (A) (A)
                 (A) (A) (A) (A) (A) (A) (A) (A) (A) (A) (A) (A)
                 (A) (A) (A) (A) (A) (A) (A) (A) (A) (A) (A) (A)
                 (A) (A) (A) (A) (A) (A) (A) (A) (A) (A) (A) (A)
                 (A) (A) (A) (A) (A) (A) (A) (A) (A) (A) (A) (A)
                 (A) (A) (A) (A) (A) (A) (A) (A) (A) (A) (A) (A)
                 (A) (A) (A) (A) (A) (A) (A) (A) (A) (A) (A) (A)
                 (A) (A) (A) (A) (A) (A) (A) (A) (A) (A) (A) (A)
                 (A) (A) (A) (A) (A) (A) (A) (A) (A) (A) (A) (A)
                 (A) (A) (A) (A) (A) (A) (A) (A) (A) (A) (A) (A)
                 (A) (A) (A) (A) (A) (A) (A) (A) (A) (A) (A) (A)
                 (A) (A) (A) (A) (A) (A) (A) (A) (A) (A) (A) (A)
                 (A) (A) (A) (A) (A) (A) (A) (A) (A) (A) (A) (A)
                 (A) (A) (A) (A) (A) (A) (A) (A) (A) (A) (A) (A)
                 (A) (A) (A) (A) (A) (A)
 The electronic state of the initial guess is 1-A.
 Leave Link  401 at Tue Mar  3 19:03:57 2020, MaxMem= 2684354560 cpu:      14.3
 (Enter /opt/g09gh/gaussian/g09/l502.exe)
 Closed shell SCF:
 Requested convergence on RMS density matrix=1.00D-08 within 128 cycles.
 Requested convergence on MAX density matrix=1.00D-06.
 Requested convergence on             energy=1.00D-06.
 No special actions if energy rises.
 Using DIIS extrapolation, IDIIS=  1040.
 Integral symmetry usage will be decided dynamically.
       593662 words used for storage of precomputed grid.
 IEnd=     1762242 IEndB=     1762242 NGot=  2684354560 MDV=  2682990265
 LenX=  2682990265 LenY=  2682608959
 Fock matrices will be formed incrementally for  20 cycles.
 Integral accuracy reduced to 1.0D-05 until final iterations.

 Cycle   1  Pass 0  IDiag  1:
 FoFJK:  IHMeth= 1 ICntrl=     0 DoSepK=T KAlg= 1 I1Cent= 0 FoldK=F
 FoFCou: FMM=T IPFlag=           0 FMFlag=      100000 FMFlg1=           1
         NFxFlg=           0 DoJE=T BraDBF=F KetDBF=F FulRan=T
         Omega=  0.000000  0.000000  1.000000  0.000000  0.000000 ICntrl=     500 IOpCl=  0
         NMat0=    1 NMatS0=    1 NMatT0=    0 NMatD0=    1 NMtDS0=    0 NMtDT0=    0
         I1Cent=           0 NGrid=           0.
 Symmetry not used in FoFCou.
 FMM levels:  10  Number of levels for PrismC:   9
 E= -1581.14751596462    
 DIIS: error= 6.62D-02 at cycle   1 NSaved=   1.
 NSaved= 1 IEnMin= 1 EnMin= -1581.14751596462     IErMin= 1 ErrMin= 6.62D-02
 ErrMax= 6.62D-02 EMaxC= 1.00D-01 BMatC= 1.46D+00 BMatP= 1.46D+00
 IDIUse=3 WtCom= 3.38D-01 WtEn= 6.62D-01
 Coeff-Com:  0.100D+01
 Coeff-En:   0.100D+01
 Coeff:      0.100D+01
 Gap=     0.300 Goal=   None    Shift=    0.000
 GapD=    0.300 DampG=1.000 DampE=0.500 DampFc=0.5000 IDamp=-1.
 Damping current iteration by 5.00D-01
 RMSDP=1.91D-03 MaxDP=9.20D-02              OVMax= 1.29D-01

 Cycle   2  Pass 0  IDiag  1:
 RMSU=  6.76D-04    CP:  1.00D+00
 FoFJK:  IHMeth= 1 ICntrl=     0 DoSepK=T KAlg= 1 I1Cent= 0 FoldK=F
 E= -1581.32704809875     Delta-E=       -0.179532134130 Rises=F Damp=T
 DIIS: error= 3.35D-02 at cycle   2 NSaved=   2.
 NSaved= 2 IEnMin= 2 EnMin= -1581.32704809875     IErMin= 2 ErrMin= 3.35D-02
 ErrMax= 3.35D-02 EMaxC= 1.00D-01 BMatC= 3.22D-01 BMatP= 1.46D+00
 IDIUse=3 WtCom= 6.65D-01 WtEn= 3.35D-01
 Coeff-Com: -0.658D+00 0.166D+01
 Coeff-En:   0.000D+00 0.100D+01
 Coeff:     -0.438D+00 0.144D+01
 Gap=     0.305 Goal=   None    Shift=    0.000
 RMSDP=8.59D-04 MaxDP=4.01D-02 DE=-1.80D-01 OVMax= 1.07D-01

 Cycle   3  Pass 0  IDiag  1:
 RMSU=  5.32D-04    CP:  1.00D+00  1.43D+00
 FoFJK:  IHMeth= 1 ICntrl=     0 DoSepK=T KAlg= 1 I1Cent= 0 FoldK=F
 E= -1581.46896846011     Delta-E=       -0.141920361367 Rises=F Damp=F
 DIIS: error= 6.41D-03 at cycle   3 NSaved=   3.
 NSaved= 3 IEnMin= 3 EnMin= -1581.46896846011     IErMin= 3 ErrMin= 6.41D-03
 ErrMax= 6.41D-03 EMaxC= 1.00D-01 BMatC= 5.06D-02 BMatP= 3.22D-01
 IDIUse=3 WtCom= 9.36D-01 WtEn= 6.41D-02
 Coeff-Com: -0.343D+00 0.710D+00 0.633D+00
 Coeff-En:   0.000D+00 0.000D+00 0.100D+01
 Coeff:     -0.321D+00 0.664D+00 0.657D+00
 Gap=     0.280 Goal=   None    Shift=    0.000
 RMSDP=4.15D-04 MaxDP=2.98D-02 DE=-1.42D-01 OVMax= 5.60D-02

 Cycle   4  Pass 0  IDiag  1:
 RMSU=  1.38D-04    CP:  1.00D+00  1.68D+00  6.24D-01
 FoFJK:  IHMeth= 1 ICntrl=     0 DoSepK=T KAlg= 1 I1Cent= 0 FoldK=F
 E= -1581.51389891068     Delta-E=       -0.044930450572 Rises=F Damp=F
 DIIS: error= 1.73D-03 at cycle   4 NSaved=   4.
 NSaved= 4 IEnMin= 4 EnMin= -1581.51389891068     IErMin= 4 ErrMin= 1.73D-03
 ErrMax= 1.73D-03 EMaxC= 1.00D-01 BMatC= 2.54D-03 BMatP= 5.06D-02
 IDIUse=3 WtCom= 9.83D-01 WtEn= 1.73D-02
 Coeff-Com: -0.143D+00 0.293D+00 0.332D+00 0.519D+00
 Coeff-En:   0.000D+00 0.000D+00 0.000D+00 0.100D+01
 Coeff:     -0.141D+00 0.288D+00 0.326D+00 0.527D+00
 Gap=     0.273 Goal=   None    Shift=    0.000
 RMSDP=8.47D-05 MaxDP=6.30D-03 DE=-4.49D-02 OVMax= 8.37D-03

 Cycle   5  Pass 0  IDiag  1:
 RMSU=  4.06D-05    CP:  1.00D+00  1.67D+00  6.81D-01  7.74D-01
 FoFJK:  IHMeth= 1 ICntrl=     0 DoSepK=T KAlg= 1 I1Cent= 0 FoldK=F
 E= -1581.51612596016     Delta-E=       -0.002227049471 Rises=F Damp=F
 DIIS: error= 2.35D-04 at cycle   5 NSaved=   5.
 NSaved= 5 IEnMin= 5 EnMin= -1581.51612596016     IErMin= 5 ErrMin= 2.35D-04
 ErrMax= 2.35D-04 EMaxC= 1.00D-01 BMatC= 6.76D-05 BMatP= 2.54D-03
 IDIUse=3 WtCom= 9.98D-01 WtEn= 2.35D-03
 Coeff-Com: -0.474D-02 0.864D-02 0.342D-01 0.145D+00 0.817D+00
 Coeff-En:   0.000D+00 0.000D+00 0.000D+00 0.000D+00 0.100D+01
 Coeff:     -0.473D-02 0.862D-02 0.341D-01 0.144D+00 0.818D+00
 Gap=     0.272 Goal=   None    Shift=    0.000
 RMSDP=2.35D-05 MaxDP=2.13D-03 DE=-2.23D-03 OVMax= 2.68D-03

 Cycle   6  Pass 0  IDiag  1:
 RMSU=  1.28D-05    CP:  1.00D+00  1.67D+00  6.89D-01  8.37D-01  9.94D-01
 FoFJK:  IHMeth= 1 ICntrl=     0 DoSepK=T KAlg= 1 I1Cent= 0 FoldK=F
 E= -1581.51620218186     Delta-E=       -0.000076221706 Rises=F Damp=F
 DIIS: error= 1.63D-04 at cycle   6 NSaved=   6.
 NSaved= 6 IEnMin= 6 EnMin= -1581.51620218186     IErMin= 6 ErrMin= 1.63D-04
 ErrMax= 1.63D-04 EMaxC= 1.00D-01 BMatC= 2.11D-05 BMatP= 6.76D-05
 IDIUse=3 WtCom= 9.98D-01 WtEn= 1.63D-03
 Coeff-Com:  0.193D-01-0.401D-01-0.315D-01-0.122D-01 0.402D+00 0.662D+00
 Coeff-En:   0.000D+00 0.000D+00 0.000D+00 0.000D+00 0.000D+00 0.100D+01
 Coeff:      0.193D-01-0.400D-01-0.314D-01-0.122D-01 0.401D+00 0.663D+00
 Gap=     0.273 Goal=   None    Shift=    0.000
 RMSDP=1.16D-05 MaxDP=7.36D-04 DE=-7.62D-05 OVMax= 1.44D-03

 Cycle   7  Pass 0  IDiag  1:
 RMSU=  5.10D-06    CP:  1.00D+00  1.68D+00  6.93D-01  8.63D-01  1.11D+00
                    CP:  9.02D-01
 FoFJK:  IHMeth= 1 ICntrl=     0 DoSepK=T KAlg= 1 I1Cent= 0 FoldK=F
 E= -1581.51622573495     Delta-E=       -0.000023553092 Rises=F Damp=F
 DIIS: error= 3.91D-05 at cycle   7 NSaved=   7.
 NSaved= 7 IEnMin= 7 EnMin= -1581.51622573495     IErMin= 7 ErrMin= 3.91D-05
 ErrMax= 3.91D-05 EMaxC= 1.00D-01 BMatC= 1.94D-06 BMatP= 2.11D-05
 IDIUse=1 WtCom= 1.00D+00 WtEn= 0.00D+00
 Coeff-Com:  0.889D-02-0.182D-01-0.172D-01-0.246D-01 0.591D-01 0.260D+00
 Coeff-Com:  0.732D+00
 Coeff:      0.889D-02-0.182D-01-0.172D-01-0.246D-01 0.591D-01 0.260D+00
 Coeff:      0.732D+00
 Gap=     0.273 Goal=   None    Shift=    0.000
 RMSDP=4.06D-06 MaxDP=2.56D-04 DE=-2.36D-05 OVMax= 6.69D-04

 Initial convergence to 1.0D-05 achieved.  Increase integral accuracy.
 Cycle   8  Pass 1  IDiag  1:
 FoFJK:  IHMeth= 1 ICntrl=     0 DoSepK=T KAlg= 1 I1Cent= 0 FoldK=F
 E= -1581.51461293214     Delta-E=        0.001612802811 Rises=F Damp=F
 DIIS: error= 1.01D-04 at cycle   1 NSaved=   1.
 NSaved= 1 IEnMin= 1 EnMin= -1581.51461293214     IErMin= 1 ErrMin= 1.01D-04
 ErrMax= 1.01D-04 EMaxC= 1.00D-01 BMatC= 1.35D-05 BMatP= 1.35D-05
 IDIUse=3 WtCom= 9.99D-01 WtEn= 1.01D-03
 Coeff-Com:  0.100D+01
 Coeff-En:   0.100D+01
 Coeff:      0.100D+01
 Gap=     0.273 Goal=   None    Shift=    0.000
 RMSDP=4.06D-06 MaxDP=2.56D-04 DE= 1.61D-03 OVMax= 3.76D-04

 Cycle   9  Pass 1  IDiag  1:
 RMSU=  2.00D-05    CP:  1.00D+00
 FoFJK:  IHMeth= 1 ICntrl=     0 DoSepK=T KAlg= 1 I1Cent= 0 FoldK=F
 E= -1581.51462352295     Delta-E=       -0.000010590808 Rises=F Damp=F
 DIIS: error= 2.45D-05 at cycle   2 NSaved=   2.
 NSaved= 2 IEnMin= 2 EnMin= -1581.51462352295     IErMin= 2 ErrMin= 2.45D-05
 ErrMax= 2.45D-05 EMaxC= 1.00D-01 BMatC= 9.42D-07 BMatP= 1.35D-05
 IDIUse=1 WtCom= 1.00D+00 WtEn= 0.00D+00
 Coeff-Com:  0.573D-01 0.943D+00
 Coeff:      0.573D-01 0.943D+00
 Gap=     0.273 Goal=   None    Shift=    0.000
 RMSDP=3.36D-06 MaxDP=2.80D-04 DE=-1.06D-05 OVMax= 3.57D-04

 Cycle  10  Pass 1  IDiag  1:
 RMSU=  2.20D-06    CP:  1.00D+00  1.04D+00
 FoFJK:  IHMeth= 1 ICntrl=     0 DoSepK=T KAlg= 1 I1Cent= 0 FoldK=F
 E= -1581.51462353889     Delta-E=       -0.000000015938 Rises=F Damp=F
 DIIS: error= 3.51D-05 at cycle   3 NSaved=   3.
 NSaved= 3 IEnMin= 3 EnMin= -1581.51462353889     IErMin= 2 ErrMin= 2.45D-05
 ErrMax= 3.51D-05 EMaxC= 1.00D-01 BMatC= 1.17D-06 BMatP= 9.42D-07
 IDIUse=1 WtCom= 1.00D+00 WtEn= 0.00D+00
 Coeff-Com: -0.368D-01 0.541D+00 0.496D+00
 Coeff:     -0.368D-01 0.541D+00 0.496D+00
 Gap=     0.273 Goal=   None    Shift=    0.000
 RMSDP=1.75D-06 MaxDP=1.82D-04 DE=-1.59D-08 OVMax= 1.76D-04

 Cycle  11  Pass 1  IDiag  1:
 RMSU=  7.09D-07    CP:  1.00D+00  1.06D+00  5.54D-01
 FoFJK:  IHMeth= 1 ICntrl=     0 DoSepK=T KAlg= 1 I1Cent= 0 FoldK=F
 E= -1581.51462450091     Delta-E=       -0.000000962015 Rises=F Damp=F
 DIIS: error= 6.16D-06 at cycle   4 NSaved=   4.
 NSaved= 4 IEnMin= 4 EnMin= -1581.51462450091     IErMin= 4 ErrMin= 6.16D-06
 ErrMax= 6.16D-06 EMaxC= 1.00D-01 BMatC= 2.80D-08 BMatP= 9.42D-07
 IDIUse=1 WtCom= 1.00D+00 WtEn= 0.00D+00
 Coeff-Com: -0.179D-01 0.145D+00 0.184D+00 0.689D+00
 Coeff:     -0.179D-01 0.145D+00 0.184D+00 0.689D+00
 Gap=     0.273 Goal=   None    Shift=    0.000
 RMSDP=3.68D-07 MaxDP=3.90D-05 DE=-9.62D-07 OVMax= 3.53D-05

 Cycle  12  Pass 1  IDiag  1:
 RMSU=  2.36D-07    CP:  1.00D+00  1.06D+00  6.02D-01  9.94D-01
 FoFJK:  IHMeth= 1 ICntrl=     0 DoSepK=T KAlg= 1 I1Cent= 0 FoldK=F
 E= -1581.51462452749     Delta-E=       -0.000000026586 Rises=F Damp=F
 DIIS: error= 1.77D-06 at cycle   5 NSaved=   5.
 NSaved= 5 IEnMin= 5 EnMin= -1581.51462452749     IErMin= 5 ErrMin= 1.77D-06
 ErrMax= 1.77D-06 EMaxC= 1.00D-01 BMatC= 4.95D-09 BMatP= 2.80D-08
 IDIUse=1 WtCom= 1.00D+00 WtEn= 0.00D+00
 Coeff-Com: -0.756D-03-0.308D-01-0.111D-01 0.282D+00 0.760D+00
 Coeff:     -0.756D-03-0.308D-01-0.111D-01 0.282D+00 0.760D+00
 Gap=     0.273 Goal=   None    Shift=    0.000
 RMSDP=1.98D-07 MaxDP=1.02D-05 DE=-2.66D-08 OVMax= 3.37D-05

 Cycle  13  Pass 1  IDiag  1:
 RMSU=  9.17D-08    CP:  1.00D+00  1.06D+00  6.20D-01  1.13D+00  9.83D-01
 FoFJK:  IHMeth= 1 ICntrl=     0 DoSepK=T KAlg= 1 I1Cent= 0 FoldK=F
 E= -1581.51462453435     Delta-E=       -0.000000006862 Rises=F Damp=F
 DIIS: error= 6.83D-07 at cycle   6 NSaved=   6.
 NSaved= 6 IEnMin= 6 EnMin= -1581.51462453435     IErMin= 6 ErrMin= 6.83D-07
 ErrMax= 6.83D-07 EMaxC= 1.00D-01 BMatC= 5.29D-10 BMatP= 4.95D-09
 IDIUse=1 WtCom= 1.00D+00 WtEn= 0.00D+00
 Coeff-Com:  0.177D-02-0.269D-01-0.277D-01 0.134D-01 0.256D+00 0.784D+00
 Coeff:      0.177D-02-0.269D-01-0.277D-01 0.134D-01 0.256D+00 0.784D+00
 Gap=     0.273 Goal=   None    Shift=    0.000
 RMSDP=8.33D-08 MaxDP=3.98D-06 DE=-6.86D-09 OVMax= 1.38D-05

 Cycle  14  Pass 1  IDiag  1:
 RMSU=  3.56D-08    CP:  1.00D+00  1.06D+00  6.23D-01  1.18D+00  1.11D+00
                    CP:  1.10D+00
 FoFJK:  IHMeth= 1 ICntrl=     0 DoSepK=T KAlg= 1 I1Cent= 0 FoldK=F
 E= -1581.51462453545     Delta-E=       -0.000000001101 Rises=F Damp=F
 DIIS: error= 3.94D-07 at cycle   7 NSaved=   7.
 NSaved= 7 IEnMin= 7 EnMin= -1581.51462453545     IErMin= 7 ErrMin= 3.94D-07
 ErrMax= 3.94D-07 EMaxC= 1.00D-01 BMatC= 9.00D-11 BMatP= 5.29D-10
 IDIUse=1 WtCom= 1.00D+00 WtEn= 0.00D+00
 Coeff-Com:  0.713D-03-0.347D-02-0.836D-02-0.474D-01-0.420D-01 0.267D+00
 Coeff-Com:  0.834D+00
 Coeff:      0.713D-03-0.347D-02-0.836D-02-0.474D-01-0.420D-01 0.267D+00
 Coeff:      0.834D+00
 Gap=     0.273 Goal=   None    Shift=    0.000
 RMSDP=4.24D-08 MaxDP=1.76D-06 DE=-1.10D-09 OVMax= 8.62D-06

 Cycle  15  Pass 1  IDiag  1:
 RMSU=  1.41D-08    CP:  1.00D+00  1.06D+00  6.25D-01  1.20D+00  1.16D+00
                    CP:  1.29D+00  1.11D+00
 FoFJK:  IHMeth= 1 ICntrl=     0 DoSepK=T KAlg= 1 I1Cent= 0 FoldK=F
 E= -1581.51462453565     Delta-E=       -0.000000000194 Rises=F Damp=F
 DIIS: error= 1.23D-07 at cycle   8 NSaved=   8.
 NSaved= 8 IEnMin= 8 EnMin= -1581.51462453565     IErMin= 8 ErrMin= 1.23D-07
 ErrMax= 1.23D-07 EMaxC= 1.00D-01 BMatC= 1.66D-11 BMatP= 9.00D-11
 IDIUse=1 WtCom= 1.00D+00 WtEn= 0.00D+00
 Coeff-Com:  0.593D-05 0.295D-02 0.113D-02-0.210D-01-0.541D-01-0.233D-01
 Coeff-Com:  0.321D+00 0.774D+00
 Coeff:      0.593D-05 0.295D-02 0.113D-02-0.210D-01-0.541D-01-0.233D-01
 Coeff:      0.321D+00 0.774D+00
 Gap=     0.273 Goal=   None    Shift=    0.000
 RMSDP=1.68D-08 MaxDP=8.07D-07 DE=-1.94D-10 OVMax= 3.52D-06

 Cycle  16  Pass 1  IDiag  1:
 RMSU=  5.87D-09    CP:  1.00D+00  1.06D+00  6.26D-01  1.21D+00  1.18D+00
                    CP:  1.35D+00  1.29D+00  1.04D+00
 FoFJK:  IHMeth= 1 ICntrl=     0 DoSepK=T KAlg= 1 I1Cent= 0 FoldK=F
 E= -1581.51462453576     Delta-E=       -0.000000000108 Rises=F Damp=F
 DIIS: error= 7.33D-08 at cycle   9 NSaved=   9.
 NSaved= 9 IEnMin= 9 EnMin= -1581.51462453576     IErMin= 9 ErrMin= 7.33D-08
 ErrMax= 7.33D-08 EMaxC= 1.00D-01 BMatC= 2.73D-12 BMatP= 1.66D-11
 IDIUse=1 WtCom= 1.00D+00 WtEn= 0.00D+00
 Coeff-Com: -0.134D-03 0.183D-02 0.207D-02 0.298D-03-0.135D-01-0.615D-01
 Coeff-Com: -0.321D-01 0.288D+00 0.815D+00
 Coeff:     -0.134D-03 0.183D-02 0.207D-02 0.298D-03-0.135D-01-0.615D-01
 Coeff:     -0.321D-01 0.288D+00 0.815D+00
 Gap=     0.273 Goal=   None    Shift=    0.000
 RMSDP=7.32D-09 MaxDP=3.39D-07 DE=-1.08D-10 OVMax= 1.47D-06

 SCF Done:  E(RwB97XD) =  -1581.51462454     A.U. after   16 cycles
             Convg  =    0.7316D-08             -V/T =  2.0110
 KE= 1.564313236339D+03 PE=-1.100082780299D+04 EE= 4.189271298968D+03
 Leave Link  502 at Tue Mar  3 19:06:32 2020, MaxMem= 2684354560 cpu:     924.6
 (Enter /opt/g09gh/gaussian/g09/l601.exe)
 Copying SCF densities to generalized density rwf, IOpCl= 0 IROHF=0.

 **********************************************************************

            Population analysis using the SCF density.

 **********************************************************************

 Orbital symmetries:
       Occupied  (A) (A) (A) (A) (A) (A) (A) (A) (A) (A) (A) (A)
                 (A) (A) (A) (A) (A) (A) (A) (A) (A) (A) (A) (A)
                 (A) (A) (A) (A) (A) (A) (A) (A) (A) (A) (A) (A)
                 (A) (A) (A) (A) (A) (A) (A) (A) (A) (A) (A) (A)
                 (A) (A) (A) (A) (A) (A) (A) (A) (A) (A) (A) (A)
                 (A) (A) (A) (A) (A) (A) (A) (A) (A) (A) (A) (A)
                 (A) (A) (A) (A) (A) (A) (A) (A) (A) (A) (A) (A)
                 (A) (A) (A) (A) (A) (A) (A) (A) (A) (A) (A) (A)
                 (A) (A) (A) (A) (A) (A) (A) (A) (A) (A) (A) (A)
                 (A) (A) (A) (A) (A) (A) (A) (A) (A) (A) (A) (A)
                 (A) (A) (A) (A) (A) (A) (A) (A) (A) (A) (A)
       Virtual   (A) (A) (A) (A) (A) (A) (A) (A) (A) (A) (A) (A)
                 (A) (A) (A) (A) (A) (A) (A) (A) (A) (A) (A) (A)
                 (A) (A) (A) (A) (A) (A) (A) (A) (A) (A) (A) (A)
                 (A) (A) (A) (A) (A) (A) (A) (A) (A) (A) (A) (A)
                 (A) (A) (A) (A) (A) (A) (A) (A) (A) (A) (A) (A)
                 (A) (A) (A) (A) (A) (A) (A) (A) (A) (A) (A) (A)
                 (A) (A) (A) (A) (A) (A) (A) (A) (A) (A) (A) (A)
                 (A) (A) (A) (A) (A) (A) (A) (A) (A) (A) (A) (A)
                 (A) (A) (A) (A) (A) (A) (A) (A) (A) (A) (A) (A)
                 (A) (A) (A) (A) (A) (A) (A) (A) (A) (A) (A) (A)
                 (A) (A) (A) (A) (A) (A) (A) (A) (A) (A) (A) (A)
                 (A) (A) (A) (A) (A) (A) (A) (A) (A) (A) (A) (A)
                 (A) (A) (A) (A) (A) (A) (A) (A) (A) (A) (A) (A)
                 (A) (A) (A) (A) (A) (A) (A) (A) (A) (A) (A) (A)
                 (A) (A) (A) (A) (A) (A) (A) (A) (A) (A) (A) (A)
                 (A) (A) (A) (A) (A) (A) (A) (A) (A) (A) (A) (A)
                 (A) (A) (A) (A) (A) (A) (A) (A) (A) (A) (A) (A)
                 (A) (A) (A) (A) (A) (A) (A) (A) (A) (A) (A) (A)
                 (A) (A) (A) (A) (A) (A) (A) (A) (A) (A) (A) (A)
                 (A) (A) (A) (A) (A) (A) (A) (A) (A) (A) (A) (A)
                 (A) (A) (A) (A) (A) (A) (A) (A) (A) (A) (A) (A)
                 (A) (A) (A) (A) (A) (A) (A) (A) (A) (A) (A) (A)
                 (A) (A) (A) (A) (A) (A) (A) (A) (A) (A) (A) (A)
                 (A) (A) (A) (A) (A) (A) (A) (A) (A) (A) (A) (A)
                 (A) (A) (A) (A) (A) (A) (A) (A) (A) (A) (A) (A)
                 (A) (A) (A) (A) (A) (A) (A) (A) (A) (A) (A) (A)
                 (A) (A) (A) (A) (A) (A) (A) (A) (A) (A) (A) (A)
                 (A) (A) (A) (A) (A) (A) (A) (A) (A) (A) (A) (A)
                 (A) (A) (A) (A) (A) (A) (A) (A) (A) (A) (A) (A)
                 (A) (A) (A) (A) (A) (A) (A) (A) (A) (A) (A) (A)
                 (A) (A) (A) (A) (A) (A) (A) (A) (A) (A) (A) (A)
                 (A) (A) (A) (A) (A) (A) (A) (A) (A) (A) (A) (A)
                 (A) (A) (A) (A) (A) (A) (A) (A) (A) (A) (A) (A)
                 (A) (A) (A) (A) (A) (A) (A) (A) (A) (A) (A) (A)
                 (A) (A) (A) (A) (A) (A) (A) (A) (A) (A) (A) (A)
                 (A) (A) (A) (A) (A) (A) (A) (A) (A) (A) (A) (A)
                 (A) (A) (A) (A) (A) (A) (A) (A) (A) (A) (A) (A)
                 (A) (A) (A) (A) (A) (A) (A) (A) (A) (A) (A) (A)
                 (A) (A) (A) (A) (A) (A) (A) (A) (A) (A) (A) (A)
                 (A) (A) (A) (A) (A) (A) (A) (A) (A) (A) (A) (A)
                 (A) (A) (A) (A) (A) (A)
 The electronic state is 1-A.
 Alpha  occ. eigenvalues --  -19.24042 -14.49545 -14.48586 -14.46865 -14.44948
 Alpha  occ. eigenvalues --  -14.44927 -14.44763 -14.43939 -10.41295 -10.41062
 Alpha  occ. eigenvalues --  -10.37175 -10.36965 -10.36379 -10.36168 -10.35912
 Alpha  occ. eigenvalues --  -10.35447 -10.35420 -10.35151 -10.34465 -10.33163
 Alpha  occ. eigenvalues --  -10.32385 -10.32376 -10.32340 -10.32178 -10.32170
 Alpha  occ. eigenvalues --  -10.32019 -10.31663 -10.31357 -10.31347 -10.31250
 Alpha  occ. eigenvalues --  -10.31150 -10.30872 -10.30865 -10.30541 -10.30339
 Alpha  occ. eigenvalues --  -10.30287 -10.28972  -1.14379  -1.10432  -1.03787
 Alpha  occ. eigenvalues --   -1.03726  -1.03181  -1.02503  -0.99772  -0.98792
 Alpha  occ. eigenvalues --   -0.96556  -0.94521  -0.90746  -0.88567  -0.87814
 Alpha  occ. eigenvalues --   -0.86496  -0.85426  -0.85324  -0.83862  -0.83522
 Alpha  occ. eigenvalues --   -0.82193  -0.79584  -0.78060  -0.76262  -0.75460
 Alpha  occ. eigenvalues --   -0.73005  -0.72114  -0.71654  -0.70977  -0.70874
 Alpha  occ. eigenvalues --   -0.70128  -0.69126  -0.68307  -0.66463  -0.64450
 Alpha  occ. eigenvalues --   -0.62501  -0.62264  -0.60988  -0.60276  -0.59111
 Alpha  occ. eigenvalues --   -0.58637  -0.57457  -0.56887  -0.56129  -0.55920
 Alpha  occ. eigenvalues --   -0.55096  -0.54815  -0.54423  -0.54008  -0.53520
 Alpha  occ. eigenvalues --   -0.53244  -0.52863  -0.52859  -0.52413  -0.51542
 Alpha  occ. eigenvalues --   -0.51375  -0.50998  -0.50708  -0.50320  -0.50189
 Alpha  occ. eigenvalues --   -0.49550  -0.49357  -0.48745  -0.48082  -0.47728
 Alpha  occ. eigenvalues --   -0.47418  -0.46990  -0.46548  -0.46309  -0.45500
 Alpha  occ. eigenvalues --   -0.44912  -0.44531  -0.44172  -0.43909  -0.43693
 Alpha  occ. eigenvalues --   -0.43318  -0.42768  -0.42593  -0.40655  -0.40277
 Alpha  occ. eigenvalues --   -0.39186  -0.38198  -0.37785  -0.35894  -0.35589
 Alpha  occ. eigenvalues --   -0.34439  -0.34292  -0.33513  -0.33442  -0.32582
 Alpha  occ. eigenvalues --   -0.31733  -0.31639  -0.31426  -0.29377  -0.27165
 Alpha  occ. eigenvalues --   -0.26350
 Alpha virt. eigenvalues --    0.00950   0.02328   0.04455   0.05352   0.06083
 Alpha virt. eigenvalues --    0.07283   0.07754   0.08751   0.09862   0.10800
 Alpha virt. eigenvalues --    0.12196   0.13074   0.13749   0.15654   0.16362
 Alpha virt. eigenvalues --    0.16882   0.17580   0.18089   0.18580   0.19699
 Alpha virt. eigenvalues --    0.20245   0.20345   0.21284   0.21571   0.22497
 Alpha virt. eigenvalues --    0.22612   0.22938   0.23159   0.23517   0.23794
 Alpha virt. eigenvalues --    0.24373   0.24630   0.25018   0.25222   0.25551
 Alpha virt. eigenvalues --    0.25743   0.25808   0.26245   0.26851   0.26901
 Alpha virt. eigenvalues --    0.27458   0.27922   0.28147   0.28400   0.28836
 Alpha virt. eigenvalues --    0.29153   0.29614   0.30022   0.30507   0.30804
 Alpha virt. eigenvalues --    0.31602   0.32596   0.32754   0.33565   0.33640
 Alpha virt. eigenvalues --    0.34710   0.35138   0.35803   0.37150   0.37802
 Alpha virt. eigenvalues --    0.38209   0.38707   0.39453   0.39774   0.39879
 Alpha virt. eigenvalues --    0.40181   0.40330   0.40719   0.41528   0.43018
 Alpha virt. eigenvalues --    0.43688   0.44445   0.46535   0.47171   0.47780
 Alpha virt. eigenvalues --    0.49215   0.51292   0.51819   0.53575   0.54676
 Alpha virt. eigenvalues --    0.55427   0.56250   0.57083   0.58050   0.58648
 Alpha virt. eigenvalues --    0.58966   0.59331   0.59645   0.59893   0.60631
 Alpha virt. eigenvalues --    0.61087   0.61189   0.61434   0.61584   0.61800
 Alpha virt. eigenvalues --    0.62668   0.62817   0.63439   0.63837   0.64057
 Alpha virt. eigenvalues --    0.64476   0.64829   0.65031   0.65806   0.66092
 Alpha virt. eigenvalues --    0.66481   0.66616   0.66818   0.66867   0.67308
 Alpha virt. eigenvalues --    0.67581   0.67973   0.68073   0.68180   0.68715
 Alpha virt. eigenvalues --    0.68890   0.69039   0.69209   0.69877   0.70403
 Alpha virt. eigenvalues --    0.70682   0.71249   0.71274   0.71761   0.72273
 Alpha virt. eigenvalues --    0.72534   0.72723   0.73030   0.73457   0.74279
 Alpha virt. eigenvalues --    0.74791   0.75551   0.76105   0.77288   0.77303
 Alpha virt. eigenvalues --    0.78045   0.78623   0.78697   0.79601   0.80208
 Alpha virt. eigenvalues --    0.80486   0.81147   0.81557   0.82256   0.82819
 Alpha virt. eigenvalues --    0.83839   0.84374   0.84963   0.85114   0.86100
 Alpha virt. eigenvalues --    0.86667   0.87080   0.87840   0.87918   0.88709
 Alpha virt. eigenvalues --    0.89116   0.89302   0.90108   0.90262   0.90908
 Alpha virt. eigenvalues --    0.91170   0.91308   0.91865   0.92576   0.93113
 Alpha virt. eigenvalues --    0.93328   0.93388   0.93665   0.93998   0.94166
 Alpha virt. eigenvalues --    0.94848   0.95329   0.95898   0.96060   0.96577
 Alpha virt. eigenvalues --    0.97342   0.97503   0.97636   0.97745   0.98465
 Alpha virt. eigenvalues --    0.99205   0.99515   0.99956   1.00013   1.00802
 Alpha virt. eigenvalues --    1.01073   1.01307   1.01671   1.02423   1.02831
 Alpha virt. eigenvalues --    1.03237   1.03342   1.03769   1.04165   1.05760
[...]
                 (A) (A) (A) (A) (A) (A) (A) (A) (A) (A) (A) (A)
                 (A) (A) (A) (A) (A) (A) (A) (A) (A) (A) (A) (A)
                 (A) (A) (A) (A) (A) (A) (A) (A) (A) (A) (A) (A)
                 (A) (A) (A) (A) (A) (A) (A) (A) (A) (A) (A) (A)
                 (A) (A) (A) (A) (A) (A) (A) (A) (A) (A) (A) (A)
                 (A) (A) (A) (A) (A) (A) (A) (A) (A) (A) (A) (A)
                 (A) (A) (A) (A) (A) (A) (A) (A) (A) (A) (A) (A)
                 (A) (A) (A) (A) (A) (A) (A) (A) (A) (A) (A) (A)
                 (A) (A) (A) (A) (A) (A) (A) (A) (A) (A) (A) (A)
                 (A) (A) (A) (A) (A) (A) (A) (A) (A) (A) (A) (A)
                 (A) (A) (A) (A) (A) (A) (A) (A) (A) (A) (A) (A)
                 (A) (A) (A) (A) (A) (A) (A) (A) (A) (A) (A) (A)
                 (A) (A) (A) (A) (A) (A) (A) (A) (A) (A) (A) (A)
                 (A) (A) (A) (A) (A) (A) (A) (A) (A) (A) (A) (A)
                 (A) (A) (A) (A) (A) (A) (A) (A) (A) (A) (A) (A)
                 (A) (A) (A) (A) (A) (A) (A) (A) (A) (A) (A) (A)
                 (A) (A) (A) (A) (A) (A) (A) (A) (A) (A) (A) (A)
                 (A) (A) (A) (A) (A) (A) (A) (A) (A) (A) (A) (A)
                 (A) (A) (A) (A) (A) (A) (A) (A) (A) (A) (A) (A)
                 (A) (A) (A) (A) (A) (A) (A) (A) (A) (A) (A) (A)
                 (A) (A) (A) (A) (A) (A) (A) (A) (A) (A) (A) (A)
                 (A) (A) (A) (A) (A) (A) (A) (A) (A) (A) (A) (A)
                 (A) (A) (A) (A) (A) (A) (A) (A) (A) (A) (A) (A)
                 (A) (A) (A) (A) (A) (A) (A) (A) (A) (A) (A) (A)
                 (A) (A) (A) (A) (A) (A) (A) (A) (A) (A) (A) (A)
                 (A) (A) (A) (A) (A) (A) (A) (A) (A) (A) (A) (A)
                 (A) (A) (A) (A) (A) (A) (A) (A) (A) (A) (A) (A)
                 (A) (A) (A) (A) (A) (A) (A) (A) (A) (A) (A) (A)
                 (A) (A) (A) (A) (A) (A) (A) (A) (A) (A) (A) (A)
                 (A) (A) (A) (A) (A) (A) (A) (A) (A) (A) (A) (A)
                 (A) (A) (A) (A) (A) (A) (A) (A) (A) (A) (A) (A)
                 (A) (A) (A) (A) (A) (A) (A) (A) (A) (A) (A) (A)
                 (A) (A) (A) (A) (A) (A)
 The electronic state is 1-A.
 Alpha  occ. eigenvalues --  -19.23545 -14.48818 -14.48262 -14.44938 -14.44686
 Alpha  occ. eigenvalues --  -14.44527 -14.43553 -14.43046 -10.40635 -10.40317
 Alpha  occ. eigenvalues --  -10.36334 -10.35157 -10.34167 -10.34165 -10.33548
 Alpha  occ. eigenvalues --  -10.32884 -10.32433 -10.32408 -10.31744 -10.31292
 Alpha  occ. eigenvalues --  -10.31250 -10.31163 -10.31082 -10.31079 -10.30835
 Alpha  occ. eigenvalues --  -10.30657 -10.30612 -10.30554 -10.30536 -10.30467
 Alpha  occ. eigenvalues --  -10.30254 -10.30131 -10.29960 -10.29902 -10.29837
 Alpha  occ. eigenvalues --  -10.29370 -10.27859  -1.13812  -1.11140  -1.04432
 Alpha  occ. eigenvalues --   -1.03911  -1.03790  -1.03295  -0.99505  -0.99457
 Alpha  occ. eigenvalues --   -0.96177  -0.94468  -0.91603  -0.88656  -0.87814
 Alpha  occ. eigenvalues --   -0.86275  -0.85857  -0.85349  -0.84660  -0.83409
 Alpha  occ. eigenvalues --   -0.81855  -0.79396  -0.77714  -0.76803  -0.75781
 Alpha  occ. eigenvalues --   -0.73211  -0.72869  -0.72256  -0.71391  -0.70549
 Alpha  occ. eigenvalues --   -0.70080  -0.69303  -0.67877  -0.66165  -0.64620
 Alpha  occ. eigenvalues --   -0.63608  -0.63089  -0.61671  -0.60637  -0.59412
 Alpha  occ. eigenvalues --   -0.58088  -0.57641  -0.56690  -0.55952  -0.55730
 Alpha  occ. eigenvalues --   -0.55235  -0.54923  -0.54639  -0.54253  -0.53838
 Alpha  occ. eigenvalues --   -0.53665  -0.53272  -0.53082  -0.52589  -0.51898
 Alpha  occ. eigenvalues --   -0.51249  -0.50998  -0.50593  -0.50299  -0.50235
 Alpha  occ. eigenvalues --   -0.50060  -0.49422  -0.48911  -0.48462  -0.48247
 Alpha  occ. eigenvalues --   -0.47426  -0.46686  -0.46312  -0.46132  -0.45461
 Alpha  occ. eigenvalues --   -0.45070  -0.44743  -0.44621  -0.44046  -0.43942
 Alpha  occ. eigenvalues --   -0.43354  -0.42548  -0.42164  -0.41436  -0.40896
 Alpha  occ. eigenvalues --   -0.40850  -0.40540  -0.39081  -0.37719  -0.36051
 Alpha  occ. eigenvalues --   -0.34440  -0.34039  -0.33664  -0.33056  -0.32438
 Alpha  occ. eigenvalues --   -0.32062  -0.31653  -0.30742  -0.28984  -0.26770
 Alpha  occ. eigenvalues --   -0.24924
 Alpha virt. eigenvalues --    0.01046   0.03342   0.04642   0.05861   0.06311
 Alpha virt. eigenvalues --    0.08275   0.08757   0.11064   0.14260   0.15579
 Alpha virt. eigenvalues --    0.16492   0.17092   0.17477   0.17842   0.19059
 Alpha virt. eigenvalues --    0.19366   0.20138   0.20275   0.20812   0.21639
 Alpha virt. eigenvalues --    0.22217   0.22608   0.22742   0.23134   0.23409
 Alpha virt. eigenvalues --    0.23717   0.23813   0.24372   0.24846   0.25031
 Alpha virt. eigenvalues --    0.25226   0.25491   0.26188   0.26561   0.26897
 Alpha virt. eigenvalues --    0.26925   0.27172   0.27856   0.27982   0.28682
 Alpha virt. eigenvalues --    0.28899   0.29194   0.29664   0.30093   0.30196
 Alpha virt. eigenvalues --    0.30922   0.31384   0.31886   0.32316   0.32698
 Alpha virt. eigenvalues --    0.33073   0.33837   0.34252   0.34546   0.34748
 Alpha virt. eigenvalues --    0.35829   0.36219   0.36589   0.38116   0.38393
 Alpha virt. eigenvalues --    0.39094   0.39682   0.39972   0.40289   0.41022
 Alpha virt. eigenvalues --    0.41241   0.41402   0.41962   0.42427   0.43481
 Alpha virt. eigenvalues --    0.44854   0.45859   0.46235   0.47100   0.48674
 Alpha virt. eigenvalues --    0.49826   0.51415   0.52227   0.53213   0.55380
 Alpha virt. eigenvalues --    0.56699   0.57420   0.58156   0.58241   0.58615
 Alpha virt. eigenvalues --    0.60147   0.60255   0.60813   0.61179   0.61356
 Alpha virt. eigenvalues --    0.61482   0.61775   0.61943   0.62299   0.62531
 Alpha virt. eigenvalues --    0.63362   0.63831   0.64483   0.64844   0.65139
 Alpha virt. eigenvalues --    0.65253   0.65640   0.65872   0.66186   0.66636
 Alpha virt. eigenvalues --    0.66935   0.67207   0.67454   0.67575   0.67663
 Alpha virt. eigenvalues --    0.68096   0.68524   0.68983   0.69239   0.69655
 Alpha virt. eigenvalues --    0.70324   0.70570   0.70894   0.70984   0.71320
 Alpha virt. eigenvalues --    0.71482   0.72125   0.72429   0.72754   0.72950
 Alpha virt. eigenvalues --    0.73643   0.73935   0.74658   0.75025   0.75760
 Alpha virt. eigenvalues --    0.76010   0.76436   0.76904   0.77445   0.78166
 Alpha virt. eigenvalues --    0.78990   0.79462   0.79579   0.80295   0.81608
 Alpha virt. eigenvalues --    0.81685   0.82613   0.83663   0.84024   0.84453
 Alpha virt. eigenvalues --    0.84710   0.85179   0.86195   0.87790   0.88445
 Alpha virt. eigenvalues --    0.89359   0.89651   0.90356   0.90584   0.90631
 Alpha virt. eigenvalues --    0.91181   0.91323   0.91753   0.92036   0.92529
 Alpha virt. eigenvalues --    0.92729   0.93190   0.93767   0.94006   0.94513
 Alpha virt. eigenvalues --    0.94596   0.95046   0.95470   0.95652   0.96294
 Alpha virt. eigenvalues --    0.96423   0.96869   0.97421   0.97741   0.98136
 Alpha virt. eigenvalues --    0.98247   0.98695   0.99163   0.99448   0.99703
 Alpha virt. eigenvalues --    1.00107   1.00848   1.01587   1.02118   1.02330
 Alpha virt. eigenvalues --    1.02385   1.03125   1.03658   1.04069   1.04440
 Alpha virt. eigenvalues --    1.05370   1.05465   1.06134   1.06578   1.06841
 Alpha virt. eigenvalues --    1.07486   1.08143   1.08692   1.09115   1.09375
 Alpha virt. eigenvalues --    1.10457   1.11012   1.11366   1.12088   1.12821
 Alpha virt. eigenvalues --    1.13268   1.13899   1.14407   1.14618   1.16288
 Alpha virt. eigenvalues --    1.16501   1.17087   1.18022   1.18736   1.20311
 Alpha virt. eigenvalues --    1.21933   1.22919   1.23735   1.24073   1.25374
 Alpha virt. eigenvalues --    1.25673   1.26543   1.26846   1.27319   1.28309
 Alpha virt. eigenvalues --    1.28959   1.29518   1.30732   1.31203   1.31613
 Alpha virt. eigenvalues --    1.32308   1.32580   1.33793   1.34487   1.34949
 Alpha virt. eigenvalues --    1.36758   1.37058   1.37710   1.38533   1.39846
 Alpha virt. eigenvalues --    1.40587   1.42611   1.43260   1.43792   1.45303
 Alpha virt. eigenvalues --    1.47635   1.47995   1.48282   1.48539   1.49005
 Alpha virt. eigenvalues --    1.49765   1.50314   1.50720   1.51013   1.51832
 Alpha virt. eigenvalues --    1.52115   1.53610   1.54371   1.54658   1.55514
 Alpha virt. eigenvalues --    1.55882   1.56357   1.56954   1.57183   1.57739
 Alpha virt. eigenvalues --    1.57939   1.58529   1.59355   1.59660   1.60354
 Alpha virt. eigenvalues --    1.60706   1.62002   1.62830   1.63135   1.64000
 Alpha virt. eigenvalues --    1.64445   1.65750   1.66420   1.66846   1.67910
 Alpha virt. eigenvalues --    1.69333   1.70391   1.74808   1.75645   1.77776
 Alpha virt. eigenvalues --    1.80686   1.80799   1.82316   1.82572   1.84290
 Alpha virt. eigenvalues --    1.86001   1.86176   1.87633   1.88012   1.88431
 Alpha virt. eigenvalues --    1.89340   1.89676   1.90300   1.90968   1.91658
 Alpha virt. eigenvalues --    1.91716   1.92702   1.93564   1.93851   1.94374
 Alpha virt. eigenvalues --    1.94861   1.94873   1.96446   1.97139   1.98292
 Alpha virt. eigenvalues --    1.99196   2.00050   2.00210   2.00392   2.00867
 Alpha virt. eigenvalues --    2.01467   2.02770   2.03298   2.03922   2.04937
 Alpha virt. eigenvalues --    2.05525   2.06483   2.06745   2.07178   2.08232
 Alpha virt. eigenvalues --    2.08379   2.08626   2.09628   2.10489   2.11530
 Alpha virt. eigenvalues --    2.12134   2.13283   2.13906   2.14797   2.15919
 Alpha virt. eigenvalues --    2.17049   2.17626   2.18297   2.19849   2.20486
 Alpha virt. eigenvalues --    2.21130   2.21714   2.21988   2.22783   2.22942
 Alpha virt. eigenvalues --    2.23368   2.24045   2.24680   2.25340   2.25611
 Alpha virt. eigenvalues --    2.25827   2.26602   2.27262   2.27874   2.28266
 Alpha virt. eigenvalues --    2.29695   2.29884   2.30667   2.32630   2.33883
 Alpha virt. eigenvalues --    2.35175   2.35978   2.36232   2.37021   2.37260
 Alpha virt. eigenvalues --    2.37953   2.38568   2.39021   2.39606   2.40208
 Alpha virt. eigenvalues --    2.40432   2.40783   2.42650   2.43549   2.43881
 Alpha virt. eigenvalues --    2.44177   2.44971   2.45123   2.45919   2.46008
 Alpha virt. eigenvalues --    2.47597   2.47994   2.48143   2.49301   2.49526
 Alpha virt. eigenvalues --    2.50537   2.51555   2.51967   2.53134   2.55681
 Alpha virt. eigenvalues --    2.59333   2.60012   2.60982   2.62326   2.63512
 Alpha virt. eigenvalues --    2.65786   2.66259   2.66633   2.67791   2.68702
 Alpha virt. eigenvalues --    2.70187   2.71181   2.71791   2.72495   2.72878
 Alpha virt. eigenvalues --    2.74322   2.74756   2.74844   2.76747   2.77557
 Alpha virt. eigenvalues --    2.78031   2.78720   2.79035   2.80950   2.81848
 Alpha virt. eigenvalues --    2.82949   2.84227   2.84567   2.85778   2.86400
 Alpha virt. eigenvalues --    2.86585   2.87256   2.88197   2.88381   2.89247
 Alpha virt. eigenvalues --    2.90089   2.91811   2.92737   2.93898   2.94245
 Alpha virt. eigenvalues --    2.95540   2.96657   2.98167   3.01156   3.03455
 Alpha virt. eigenvalues --    3.04833   3.06613   3.08917   3.10736   3.15485
 Alpha virt. eigenvalues --    3.20538   3.27600   3.31012   3.37665   3.43365
 Alpha virt. eigenvalues --    3.46126   3.53607   3.57173   3.58065   4.12701
 Alpha virt. eigenvalues --    4.14501   4.16944   4.17410   4.18063   4.19404
 Alpha virt. eigenvalues --    4.20530   4.21510   4.21955   4.24334   4.25525
 Alpha virt. eigenvalues --    4.26837   4.27771   4.29017   4.30933   4.32642
 Alpha virt. eigenvalues --    4.33770   4.34078   4.38752   4.40148   4.41171
 Alpha virt. eigenvalues --    4.44027   4.45805   4.46040   4.48748   4.50288
 Alpha virt. eigenvalues --    4.50721   4.53435   4.56925   4.60518   4.63035
 Alpha virt. eigenvalues --    4.64042   4.67661   4.68452   4.81134   4.85113
 Alpha virt. eigenvalues --    4.89700
          Condensed to atoms (all electrons):
 Mulliken atomic charges:
              1
     1  C   -0.200739
     2  C   -0.155511
     3  C    0.023645
     4  C    0.049322
     5  N   -0.432714
     6  C    0.030777
     7  C    0.296852
     8  C   -0.251929
     9  C    0.047645
    10  N   -0.498169
    11  C    0.706683
    12  N   -0.555603
    13  N   -0.798428
    14  C    0.287403
    15  C    0.116993
    16  C   -0.228369
    17  C   -0.229463
    18  C    0.339733
    19  C   -0.225841
    20  N   -0.763494
    21  C    0.586840
    22  C    0.011219
    23  C   -0.207623
    24  C   -0.221210
    25  C    0.161000
    26  C   -0.234092
    27  C   -0.174421
    28  C   -0.264009
    29  N   -0.380777
    30  C   -0.184514
    31  C   -0.180670
    32  N   -0.385449
    33  C   -0.349766
    34  C   -0.183290
    35  C   -0.186292
    36  O   -0.502715
    37  C   -0.606185
    38  H    0.178090
    39  H    0.178503
    40  H    0.204373
    41  H    0.173643
    42  H    0.176318
    43  H    0.184179
    44  H    0.366017
    45  H    0.157737
    46  H    0.154566
    47  H    0.262584
    48  H    0.355440
    49  H    0.169770
    50  H    0.162098
    51  H    0.164824
    52  H    0.229005
    53  H    0.168821
    54  H    0.170192
    55  H    0.150700
    56  H    0.159934
    57  H    0.150968
    58  H    0.164137
    59  H    0.135409
    60  H    0.165941
    61  H    0.167862
    62  H    0.154219
    63  H    0.172905
    64  H    0.159559
    65  H    0.154198
    66  H    0.179219
    67  H    0.186056
    68  H    0.185894
 Sum of Mulliken atomic charges =   0.00000
 Mulliken charges with hydrogens summed into heavy atoms:
              1
     1  C   -0.022649
     2  C    0.022993
     3  C    0.023645
     4  C    0.253695
     5  N   -0.432714
     6  C    0.204420
     7  C    0.296852
     8  C   -0.075611
     9  C    0.231824
    10  N   -0.498169
    11  C    0.706683
    12  N   -0.555603
    13  N   -0.432411
    14  C    0.287403
    15  C    0.116993
    16  C   -0.070631
    17  C   -0.074896
    18  C    0.339733
    19  C    0.036742
    20  N   -0.408054
    21  C    0.586840
    22  C    0.011219
    23  C   -0.037853
    24  C   -0.059112
    25  C    0.161000
    26  C   -0.069267
    27  C    0.054584
    28  C    0.075004
    29  N   -0.380777
    30  C    0.126119
    31  C    0.134435
    32  N   -0.385449
    33  C    0.119446
    34  C    0.143834
    35  C    0.127465
    36  O   -0.502715
    37  C   -0.055016
 Sum of Mulliken charges with hydrogens summed into heavy atoms =   0.00000
 Electronic spatial extent (au):  <R**2>=          24640.2997
 Charge=              0.0000 electrons
 Dipole moment (field-independent basis, Debye):
    X=              0.1809    Y=              0.1299    Z=              0.8403  Tot=              0.8693
 Quadrupole moment (field-independent basis, Debye-Ang):
   XX=           -191.6752   YY=           -178.9297   ZZ=           -221.5746
   XY=            -11.2511   XZ=             -6.2328   YZ=              2.6696
 Traceless Quadrupole moment (field-independent basis, Debye-Ang):
   XX=              5.7180   YY=             18.4635   ZZ=            -24.1815
   XY=            -11.2511   XZ=             -6.2328   YZ=              2.6696
 Octapole moment (field-independent basis, Debye-Ang**2):
  XXX=            -77.3966  YYY=             48.5417  ZZZ=             10.2097  XYY=            -71.4475
  XXY=             21.1990  XXZ=             33.9858  XZZ=             29.8040  YZZ=             -4.3826
  YYZ=              0.4584  XYZ=             20.4183
 Hexadecapole moment (field-independent basis, Debye-Ang**3):
 XXXX=         -23847.1979 YYYY=          -6427.0312 ZZZZ=          -1841.5024 XXXY=           -565.2963
 XXXZ=             68.9619 YYYX=           -117.8367 YYYZ=           -101.0549 ZZZX=             53.0660
 ZZZY=             16.8798 XXYY=          -4663.9233 XXZZ=          -4318.7087 YYZZ=          -1600.7019
 XXYZ=             68.6250 YYXZ=            -59.7159 ZZXY=              8.4216
 N-N= 3.804169232414D+03 E-N=-1.128118819768D+04  KE= 1.567138630621D+03
 No NMR shielding tensors so no spin-rotation constants.
 Leave Link  601 at Tue Mar  3 20:44:02 2020, MaxMem= 2684354560 cpu:       2.6
 (Enter /opt/g09gh/gaussian/g09/l9999.exe)
 1\1\GINC-NODE47\FOpt\RwB97XD\6-31G(d)\C29H31N7O1\BDW2292\03-Mar-2020\0
 \\#P opt=(,maxcycle=400) wB97XD/6-31G* MaxDisk=100GB\\MOLECULE0 Rotata
 ble Bond Optimization on node37.bme.utexas.edu\\0,1\C,-1.7799910581,-8
 .8385550823,-0.4996331533\C,-0.3944936367,-8.9249440219,-0.4980348885\
 C,0.3576341527,-7.7911224284,-0.1899844526\C,-0.3406172323,-6.61045438
 35,0.0951915231\N,-1.6700108969,-6.5155401089,0.0988311129\C,-2.367000
 7565,-7.6155493354,-0.1948676739\C,1.8422885811,-7.7992455188,-0.17517
 40151\C,2.5936974357,-8.9704575376,-0.0800522314\C,3.976613339,-8.8212
 225737,-0.098157422\N,4.587521373,-7.6475394046,-0.1872050854\C,3.7694
 51577,-6.5777007887,-0.2521197108\N,2.4381074473,-6.6048391931,-0.2542
 30051\N,4.4338084412,-5.3799420546,-0.3151649977\C,3.9545575019,-4.060
 2853664,-0.3103066755\C,4.8565864075,-3.0421177559,0.0563265907\C,4.38
 24731774,-1.733619749,0.0722182237\C,3.0684959311,-1.4192164201,-0.245
 5881467\C,2.1919001112,-2.4403607217,-0.6134171975\C,2.6405035996,-3.7
 589487784,-0.6689497577\N,0.8516663451,-2.0927003841,-0.8828774617\C,-
 0.1678859668,-2.9121013887,-1.3024891717\C,-1.5243060636,-2.2724604265
 ,-1.3051620139\C,-1.7414644976,-0.9396146659,-1.6593760846\C,-3.029071
 3484,-0.4155202262,-1.644492866\C,-4.117325204,-1.1990390162,-1.257192
 3107\C,-3.8893439826,-2.5390304597,-0.9338397625\C,-2.6105720822,-3.08
 01022249,-0.9609356516\C,-5.513880507,-0.6024065456,-1.161727151\N,-5.
 9065760376,0.0181530294,0.0923407317\C,-5.2918261728,1.2942684023,0.43
 71721655\C,-4.0442525281,1.1654505685,1.3278409587\N,-4.2718549079,0.3
 492470101,2.5169199099\C,-5.0523319207,1.0151598069,3.5447862162\C,-4.
 8011156796,-0.9553151827,2.1255493365\C,-6.0622484475,-0.8549840575,1.
 250195646\O,-0.0207425601,-4.0801628188,-1.6215074251\C,6.2833032859,-
 3.350995307,0.4321641186\H,-2.3942006191,-9.6993371272,-0.7417766889\H
 ,0.0891819414,-9.861748161,-0.7583274433\H,0.2111844033,-5.7045090755,
 0.3181980832\H,-3.4498229254,-7.5099189446,-0.1907017413\H,2.142877874
 2,-9.9493141057,0.0214112148\H,4.6271264342,-9.6913064087,-0.033142012
 1\H,5.4328961743,-5.5057630007,-0.2535728706\H,5.062805409,-0.93409285
 44,0.3540429613\H,2.7291631991,-0.3872851497,-0.2052994828\H,1.9671298
 807,-4.5428127699,-0.9686160814\H,0.5780982196,-1.1747722768,-0.565198
 5727\H,-0.9141725878,-0.3146708589,-1.9880323198\H,-3.1904775109,0.619
 6204182,-1.9372429081\H,-4.729560979,-3.1697118108,-0.6516023748\H,-2.
 434857186,-4.1226129317,-0.7046696778\H,-5.6304537312,0.1544965292,-1.
 9474323235\H,-6.2468375203,-1.39057359,-1.3753764997\H,-5.0471796483,1
 .8303583903,-0.4869874309\H,-6.0440423174,1.9005701367,0.9637520141\H,
 -3.7042597455,2.1603009563,1.6410906008\H,-3.2303059117,0.7010801944,0
 .7588538562\H,-6.0868675054,1.2780822712,3.2618004664\H,-4.5429862181,
 1.9405307675,3.8354778603\H,-5.1045539755,0.3692878756,4.4280144179\H,
 -5.0168228713,-1.5341703703,3.0316300535\H,-4.0116700112,-1.4829590546
 ,1.5774638758\H,-6.8924013007,-0.4651223491,1.8579513429\H,-6.36437071
 03,-1.8504607616,0.9057272094\H,6.8465861045,-3.7893210885,-0.40293231
 36\H,6.3414501869,-4.0513142709,1.274936797\H,6.8095462278,-2.43933346
 91,0.7267088121\\Version=EM64L-G09RevA.02\State=1-A\HF=-1581.7601912\R
 MSD=8.467e-09\RMSF=7.006e-06\Dipole=-0.0727859,-0.0244518,0.3332744\Qu
 adrupole=-0.0603596,18.7254603,-18.6651007,2.352845,1.8131744,-1.38173
 6\PG=C01 [X(C29H31N7O1)]\\@


 Mondays are the potholes in the road of life.
                                -- Tom Wilson
 Job cpu time:  0 days  9 hours 58 minutes  2.1 seconds.
 File lengths (MBytes):  RWF=    244 Int=      0 D2E=      0 Chk=     25 Scr=      1
 Normal termination of Gaussian 09 at Tue Mar  3 20:44:02 2020.
