
    -----------------------------------------------------------------------
          Psi4: An Open-Source Ab Initio Electronic Structure Package
                               Psi4 1.3.2 release

                         Git: Rev {HEAD} ecbda83 


    R. M. Parrish, L. A. Burns, D. G. A. Smith, A. C. Simmonett,
    A. E. DePrince III, E. G. Hohenstein, U. Bozkaya, A. Yu. Sokolov,
    R. Di Remigio, R. M. Richard, J. F. Gonthier, A. M. James,
    H. R. McAlexander, A. Kumar, M. Saitow, X. Wang, B. P. Pritchard,
    P. Verma, H. F. Schaefer III, K. Patkowski, R. A. King, E. F. Valeev,
    F. A. Evangelista, J. M. Turney, T. D. Crawford, and C. D. Sherrill,
    J. Chem. Theory Comput. 13(7) pp 3185--3197 (2017).
    (doi: 10.1021/acs.jctc.7b00174)


                         Additional Contributions by
    P. Kraus, H. Kruse, M. H. Lechner, M. C. Schieber, R. A. Shaw,
    A. Alenaizan, R. Galvelis, Z. L. Glick, S. Lehtola, and J. P. Misiewicz

    -----------------------------------------------------------------------


    Psi4 started on: Wednesday, 04 March 2020 05:45AM

    Process ID: 4589
    Host:       node37.bme.utexas.edu
    PSIDATADIR: /home/bdw2292/miniconda3/envs/p4env/share/psi4
    Memory:     500.0 MiB
    Threads:    1
    
  ==> Input File <==

--------------------------------------------------------------------------
molecule { 
0 1
 C   -0.398615    4.134297    1.310801
 C    0.972108    3.972341    1.563253
 C    1.621760    2.781950    1.180861
 C    0.800158    1.820025    0.541704
 N   -0.505942    1.955453    0.287250
 C   -1.092989    3.099361    0.671662
 C    3.097607    2.524393    1.378681
 C    4.031470    3.427853    1.909850
 C    5.360419    2.985049    1.927032
 N    5.771136    1.798548    1.483608
 C    4.804171    0.986662    1.007507
 N    3.510890    1.314206    0.958734
 N    5.215693   -0.260828    0.544838
 C    4.498837   -1.343762   -0.091128
 C    5.204101   -2.367302   -0.792892
 C    4.430488   -3.353816   -1.433697
 C    3.028634   -3.398701   -1.408477
 C    2.363117   -2.416544   -0.671062
 C    3.104701   -1.416726   -0.032720
 N    0.967133   -2.259625   -0.494240
 C    0.082154   -2.954030    0.292047
 C   -1.394015   -2.706587    0.055841
 C   -1.956129   -2.454761   -1.205246
 C   -3.309236   -2.127169   -1.318568
 C   -4.162293   -2.127343   -0.198211
 C   -3.599583   -2.458690    1.048619
 C   -2.237458   -2.735968    1.179129
 C   -5.631177   -1.721684   -0.323827
 N   -5.998897   -0.294315   -0.296058
 C   -5.728573    0.553782   -1.480904
 C   -4.457883    1.444069   -1.407727
 N   -4.335609    2.257484   -0.172613
 C   -5.133413    3.490762   -0.139142
 C   -4.474887    1.347772    0.987143
 C   -5.748780    0.468467    0.948082
 O    0.444319   -3.724990    1.163446
 C    6.717942   -2.398561   -0.908348
 H   -0.919227    5.043843    1.595350
 H    1.505827    4.782705    2.054080
 H    1.227520    0.890054    0.188696
 H   -2.154390    3.186582    0.446816
 H    3.779747    4.420850    2.261498
 H    6.147320    3.633942    2.311068
 H    6.219344   -0.340221    0.611782
 H    4.937205   -4.135745   -1.998770
 H    2.474258   -4.177173   -1.917290
 H    2.574920   -0.671802    0.535941
 H    0.567687   -1.562719   -1.108366
 H   -1.316530   -2.451000   -2.084250
 H   -3.706364   -1.880119   -2.303154
 H   -4.218948   -2.458268    1.945022
 H   -1.802554   -2.955876    2.150994
 H   -6.019113   -2.134773   -1.266575
 H   -6.194248   -2.197568    0.492343
 H   -5.747691   -0.050147   -2.399002
 H   -6.932648    1.569994   -1.586786
 H   -4.391099    2.164844   -2.365453
 H   -3.277456    0.544818   -1.441874
 H   -6.206118    3.268682   -0.161675
 H   -4.885115    4.124658   -0.998233
 H   -4.911197    4.057887    0.772270
 H   -4.397375    1.911510    1.904426
 H   -3.252749    0.366886    0.935257
 H   -6.943320    1.435343    1.136583
 H   -5.731346   -0.391548    2.040033
 H    7.193302   -2.482759    0.079262
 H    7.103730   -1.485257   -1.382969
 H    7.084942   -3.243630   -1.506997
}
memory 20GB
set_num_threads(6)
psi4_io.set_default_path("/scratch/bdw2292")
set freeze_core True
E, wfn = energy('mp2/6-311++G**',return_wfn=True)
oeprop(wfn,"WIBERG_LOWDIN_INDICES")
clean()
--------------------------------------------------------------------------

  Memory set to  18.626 GiB by Python driver.
  Threads set to 6 by Python driver.
    SCF Algorithm Type (re)set to DF.

*** tstart() called on node37.bme.utexas.edu
*** at Wed Mar  4 05:45:49 2020

   => Loading Basis Set <=

    Name: 6-311++G**
    Role: ORBITAL
    Keyword: BASIS
    atoms 1-4, 6-9, 11, 14-19, 21-28, 30-31, 33-35, 37 entry C          line   119 file /home/bdw2292/miniconda3/envs/p4env/share/psi4/basis/6-311ppgss.gbs 
    atoms 5, 10, 12-13, 20, 29, 32                     entry N          line   140 file /home/bdw2292/miniconda3/envs/p4env/share/psi4/basis/6-311ppgss.gbs 
    atoms 36                                           entry O          line   161 file /home/bdw2292/miniconda3/envs/p4env/share/psi4/basis/6-311ppgss.gbs 
    atoms 38-68                                        entry H          line    42 file /home/bdw2292/miniconda3/envs/p4env/share/psi4/basis/6-311ppgss.gbs 


         ---------------------------------------------------------
                                   SCF
               by Justin Turney, Rob Parrish, Andy Simmonett
                          and Daniel G. A. Smith
                              RHF Reference
                        6 Threads,  19073 MiB Core
         ---------------------------------------------------------

  ==> Geometry <==

    Molecular point group: c1
    Full point group: C1

    Geometry (in Angstrom), charge = 0, multiplicity = 1:

       Center              X                  Y                   Z               Mass       
    ------------   -----------------  -----------------  -----------------  -----------------
         C           -0.497813919977     4.180722330266     1.097946337662    12.000000000000
         C            0.872909080023     4.018766330266     1.350398337662    12.000000000000
         C            1.522561080023     2.828375330266     0.968006337662    12.000000000000
         C            0.700959080023     1.866450330266     0.328849337662    12.000000000000
         N           -0.605140919977     2.001878330266     0.074395337662    14.003074004430
         C           -1.192187919977     3.145786330266     0.458807337662    12.000000000000
         C            2.998408080023     2.570818330266     1.165826337662    12.000000000000
         C            3.932271080023     3.474278330266     1.696995337662    12.000000000000
         C            5.261220080023     3.031474330266     1.714177337662    12.000000000000
         N            5.671937080023     1.844973330266     1.270753337662    14.003074004430
         C            4.704972080023     1.033087330266     0.794652337662    12.000000000000
         N            3.411691080023     1.360631330266     0.745879337662    14.003074004430
         N            5.116494080023    -0.214402669734     0.331983337662    14.003074004430
         C            4.399638080023    -1.297336669734    -0.303982662338    12.000000000000
         C            5.104902080023    -2.320876669734    -1.005746662338    12.000000000000
         C            4.331289080023    -3.307390669734    -1.646551662338    12.000000000000
         C            2.929435080023    -3.352275669734    -1.621331662338    12.000000000000
         C            2.263918080023    -2.370118669734    -0.883916662338    12.000000000000
         C            3.005502080023    -1.370300669734    -0.245574662338    12.000000000000
         N            0.867934080023    -2.213199669734    -0.707094662338    14.003074004430
         C           -0.017044919977    -2.907604669734     0.079192337662    12.000000000000
         C           -1.493213919977    -2.660161669734    -0.157013662338    12.000000000000
         C           -2.055327919977    -2.408335669734    -1.418100662338    12.000000000000
         C           -3.408434919977    -2.080743669734    -1.531422662338    12.000000000000
         C           -4.261491919977    -2.080917669734    -0.411065662338    12.000000000000
         C           -3.698781919977    -2.412264669734     0.835764337662    12.000000000000
         C           -2.336656919977    -2.689542669734     0.966274337662    12.000000000000
         C           -5.730375919977    -1.675258669734    -0.536681662338    12.000000000000
         N           -6.098095919977    -0.247889669734    -0.508912662338    14.003074004430
         C           -5.827771919977     0.600207330266    -1.693758662338    12.000000000000
         C           -4.557081919977     1.490494330266    -1.620581662338    12.000000000000
         N           -4.434807919977     2.303909330266    -0.385467662338    14.003074004430
         C           -5.232611919977     3.537187330266    -0.351996662338    12.000000000000
         C           -4.574085919977     1.394197330266     0.774288337662    12.000000000000
         C           -5.847978919977     0.514892330266     0.735227337662    12.000000000000
         O            0.345120080023    -3.678564669734     0.950591337662    15.994914619570
         C            6.618743080023    -2.352135669734    -1.121202662338    12.000000000000
         H           -1.018425919977     5.090268330266     1.382495337662     1.007825032230
         H            1.406628080023     4.829130330266     1.841225337662     1.007825032230
         H            1.128321080023     0.936479330266    -0.024158662338     1.007825032230
         H           -2.253588919977     3.233007330266     0.233961337662     1.007825032230
         H            3.680548080023     4.467275330266     2.048643337662     1.007825032230
         H            6.048121080023     3.680367330266     2.098213337662     1.007825032230
         H            6.120145080023    -0.293795669734     0.398927337662     1.007825032230
         H            4.838006080023    -4.089319669734    -2.211624662338     1.007825032230
         H            2.375059080023    -4.130747669734    -2.130144662338     1.007825032230
         H            2.475721080023    -0.625376669734     0.323086337662     1.007825032230
         H            0.468488080023    -1.516293669734    -1.321220662338     1.007825032230
         H           -1.415728919977    -2.404574669734    -2.297104662338     1.007825032230
         H           -3.805562919977    -1.833693669734    -2.516008662338     1.007825032230
         H           -4.318146919977    -2.411842669734     1.732167337662     1.007825032230
         H           -1.901752919977    -2.909450669734     1.938139337662     1.007825032230
         H           -6.118311919977    -2.088347669734    -1.479429662338     1.007825032230
         H           -6.293446919977    -2.151142669734     0.279488337662     1.007825032230
         H           -5.846889919977    -0.003721669734    -2.611856662338     1.007825032230
         H           -7.031846919977     1.616419330266    -1.799640662338     1.007825032230
         H           -4.490297919977     2.211269330266    -2.578307662338     1.007825032230
         H           -3.376654919977     0.591243330266    -1.654728662338     1.007825032230
         H           -6.305316919977     3.315107330266    -0.374529662338     1.007825032230
         H           -4.984313919977     4.171083330266    -1.211087662338     1.007825032230
         H           -5.010395919977     4.104312330266     0.559415337662     1.007825032230
         H           -4.496573919977     1.957935330266     1.691571337662     1.007825032230
         H           -3.351947919977     0.413311330266     0.722402337662     1.007825032230
         H           -7.042518919977     1.481768330266     0.923728337662     1.007825032230
         H           -5.830544919977    -0.345122669734     1.827178337662     1.007825032230
         H            7.094103080023    -2.436333669734    -0.133592662338     1.007825032230
         H            7.004531080023    -1.438831669734    -1.595823662338     1.007825032230
         H            6.985743080023    -3.197204669734    -1.719851662338     1.007825032230

  Running in c1 symmetry.

  Rotational constants: A =      0.00479  B =      0.00207  C =      0.00154 [cm^-1]
  Rotational constants: A =    143.51799  B =     62.14383  C =     46.20195 [MHz]
  Nuclear repulsion = 3818.236860150228040

  Charge       = 0
  Multiplicity = 1
  Electrons    = 262
  Nalpha       = 131
  Nbeta        = 131

  ==> Algorithm <==

  SCF Algorithm Type is DF.
  DIIS enabled.
  MOM disabled.
  Fractional occupation disabled.
  Guess Type is SAD.
  Energy threshold   = 1.00e-08
  Density threshold  = 1.00e-08
  Integral threshold = 0.00e+00

  ==> Primary Basis <==

  Basis Set: 6-311++G**
    Blend: 6-311++G**
    Number of shells: 525
    Number of basis function: 1031
    Number of Cartesian functions: 1068
    Spherical Harmonics?: true
    Max angular momentum: 2

   => Loading Basis Set <=

    Name: (6-311++G** AUX)
    Role: JKFIT
    Keyword: DF_BASIS_SCF
    atoms 1-4, 6-9, 11, 14-19, 21-28, 30-31, 33-35, 37 entry C          line   162 file /home/bdw2292/miniconda3/envs/p4env/share/psi4/basis/aug-cc-pvtz-jkfit.gbs 
    atoms 5, 10, 12-13, 20, 29, 32                     entry N          line   224 file /home/bdw2292/miniconda3/envs/p4env/share/psi4/basis/aug-cc-pvtz-jkfit.gbs 
    atoms 36                                           entry O          line   286 file /home/bdw2292/miniconda3/envs/p4env/share/psi4/basis/aug-cc-pvtz-jkfit.gbs 
    atoms 38-68                                        entry H          line    70 file /home/bdw2292/miniconda3/envs/p4env/share/psi4/basis/aug-cc-pvtz-jkfit.gbs 

  ==> Pre-Iterations <==

   -------------------------------------------------------
    Irrep   Nso     Nmo     Nalpha   Nbeta   Ndocc  Nsocc
   -------------------------------------------------------
     A       1031    1031       0       0       0       0
   -------------------------------------------------------
    Total    1031    1031     131     131     131       0
   -------------------------------------------------------

  ==> Integral Setup <==

  ==> DiskDFJK: Density-Fitted J/K Matrices <==

    J tasked:                  Yes
    K tasked:                  Yes
    wK tasked:                  No
    OpenMP threads:              6
    Integrals threads:           6
    Memory [MiB]:            14305
    Algorithm:                Disk
    Integral Cache:           NONE
    Schwarz Cutoff:          1E-12
    Fitting Condition:       1E-10

   => Auxiliary Basis Set <=

  Basis Set: (6-311++G** AUX)
    Blend: AUG-CC-PVTZ-JKFIT
    Number of shells: 1544
    Number of basis function: 5274
    Number of Cartesian functions: 6552
    Spherical Harmonics?: true
    Max angular momentum: 4

  Minimum eigenvalue in the overlap matrix is 1.5387904673E-07.
  Using Symmetric Orthogonalization.

  SCF Guess: Superposition of Atomic Densities via on-the-fly atomic UHF.

  ==> Iterations <==

                           Total Energy        Delta E     RMS |[F,P]|

   @DF-RHF iter SAD: -1571.19009855167633   -1.57119e+03   0.00000e+00 
   @DF-RHF iter   1: -1571.29458305978187   -1.04485e-01   1.21078e-03 DIIS
   @DF-RHF iter   2: -1572.06648779861234   -7.71905e-01   6.34501e-04 DIIS
   @DF-RHF iter   3: -1572.25519182386961   -1.88704e-01   1.64043e-04 DIIS
   @DF-RHF iter   4: -1572.27230751466891   -1.71157e-02   6.52359e-05 DIIS
   @DF-RHF iter   5: -1572.27489318677272   -2.58567e-03   1.33585e-05 DIIS
   @DF-RHF iter   6: -1572.27505550957108   -1.62323e-04   6.19538e-06 DIIS
   @DF-RHF iter   7: -1572.27509496650555   -3.94569e-05   2.12561e-06 DIIS
   @DF-RHF iter   8: -1572.27510177403065   -6.80753e-06   8.61458e-07 DIIS
   @DF-RHF iter   9: -1572.27510296115315   -1.18712e-06   3.63416e-07 DIIS
   @DF-RHF iter  10: -1572.27510322316584   -2.62013e-07   1.71988e-07 DIIS
   @DF-RHF iter  11: -1572.27510328518929   -6.20234e-08   8.22146e-08 DIIS
   @DF-RHF iter  12: -1572.27510330184464   -1.66553e-08   3.52210e-08 DIIS
   @DF-RHF iter  13: -1572.27510330512541   -3.28077e-09   1.33379e-08 DIIS
   @DF-RHF iter  14: -1572.27510330538394   -2.58524e-10   6.65048e-09 DIIS
  Energy and wave function converged.


  ==> Post-Iterations <==

    Orbital Energies [Eh]
    ---------------------

    Doubly Occupied:                                                      

       1A    -20.514515     2A    -15.600411     3A    -15.586591  
       4A    -15.577796     5A    -15.569371     6A    -15.568884  
       7A    -15.566127     8A    -15.560549     9A    -11.370017  
      10A    -11.357873    11A    -11.337664    12A    -11.326868  
      13A    -11.316227    14A    -11.309293    15A    -11.308396  
      16A    -11.302471    17A    -11.297164    18A    -11.285388  
      19A    -11.280956    20A    -11.280331    21A    -11.279165  
      22A    -11.277163    23A    -11.267242    24A    -11.256866  
      25A    -11.256826    26A    -11.256005    27A    -11.255394  
      28A    -11.254824    29A    -11.250654    30A    -11.248213  
      31A    -11.247566    32A    -11.245946    33A    -11.244949  
      34A    -11.242625    35A    -11.238119    36A    -11.237343  
      37A    -11.225135    38A     -1.380617    39A     -1.337700  
      40A     -1.262375    41A     -1.250646    42A     -1.246744  
      43A     -1.235339    44A     -1.208548    45A     -1.202474  
      46A     -1.161944    47A     -1.138851    48A     -1.103500  
      49A     -1.066812    50A     -1.058408    51A     -1.038636  
      52A     -1.035315    53A     -1.024262    54A     -1.007789  
      55A     -0.999163    56A     -0.981031    57A     -0.948006  
      58A     -0.930970    59A     -0.916040    60A     -0.893902  
      61A     -0.868281    62A     -0.860481    63A     -0.849099  
      64A     -0.847450    65A     -0.837777    66A     -0.831563  
      67A     -0.819887    68A     -0.805237    69A     -0.778335  
      70A     -0.744049    71A     -0.740156    72A     -0.725608  
      73A     -0.713827    74A     -0.701117    75A     -0.692315  
      76A     -0.677814    77A     -0.673507    78A     -0.658654  
      79A     -0.657814    80A     -0.654229    81A     -0.649465  
      82A     -0.648760    83A     -0.635614    84A     -0.631083  
      85A     -0.624702    86A     -0.621799    87A     -0.618318  
      88A     -0.612277    89A     -0.608815    90A     -0.600561  
      91A     -0.596404    92A     -0.594508    93A     -0.593076  
      94A     -0.583278    95A     -0.582314    96A     -0.577124  
      97A     -0.575546    98A     -0.572930    99A     -0.562136  
     100A     -0.547815   101A     -0.544527   102A     -0.536021  
     103A     -0.530500   104A     -0.525744   105A     -0.524098  
     106A     -0.517903   107A     -0.514769   108A     -0.506905  
     109A     -0.503490   110A     -0.501186   111A     -0.497808  
     112A     -0.489851   113A     -0.479130   114A     -0.470091  
     115A     -0.469475   116A     -0.442575   117A     -0.430616  
     118A     -0.426789   119A     -0.422860   120A     -0.405071  
     121A     -0.401165   122A     -0.389300   123A     -0.385661  
     124A     -0.381974   125A     -0.367567   126A     -0.345832  
     127A     -0.341514   128A     -0.335166   129A     -0.328645  
     130A     -0.314332   131A     -0.296043  

    Virtual:                                                              

     132A      0.030575   133A      0.037175   134A      0.038603  
     135A      0.043595   136A      0.045358   137A      0.047586  
     138A      0.051918   139A      0.054267   140A      0.055774  
     141A      0.059891   142A      0.064202   143A      0.065588  
     144A      0.068808   145A      0.071924   146A      0.074440  
     147A      0.076378   148A      0.080829   149A      0.083150  
     150A      0.084359   151A      0.086153   152A      0.089056  
     153A      0.089973   154A      0.092943   155A      0.094066  
     156A      0.097856   157A      0.103209   158A      0.106385  
     159A      0.107565   160A      0.108996   161A      0.111240  
     162A      0.113457   163A      0.115596   164A      0.117616  
     165A      0.122268   166A      0.123725   167A      0.124073  
     168A      0.126528   169A      0.129165   170A      0.132188  
     171A      0.134812   172A      0.138114   173A      0.143791  
     174A      0.145957   175A      0.147387   176A      0.150691  
     177A      0.152334   178A      0.153290   179A      0.153972  
     180A      0.157435   181A      0.157948   182A      0.161132  
     183A      0.162088   184A      0.165210   185A      0.166480  
     186A      0.166973   187A      0.169396   188A      0.173406  
     189A      0.175627   190A      0.177417   191A      0.177917  
     192A      0.179295   193A      0.183221   194A      0.183506  
     195A      0.185241   196A      0.187809   197A      0.188767  
     198A      0.190177   199A      0.193347   200A      0.194065  
     201A      0.196398   202A      0.197924   203A      0.198448  
     204A      0.201787   205A      0.202602   206A      0.204479  
     207A      0.207056   208A      0.207216   209A      0.211065  
     210A      0.212473   211A      0.214887   212A      0.215920  
     213A      0.217452   214A      0.218368   215A      0.220975  
     216A      0.222033   217A      0.224121   218A      0.226270  
     219A      0.229413   220A      0.233519   221A      0.234350  
     222A      0.235533   223A      0.236639   224A      0.238385  
     225A      0.239902   226A      0.242013   227A      0.242830  
     228A      0.246716   229A      0.247151   230A      0.252344  
     231A      0.252986   232A      0.256092   233A      0.257787  
     234A      0.258115   235A      0.260264   236A      0.262771  
     237A      0.264873   238A      0.266865   239A      0.269752  
     240A      0.273706   241A      0.276490   242A      0.277782  
     243A      0.278982   244A      0.281369   245A      0.283315  
     246A      0.285053   247A      0.288935   248A      0.291825  
     249A      0.294022   250A      0.297095   251A      0.298295  
     252A      0.301344   253A      0.302612   254A      0.306872  
     255A      0.311078   256A      0.312074   257A      0.315444  
     258A      0.317667   259A      0.318619   260A      0.320718  
     261A      0.321262   262A      0.325221   263A      0.328301  
     264A      0.328961   265A      0.332161   266A      0.332881  
     267A      0.335284   268A      0.336913   269A      0.337965  
     270A      0.339032   271A      0.342484   272A      0.345991  
     273A      0.347526   274A      0.349255   275A      0.352541  
     276A      0.353151   277A      0.355477   278A      0.358972  
     279A      0.360119   280A      0.361154   281A      0.365219  
     282A      0.366395   283A      0.369086   284A      0.370509  
     285A      0.375028   286A      0.376504   287A      0.376972  
     288A      0.379922   289A      0.383635   290A      0.384864  
     291A      0.385746   292A      0.387409   293A      0.388136  
     294A      0.389653   295A      0.393038   296A      0.394553  
     297A      0.395323   298A      0.397323   299A      0.397884  
     300A      0.399680   301A      0.401829   302A      0.402175  
     303A      0.404760   304A      0.407220   305A      0.408391  
     306A      0.411234   307A      0.412051   308A      0.412818  
     309A      0.415215   310A      0.417359   311A      0.418293  
     312A      0.421885   313A      0.423858   314A      0.426742  
     315A      0.428554   316A      0.429390   317A      0.432496  
     318A      0.434791   319A      0.436558   320A      0.439147  
     321A      0.439762   322A      0.443966   323A      0.444364  
     324A      0.446180   325A      0.447992   326A      0.449856  
     327A      0.452283   328A      0.456875   329A      0.457627  
     330A      0.459239   331A      0.461308   332A      0.462678  
     333A      0.464875   334A      0.465429   335A      0.469584  
     336A      0.470902   337A      0.475282   338A      0.477444  
     339A      0.479913   340A      0.483332   341A      0.487322  
     342A      0.489989   343A      0.493121   344A      0.495136  
     345A      0.496334   346A      0.501883   347A      0.504707  
     348A      0.511361   349A      0.512329   350A      0.513080  
     351A      0.517768   352A      0.520250   353A      0.524055  
     354A      0.526518   355A      0.527001   356A      0.529324  
     357A      0.533006   358A      0.534655   359A      0.535769  
     360A      0.538829   361A      0.541443   362A      0.544731  
     363A      0.545877   364A      0.546457   365A      0.555784  
     366A      0.558534   367A      0.561983   368A      0.566618  
     369A      0.573423   370A      0.575489   371A      0.582052  
     372A      0.583733   373A      0.590526   374A      0.593659  
     375A      0.595831   376A      0.602061   377A      0.613695  
     378A      0.615662   379A      0.618355   380A      0.620280  
     381A      0.625544   382A      0.629498   383A      0.639481  
     384A      0.648161   385A      0.650332   386A      0.659012  
     387A      0.661354   388A      0.670817   389A      0.674183  
     390A      0.688985   391A      0.692130   392A      0.697550  
     393A      0.706958   394A      0.709409   395A      0.711282  
     396A      0.720262   397A      0.721161   398A      0.725805  
     399A      0.732977   400A      0.738597   401A      0.743325  
     402A      0.749819   403A      0.753357   404A      0.756612  
     405A      0.764888   406A      0.765662   407A      0.766747  
     408A      0.771860   409A      0.777713   410A      0.779762  
     411A      0.783228   412A      0.787420   413A      0.788600  
     414A      0.792344   415A      0.793228   416A      0.799596  
     417A      0.801313   418A      0.807134   419A      0.807573  
     420A      0.817793   421A      0.822610   422A      0.826181  
     423A      0.830767   424A      0.831664   425A      0.835680  
     426A      0.836275   427A      0.842465   428A      0.845476  
     429A      0.848081   430A      0.852340   431A      0.854617  
     432A      0.860433   433A      0.863991   434A      0.864768  
     435A      0.869763   436A      0.870985   437A      0.874321  
     438A      0.875589   439A      0.883358   440A      0.886075  
     441A      0.887467   442A      0.894030   443A      0.896805  
     444A      0.899628   445A      0.904452   446A      0.910257  
     447A      0.911837   448A      0.917219   449A      0.917548  
     450A      0.918213   451A      0.921038   452A      0.925450  
     453A      0.926700   454A      0.930374   455A      0.933460  
     456A      0.937058   457A      0.938650   458A      0.942057  
     459A      0.943405   460A      0.951525   461A      0.954821  
     462A      0.958346   463A      0.961253   464A      0.962757  
     465A      0.965491   466A      0.966967   467A      0.973196  
     468A      0.976719   469A      0.980502   470A      0.982304  
     471A      0.989266   472A      0.990306   473A      0.997837  
     474A      1.000348   475A      1.003494   476A      1.005542  
     477A      1.008139   478A      1.010141   479A      1.014888  
     480A      1.018038   481A      1.020066   482A      1.026543  
     483A      1.032527   484A      1.035271   485A      1.039651  
     486A      1.042322   487A      1.046881   488A      1.049795  
     489A      1.052890   490A      1.059579   491A      1.062690  
     492A      1.067708   493A      1.073308   494A      1.078183  
     495A      1.079809   496A      1.088194   497A      1.089978  
     498A      1.093485   499A      1.096331   500A      1.107502  
     501A      1.108153   502A      1.113157   503A      1.122867  
     504A      1.125745   505A      1.128564   506A      1.135639  
     507A      1.137074   508A      1.140747   509A      1.142058  
     510A      1.147470   511A      1.150819   512A      1.156442  
     513A      1.158321   514A      1.162724   515A      1.168667  
     516A      1.170255   517A      1.180315   518A      1.181113  
     519A      1.184525   520A      1.186299   521A      1.192301  
     522A      1.200252   523A      1.201706   524A      1.204175  
     525A      1.206028   526A      1.208092   527A      1.213288  
     528A      1.216391   529A      1.219728   530A      1.226772  
     531A      1.231089   532A      1.235230   533A      1.240809  
     534A      1.247878   535A      1.248876   536A      1.250929  
     537A      1.256240   538A      1.258572   539A      1.261141  
     540A      1.262451   541A      1.266301   542A      1.270349  
     543A      1.274627   544A      1.282061   545A      1.288461  
     546A      1.290156   547A      1.290992   548A      1.293026  
     549A      1.304738   550A      1.306134   551A      1.312052  
     552A      1.313219   553A      1.326196   554A      1.329090  
     555A      1.333632   556A      1.337697   557A      1.350777  
     558A      1.354047   559A      1.360857   560A      1.366188  
     561A      1.367838   562A      1.379815   563A      1.384207  
     564A      1.390322   565A      1.396567   566A      1.402408  
     567A      1.403973   568A      1.417650   569A      1.423754  
     570A      1.436478   571A      1.438924   572A      1.447051  
     573A      1.450744   574A      1.456377   575A      1.459679  
     576A      1.463097   577A      1.464590   578A      1.471074  
     579A      1.490842   580A      1.493081   581A      1.500482  
     582A      1.507511   583A      1.510424   584A      1.522567  
     585A      1.527612   586A      1.533772   587A      1.544998  
     588A      1.552859   589A      1.562017   590A      1.577635  
     591A      1.580380   592A      1.584095   593A      1.591009  
     594A      1.603567   595A      1.613954   596A      1.617474  
     597A      1.621023   598A      1.635448   599A      1.641584  
     600A      1.648321   601A      1.651495   602A      1.664428  
     603A      1.668629   604A      1.690281   605A      1.705530  
     606A      1.708565   607A      1.715984   608A      1.720352  
     609A      1.727534   610A      1.732629   611A      1.739890  
     612A      1.747068   613A      1.751517   614A      1.752452  
     615A      1.761427   616A      1.767508   617A      1.772703  
     618A      1.776838   619A      1.779181   620A      1.789174  
     621A      1.791213   622A      1.797461   623A      1.805975  
     624A      1.807720   625A      1.813993   626A      1.815193  
     627A      1.818483   628A      1.827046   629A      1.830447  
     630A      1.835386   631A      1.837131   632A      1.841538  
     633A      1.843704   634A      1.851487   635A      1.852498  
     636A      1.855897   637A      1.865127   638A      1.865697  
     639A      1.872259   640A      1.877202   641A      1.879094  
     642A      1.883674   643A      1.885939   644A      1.889095  
     645A      1.892945   646A      1.898179   647A      1.903010  
     648A      1.912516   649A      1.915489   650A      1.923628  
     651A      1.928335   652A      1.936853   653A      1.941693  
     654A      1.948483   655A      1.951937   656A      1.959597  
     657A      1.962626   658A      1.963591   659A      1.968525  
     660A      1.974132   661A      1.975352   662A      1.982938  
     663A      1.987981   664A      1.988382   665A      1.990673  
     666A      1.995777   667A      1.999339   668A      2.003571  
     669A      2.008893   670A      2.010678   671A      2.020987  
     672A      2.022329   673A      2.025739   674A      2.031080  
     675A      2.035365   676A      2.046803   677A      2.050118  
     678A      2.057639   679A      2.058058   680A      2.066033  
     681A      2.067870   682A      2.071879   683A      2.076050  
     684A      2.085383   685A      2.089980   686A      2.093945  
     687A      2.098617   688A      2.105398   689A      2.109003  
     690A      2.115110   691A      2.127629   692A      2.132790  
     693A      2.142492   694A      2.144556   695A      2.153400  
     696A      2.161852   697A      2.166242   698A      2.172188  
     699A      2.173897   700A      2.182442   701A      2.187166  
     702A      2.190422   703A      2.197291   704A      2.205235  
     705A      2.206754   706A      2.215794   707A      2.218590  
     708A      2.222975   709A      2.230683   710A      2.238621  
     711A      2.245994   712A      2.249018   713A      2.251700  
     714A      2.254823   715A      2.258295   716A      2.266096  
     717A      2.277082   718A      2.280563   719A      2.281242  
     720A      2.287573   721A      2.292003   722A      2.293295  
     723A      2.301296   724A      2.303892   725A      2.306918  
     726A      2.314471   727A      2.318989   728A      2.323960  
     729A      2.330127   730A      2.335457   731A      2.335861  
     732A      2.344622   733A      2.346804   734A      2.359628  
     735A      2.367700   736A      2.373355   737A      2.377803  
     738A      2.388470   739A      2.392178   740A      2.395791  
     741A      2.409568   742A      2.411623   743A      2.418067  
     744A      2.420932   745A      2.427550   746A      2.446216  
     747A      2.453745   748A      2.462262   749A      2.467158  
     750A      2.476711   751A      2.484937   752A      2.489137  
     753A      2.495791   754A      2.501090   755A      2.509737  
     756A      2.518438   757A      2.523786   758A      2.532059  
     759A      2.535238   760A      2.543898   761A      2.549025  
     762A      2.564226   763A      2.569082   764A      2.579744  
     765A      2.581396   766A      2.595487   767A      2.602471  
     768A      2.608886   769A      2.633985   770A      2.636269  
     771A      2.651286   772A      2.653881   773A      2.663218  
     774A      2.667941   775A      2.690583   776A      2.700832  
     777A      2.717585   778A      2.734021   779A      2.745786  
     780A      2.747695   781A      2.760347   782A      2.764515  
     783A      2.769804   784A      2.775401   785A      2.778631  
     786A      2.794413   787A      2.811963   788A      2.817070  
     789A      2.819465   790A      2.821358   791A      2.828314  
     792A      2.830929   793A      2.844005   794A      2.850454  
     795A      2.855156   796A      2.871234   797A      2.874223  
     798A      2.880196   799A      2.885826   800A      2.900324  
     801A      2.904776   802A      2.909954   803A      2.915776  
     804A      2.925372   805A      2.931972   806A      2.945006  
     807A      2.956833   808A      2.959004   809A      2.964239  
     810A      2.964797   811A      2.977196   812A      2.981788  
     813A      2.983827   814A      2.996714   815A      2.999270  
     816A      3.003124   817A      3.010625   818A      3.014669  
     819A      3.017969   820A      3.023228   821A      3.029022  
     822A      3.037431   823A      3.048422   824A      3.056400  
     825A      3.058193   826A      3.060190   827A      3.062850  
     828A      3.072271   829A      3.079385   830A      3.080763  
     831A      3.084524   832A      3.088832   833A      3.097452  
     834A      3.107266   835A      3.110820   836A      3.115598  
     837A      3.116839   838A      3.124025   839A      3.131011  
     840A      3.133228   841A      3.144908   842A      3.148857  
     843A      3.153260   844A      3.158017   845A      3.164658  
     846A      3.165936   847A      3.174915   848A      3.176898  
     849A      3.184790   850A      3.186556   851A      3.192519  
     852A      3.200791   853A      3.207567   854A      3.212845  
     855A      3.220890   856A      3.224243   857A      3.228274  
     858A      3.249769   859A      3.257013   860A      3.263773  
     861A      3.270733   862A      3.272014   863A      3.284054  
     864A      3.290892   865A      3.301948   866A      3.303615  
     867A      3.304779   868A      3.307895   869A      3.312408  
     870A      3.321707   871A      3.323053   872A      3.331177  
     873A      3.338716   874A      3.339942   875A      3.345400  
     876A      3.347596   877A      3.356616   878A      3.360012  
     879A      3.367327   880A      3.374811   881A      3.377939  
     882A      3.382323   883A      3.392319   884A      3.399518  
     885A      3.403499   886A      3.408345   887A      3.411308  
     888A      3.424117   889A      3.429912   890A      3.451559  
     891A      3.458206   892A      3.465221   893A      3.471890  
     894A      3.513334   895A      3.530365   896A      3.540989  
     897A      3.555702   898A      3.577029   899A      3.588105  
     900A      3.601801   901A      3.617253   902A      3.626375  
     903A      3.628631   904A      3.653548   905A      3.656809  
     906A      3.662129   907A      3.668205   908A      3.699047  
     909A      3.711040   910A      3.770307   911A      3.775195  
     912A      3.790133   913A      3.796175   914A      3.808568  
     915A      3.818308   916A      3.823033   917A      3.836317  
     918A      3.856980   919A      3.871338   920A      3.874346  
     921A      3.891481   922A      3.901888   923A      3.924436  
     924A      3.937088   925A      3.940251   926A      3.945178  
     927A      3.954961   928A      3.961336   929A      3.985433  
     930A      3.989710   931A      3.996749   932A      4.008702  
     933A      4.050259   934A      4.060714   935A      4.084128  
     936A      4.100353   937A      4.103247   938A      4.109321  
     939A      4.133742   940A      4.138579   941A      4.159443  
     942A      4.165773   943A      4.178566   944A      4.184308  
     945A      4.201947   946A      4.202663   947A      4.208264  
     948A      4.221875   949A      4.251167   950A      4.311742  
     951A      4.362154   952A      4.369158   953A      4.375534  
     954A      4.408726   955A      4.417747   956A      4.423790  
     957A      4.427652   958A      4.442319   959A      4.447925  
     960A      4.458336   961A      4.462258   962A      4.533352  
     963A      4.547317   964A      4.560392   965A      4.572236  
     966A      4.581268   967A      4.598985   968A      4.609255  
     969A      4.628909   970A      4.668718   971A      4.743118  
     972A      4.766761   973A      4.786964   974A      4.795980  
     975A      4.933039   976A      4.963288   977A      5.021711  
     978A      5.058087   979A      5.217495   980A      5.251374  
     981A      5.261211   982A      5.273337   983A      5.289651  
     984A      5.323789   985A      5.328153   986A      5.374980  
     987A      5.414240   988A      5.588754   989A      5.713123  
     990A      5.733737   991A      5.804459   992A      5.859695  
     993A      5.873734   994A      6.407141   995A     24.772038  
     996A     24.790597   997A     24.829453   998A     24.850394  
     999A     24.864664  1000A     24.915227  1001A     24.945949  
    1002A     24.999601  1003A     25.020541  1004A     25.025381  
    1005A     25.040219  1006A     25.068296  1007A     25.088443  
    1008A     25.101043  1009A     25.115275  1010A     25.118258  
    1011A     25.123526  1012A     25.143780  1013A     25.155391  
    1014A     25.159537  1015A     25.191127  1016A     25.200763  
    1017A     25.207944  1018A     25.241600  1019A     25.246152  
    1020A     25.253145  1021A     25.259477  1022A     25.320235  
    1023A     25.330939  1024A     36.945606  1025A     36.982626  
    1026A     37.028640  1027A     37.085162  1028A     37.101495  
    1029A     37.136723  1030A     37.159933  1031A     51.776290  

    Final Occupation by Irrep:
              A 
    DOCC [   131 ]

  @DF-RHF Final Energy: -1572.27510330538394

   => Energetics <=

    Nuclear Repulsion Energy =           3818.2368601502280399
    One-Electron Energy =               -9735.3632661473548069
    Two-Electron Energy =                4344.8513026917435127
    Total Energy =                      -1572.2751033053837091

Computation Completed


Properties will be evaluated at   0.000000,   0.000000,   0.000000 [a0]

Properties computed using the SCF density matrix

  Nuclear Dipole Moment: [e a0]
     X:   -33.0714      Y:     9.5522      Z:    -7.1774

  Electronic Dipole Moment: [e a0]
     X:    33.0733      Y:    -7.5558      Z:     6.4569

  Dipole Moment: [e a0]
     X:     0.0019      Y:     1.9964      Z:    -0.7205     Total:     2.1225

  Dipole Moment: [D]
     X:     0.0048      Y:     5.0744      Z:    -1.8313     Total:     5.3948


*** tstop() called on node37.bme.utexas.edu at Wed Mar  4 06:07:22 2020
Module time:
	user time   =    6209.04 seconds =     103.48 minutes
	system time =     252.69 seconds =       4.21 minutes
	total time  =       1293 seconds =      21.55 minutes
Total time:
	user time   =    6209.04 seconds =     103.48 minutes
	system time =     252.69 seconds =       4.21 minutes
	total time  =       1293 seconds =      21.55 minutes

*** tstart() called on node37.bme.utexas.edu
*** at Wed Mar  4 06:07:22 2020


  //>>>>>>>>>>>>>>>>>>>>>>>>>>>>>>>>>>>//
  //               DFMP2               //
  //<<<<<<<<<<<<<<<<<<<<<<<<<<<<<<<<<<<//

   => Loading Basis Set <=

    Name: (6-311++G** AUX)
    Role: RIFIT
    Keyword: DF_BASIS_MP2
    atoms 1-4, 6-9, 11, 14-19, 21-28, 30-31, 33-35, 37 entry C          line   148 file /home/bdw2292/miniconda3/envs/p4env/share/psi4/basis/aug-cc-pvtz-ri.gbs 
    atoms 5, 10, 12-13, 20, 29, 32                     entry N          line   206 file /home/bdw2292/miniconda3/envs/p4env/share/psi4/basis/aug-cc-pvtz-ri.gbs 
    atoms 36                                           entry O          line   264 file /home/bdw2292/miniconda3/envs/p4env/share/psi4/basis/aug-cc-pvtz-ri.gbs 
    atoms 38-68                                        entry H          line    30 file /home/bdw2292/miniconda3/envs/p4env/share/psi4/basis/aug-cc-pvtz-ri.gbs 

	 --------------------------------------------------------
	                          DF-MP2                         
	      2nd-Order Density-Fitted Moller-Plesset Theory     
	              RMP2 Wavefunction,   6 Threads             
	                                                         
	        Rob Parrish, Justin Turney, Andy Simmonett,      
	           Ed Hohenstein, and C. David Sherrill          
	 --------------------------------------------------------

   => Auxiliary Basis Set <=

  Basis Set: (6-311++G** AUX)
    Blend: AUG-CC-PVTZ-RI
    Number of shells: 1470
    Number of basis function: 5348
    Number of Cartesian functions: 6737
    Spherical Harmonics?: true
    Max angular momentum: 4

	 --------------------------------------------------------
	                 NBF =  1031, NAUX =  5348
	 --------------------------------------------------------
	   CLASS    FOCC     OCC    AOCC    AVIR     VIR    FVIR
	   PAIRS      37     131      94     900     900       0
	 --------------------------------------------------------

	-----------------------------------------------------------
	 ==================> DF-MP2 Energies <==================== 
	-----------------------------------------------------------
	 Reference Energy          =   -1572.2751033053839365 [Eh]
	 Singles Energy            =      -0.0000000000000000 [Eh]
	 Same-Spin Energy          =      -1.4750089346133413 [Eh]
	 Opposite-Spin Energy      =      -4.0569512141588673 [Eh]
	 Correlation Energy        =      -5.5319601487722085 [Eh]
	 Total Energy              =   -1577.8070634541561503 [Eh]
	-----------------------------------------------------------
	 ================> DF-SCS-MP2 Energies <================== 
	-----------------------------------------------------------
	 SCS Same-Spin Scale       =       0.3333333333333333 [-]
	 SCS Opposite-Spin Scale   =       1.2000000000000000 [-]
	 SCS Same-Spin Energy      =      -0.4916696448711138 [Eh]
	 SCS Opposite-Spin Energy  =      -4.8683414569906409 [Eh]
	 SCS Correlation Energy    =      -5.3600111018617547 [Eh]
	 SCS Total Energy          =   -1577.6351144072457373 [Eh]
	-----------------------------------------------------------


*** tstop() called on node37.bme.utexas.edu at Wed Mar  4 06:15:50 2020
Module time:
	user time   =    2800.96 seconds =      46.68 minutes
	system time =      33.83 seconds =       0.56 minutes
	total time  =        508 seconds =       8.47 minutes
Total time:
	user time   =    9010.01 seconds =     150.17 minutes
	system time =     286.52 seconds =       4.78 minutes
	total time  =       1801 seconds =      30.02 minutes


Properties will be evaluated at   0.000000,   0.000000,   0.000000 [a0]
OEProp: No title given, name of density matrix used for the following properties is 'SCF density'


  Wiberg Bond Indices using Orthogonal Lowdin Orbitals:

  Irrep: 1 Size: 68 x 68

                 1                   2                   3                   4                   5

    1     0.00000000000000     1.46592575494771     0.12515997732914     0.14049677439022     0.12378357855485
    2     1.46592575494771     0.00000000000000     1.40140031391304     0.12850062612361     0.12103189319910
    3     0.12515997732914     1.40140031391304     0.00000000000000     1.35628177635651     0.11908912555839
    4     0.14049677439022     0.12850062612361     1.35628177635651     0.00000000000000     1.67047629898978
    5     0.12378357855485     0.12103189319910     0.11908912555839     1.67047629898978     0.00000000000000
    6     1.45972498600246     0.13849349568950     0.13471552793878     0.15416914738821     1.62153132159339
    7     0.01476109067560     0.10286840082250     1.02123937248899     0.10336653781726     0.01399565435687
    8     0.00343526063457     0.04043369786148     0.09715901259460     0.02329010199740     0.00218459796776
    9     0.00035344358070     0.00460748456210     0.01490064131584     0.00409054299873     0.00070420975594
   10     0.00043117028033     0.00536748181918     0.00583053153604     0.00596193487925     0.00033062548011
   11     0.00092066838569     0.00335216117841     0.01816940454178     0.00687576978363     0.00042693365865
   12     0.00288267772334     0.02209768772173     0.11967367855157     0.06168805259754     0.00403598645053
   13     0.00016812171943     0.00047232970366     0.00162164135328     0.00095743515834     0.00008964277967
   14     0.00003347129723     0.00009781228514     0.00060030079904     0.00152171688921     0.00012626452095
   15     0.00001050176504     0.00002073606115     0.00007099019677     0.00016808830632     0.00002664560714
   16     0.00000234490760     0.00000632058598     0.00005005064674     0.00029051074510     0.00001850548185
   17     0.00001265544721     0.00002048219479     0.00006617470656     0.00036116032946     0.00008164334024
   18     0.00003982601600     0.00007604739355     0.00033735251792     0.00253375052183     0.00026943407198
   19     0.00016671293841     0.00029249567688     0.00229643279761     0.01244249607987     0.00073912021058
   20     0.00010244283258     0.00013570673925     0.00052969927284     0.00643298820070     0.00121187715106
   21     0.00013355511334     0.00008090732687     0.00010438900249     0.00135611215787     0.00075157855339
   22     0.00012059122372     0.00007613166238     0.00005005177394     0.00089655666607     0.00264141885128
   23     0.00007542564605     0.00003410282789     0.00004115853118     0.00037141816088     0.00214264004089
   24     0.00003337547521     0.00001304133669     0.00002705207649     0.00015810982128     0.00083050496596
   25     0.00002157198511     0.00000964457440     0.00001394715298     0.00020880950231     0.00059313045482
   26     0.00002715487367     0.00002054478028     0.00000938947465     0.00011329017685     0.00046819113819
   27     0.00008633428485     0.00007714452295     0.00001865296927     0.00027286113735     0.00083860803417
   28     0.00000931256583     0.00000132086558     0.00000277003545     0.00001623919756     0.00008442433294
   29     0.00003791911788     0.00000367652988     0.00000588447545     0.00002356448637     0.00016103881002
   30     0.00008569033227     0.00001490588719     0.00001157171244     0.00008390327819     0.00051313662792
   31     0.00033568674413     0.00016965625175     0.00021954325976     0.00046821045255     0.00494621952052
   32     0.00247127333856     0.00048032907170     0.00031379025606     0.00067453933812     0.00498814033242
   33     0.00084229134690     0.00010510516551     0.00012728365533     0.00023647847116     0.00077133641376
   34     0.00139267682291     0.00032549251530     0.00071365501013     0.00124059227547     0.00965594057344
   35     0.00014790670798     0.00002590421340     0.00004371262980     0.00017656480461     0.00082718653314
   36     0.00000969844791     0.00000910400571     0.00003735370086     0.00044394171966     0.00035609958877
   37     0.00000220916565     0.00000723852642     0.00003189704430     0.00004022437400     0.00000428322086
   38     0.88654464873768     0.07916514573282     0.01179798690889     0.00645847737534     0.01082483545200
   39     0.07781564757148     0.87147672773296     0.07299772285296     0.01181442012760     0.00395286326048
   40     0.00572641089713     0.01056877375497     0.06935599556853     0.84831478741799     0.08826471297582
   41     0.07526664989539     0.01089499534089     0.00561125655770     0.01480492849076     0.08599924051850
   42     0.00103083589490     0.01365907845064     0.01411284545299     0.00133047356292     0.00028520581257
   43     0.00004432257921     0.00027674707318     0.00144370794634     0.00031360171948     0.00008053248141
   44     0.00002498761157     0.00008263349354     0.00035084146182     0.00009262022843     0.00000758322039
   45     0.00000043430494     0.00000127301735     0.00000724470003     0.00002129452829     0.00000296861371
   46     0.00000174371222     0.00000248401069     0.00000935479089     0.00003728124022     0.00001506570777
   47     0.00012744561658     0.00024615747566     0.00234210926811     0.00911862118441     0.00077016192649
   48     0.00006043277000     0.00006003632684     0.00013125800743     0.00183172399172     0.00070443578167
   49     0.00000913081391     0.00000517265911     0.00000624201300     0.00003705778194     0.00025004068171
   50     0.00000191842670     0.00000119596623     0.00000192709030     0.00001932705688     0.00007745427366
   51     0.00000274239495     0.00000128491812     0.00000073068166     0.00000905498550     0.00003088064068
   52     0.00001553713130     0.00001136081730     0.00000383387105     0.00003023488664     0.00006620658746
   53     0.00000183503553     0.00000018712837     0.00000027035764     0.00000109831728     0.00000915324333
   54     0.00000114040829     0.00000026963101     0.00000036020106     0.00000117272651     0.00000859092444
   55     0.00000850219378     0.00000193469634     0.00000067198709     0.00000489035334     0.00002374384833
   56     0.00003943216197     0.00000389100414     0.00000392054777     0.00006648809443     0.00040229298139
   57     0.00002855682689     0.00002065233387     0.00002639465644     0.00002526585048     0.00025063566264
   58     0.00009551131994     0.00005605255386     0.00009202714790     0.00037293202957     0.00372316845805
   59     0.00009909596142     0.00000427922199     0.00000239499134     0.00001045543911     0.00013090144632
   60     0.00006564440662     0.00001155828660     0.00002734408767     0.00002929141114     0.00008963485059
   61     0.00026258493807     0.00002666021935     0.00002744069113     0.00005247733019     0.00014674434540
   62     0.00029848368455     0.00003172450395     0.00013725389998     0.00009794122325     0.00057298581152
   63     0.00037731737192     0.00016123487747     0.00019138543849     0.00104107305020     0.00752951271359
   64     0.00007251492026     0.00001085651891     0.00001589300524     0.00014137971255     0.00072451108718
   65     0.00001100450951     0.00000306764887     0.00000108387376     0.00001413157617     0.00006111906872
   66     0.00000078113909     0.00000181503214     0.00001102498858     0.00000896660357     0.00000113535544
   67     0.00000120361350     0.00000257641532     0.00001021013013     0.00000933423440     0.00000095017111
   68     0.00000021919364     0.00000076061250     0.00000395855222     0.00000890168357     0.00000066832806

                 6                   7                   8                   9                  10

    1     1.45972498600246     0.01476109067560     0.00343526063457     0.00035344358070     0.00043117028033
    2     0.13849349568950     0.10286840082250     0.04043369786148     0.00460748456210     0.00536748181918
    3     0.13471552793878     1.02123937248899     0.09715901259460     0.01490064131584     0.00583053153604
    4     0.15416914738821     0.10336653781726     0.02329010199740     0.00409054299873     0.00596193487925
    5     1.62153132159339     0.01399565435687     0.00218459796776     0.00070420975594     0.00033062548011
    6     0.00000000000000     0.01019722348446     0.00669134318328     0.00123744779429     0.00334850561617
    7     0.01019722348446     0.00000000000000     1.38590360093634     0.14721058924617     0.11146548865590
    8     0.00669134318328     1.38590360093634     0.00000000000000     1.43703336684580     0.13033475572180
    9     0.00123744779429     0.14721058924617     1.43703336684580     0.00000000000000     1.65809825910167
   10     0.00334850561617     0.11146548865590     0.13033475572180     1.65809825910167     0.00000000000000
   11     0.00088371777922     0.14095539813246     0.11380822078586     0.15299811916901     1.51236480134924
   12     0.00602759949561     1.52834579837098     0.12576882880289     0.11186331922991     0.11105112473350
   13     0.00008094520687     0.01923025729995     0.01990965781916     0.02343648871267     0.15607101506303
   14     0.00005185022847     0.00299703609243     0.00244887695395     0.00321847901462     0.01646801842938
   15     0.00000607283873     0.00048103046894     0.00139187328465     0.00091076213810     0.00309871041313
   16     0.00000507125249     0.00017325192090     0.00018516867357     0.00016827962425     0.00046811678484
   17     0.00001007263120     0.00025312583686     0.00128954943831     0.00042052669288     0.00129252559501
   18     0.00005498582565     0.00063548271848     0.00027587864328     0.00014952559641     0.00042613335734
   19     0.00023294691741     0.00634185894035     0.00315634816388     0.00151382055257     0.00427245483899
   20     0.00011066243187     0.00017716050422     0.00003233200829     0.00001735151984     0.00005799309532
   21     0.00008018020651     0.00004400267961     0.00003014457663     0.00000739815537     0.00002469036537
   22     0.00029238128504     0.00001342482058     0.00000391657069     0.00000185313988     0.00000492793755
   23     0.00021264656224     0.00000823124119     0.00000305721941     0.00000078021682     0.00000118799805
   24     0.00019770030369     0.00000396101156     0.00000170220166     0.00000038337283     0.00000038829967
   25     0.00025514238746     0.00000233020261     0.00000104998702     0.00000029261094     0.00000026494171
   26     0.00016690244621     0.00000183357059     0.00000083777331     0.00000033966942     0.00000039291113
   27     0.00013599796742     0.00000541751564     0.00000144031014     0.00000070175030     0.00000137322075
   28     0.00009394720590     0.00000070251248     0.00000023016248     0.00000006040343     0.00000009687071
   29     0.00025367710381     0.00000143841569     0.00000047548903     0.00000012672712     0.00000011244105
   30     0.00066332890621     0.00000285962605     0.00000085996472     0.00000019008067     0.00000010142467
   31     0.00548595666901     0.00002102070623     0.00001456811305     0.00000220939244     0.00000411019166
   32     0.03040371726716     0.00003450222509     0.00002445154872     0.00000308991250     0.00000903387564
   33     0.00862510260806     0.00001316335360     0.00000783084082     0.00000111339377     0.00000359736407
   34     0.01503117034500     0.00004582233433     0.00005856713256     0.00000993827697     0.00002359355520
   35     0.00121213683889     0.00000497057857     0.00000383057842     0.00000093170809     0.00000130469018
   36     0.00003669255773     0.00001409983713     0.00001258444278     0.00000502776263     0.00001503224409
   37     0.00000232411132     0.00014128909293     0.00012925243912     0.00012328392196     0.00062544388772
   38     0.08267921378973     0.00129742086126     0.00024332337657     0.00003861541812     0.00002696578948
   39     0.01168490278346     0.01607755230600     0.01424561943725     0.00107688297148     0.00037824844509
   40     0.01480152395485     0.01543959967516     0.00162366180183     0.00038890314357     0.00060565283555
   41     0.85211259529467     0.00049786946949     0.00024857695271     0.00004815481483     0.00009749942598
   42     0.00047515802212     0.07586921336227     0.87680325628200     0.08034502647114     0.01034305240357
   43     0.00004369099753     0.01183001611948     0.07630522601205     0.87595892287271     0.08888476764297
   44     0.00001240874966     0.00205296245724     0.00195902208342     0.00346270823829     0.02968936015401
   45     0.00000062723272     0.00001955418854     0.00000792965044     0.00002407928974     0.00005295360580
   46     0.00000228072556     0.00002471060204     0.00004397553534     0.00001783226729     0.00005766242137
   47     0.00024480302765     0.00462940014760     0.00100773178758     0.00046950200549     0.00080965731924
   48     0.00008189530624     0.00004317915843     0.00001068678668     0.00000576795396     0.00001154622672
   49     0.00002379777758     0.00000149228613     0.00000072718034     0.00000030051013     0.00000104328496
   50     0.00002969463478     0.00000040867953     0.00000020371132     0.00000003177259     0.00000005504803
   51     0.00002157278178     0.00000021470068     0.00000004795965     0.00000002141374     0.00000005991652
   52     0.00001175586057     0.00000135592309     0.00000046044108     0.00000017122220     0.00000047485552
   53     0.00001126080684     0.00000010356904     0.00000004410245     0.00000001148413     0.00000001733691
   54     0.00001007326024     0.00000008087966     0.00000003070823     0.00000001002607     0.00000000825462
   55     0.00007609612444     0.00000016097211     0.00000004481129     0.00000001342630     0.00000000714131
   56     0.00027520135080     0.00000173798886     0.00000049241875     0.00000008334285     0.00000004064109
   57     0.00035159214700     0.00000206255545     0.00000188618201     0.00000028983932     0.00000083666401
   58     0.00163158383227     0.00001191879460     0.00000560298436     0.00000097709530     0.00000052913980
   59     0.00044814985454     0.00000061691295     0.00000014862280     0.00000004401051     0.00000006028750
   60     0.00080623311272     0.00000220158327     0.00000244244487     0.00000034764374     0.00000100310636
   61     0.00195005981527     0.00000348464944     0.00000106529163     0.00000021194694     0.00000014546968
   62     0.00287041202068     0.00000792284616     0.00000943798029     0.00000158256843     0.00000411317369
   63     0.00570509252029     0.00002148813688     0.00001298386273     0.00000268943144     0.00000417483816
   64     0.00056612974048     0.00000342451466     0.00000115243214     0.00000039137333     0.00000045913331
   65     0.00014746746236     0.00000028588033     0.00000008857380     0.00000002311795     0.00000003345950
   66     0.00000042104623     0.00004318616823     0.00007264870430     0.00003874272903     0.00022121118040
   67     0.00000141339796     0.00004411825760     0.00010991519818     0.00003791571501     0.00027418680970
   68     0.00000022475371     0.00001415538406     0.00000488988216     0.00000421842681     0.00002729714895

                11                  12                  13                  14                  15

    1     0.00092066838569     0.00288267772334     0.00016812171943     0.00003347129723     0.00001050176504
    2     0.00335216117841     0.02209768772173     0.00047232970366     0.00009781228514     0.00002073606115
    3     0.01816940454178     0.11967367855157     0.00162164135328     0.00060030079904     0.00007099019677
    4     0.00687576978363     0.06168805259754     0.00095743515834     0.00152171688921     0.00016808830632
    5     0.00042693365865     0.00403598645053     0.00008964277967     0.00012626452095     0.00002664560714
    6     0.00088371777922     0.00602759949561     0.00008094520687     0.00005185022847     0.00000607283873
    7     0.14095539813246     1.52834579837098     0.01923025729995     0.00299703609243     0.00048103046894
    8     0.11380822078586     0.12576882880289     0.01990965781916     0.00244887695395     0.00139187328465
    9     0.15299811916901     0.11186331922991     0.02343648871267     0.00321847901462     0.00091076213810
   10     1.51236480134924     0.11105112473350     0.15607101506303     0.01646801842938     0.00309871041313
   11     0.00000000000000     1.53642117331652     1.25968306462184     0.08183712979244     0.01754497044923
   12     1.53642117331652     0.00000000000000     0.14067699348979     0.03029383838515     0.00351912995104
   13     1.25968306462184     0.14067699348979     0.00000000000000     1.12382249430484     0.10541579740376
   14     0.08183712979244     0.03029383838515     1.12382249430484     0.00000000000000     1.32265439184151
   15     0.01754497044923     0.00351912995104     0.10541579740376     1.32265439184151     0.00000000000000
   16     0.00235602153589     0.00120087356713     0.01418329942289     0.12545003194892     1.43895289042734
   17     0.00402185173219     0.00261955975226     0.01265877339049     0.12263096710717     0.12161388170708
   18     0.00252538773149     0.00561950417922     0.01349931043527     0.12331046689426     0.12286048379665
   19     0.02863908433430     0.05978441143938     0.11050283271414     1.39552609373869     0.12283782756934
   20     0.00037615266324     0.00130786552944     0.00130621933257     0.01482307613309     0.00776207599211
   21     0.00009407345923     0.00026222533077     0.00037764165711     0.00294294360777     0.00329268411766
   22     0.00001569681617     0.00007672015949     0.00004531527432     0.00039965449856     0.00022994471199
   23     0.00000588463949     0.00002575524599     0.00001996031230     0.00013124625236     0.00018561538499
   24     0.00000104437909     0.00000356548638     0.00000216257289     0.00001614614709     0.00004241353414
   25     0.00000074722419     0.00000290792353     0.00000106406804     0.00001179471629     0.00001250964591
   26     0.00000086662944     0.00000281629167     0.00000216379338     0.00001741508989     0.00002016317679
   27     0.00000368230858     0.00001605512664     0.00001133865489     0.00008623764762     0.00006203173447
   28     0.00000015821892     0.00000044741016     0.00000020448404     0.00000145170142     0.00000185188234
   29     0.00000019412211     0.00000046794892     0.00000005338771     0.00000061384982     0.00000044641589
   30     0.00000017769578     0.00000065093868     0.00000005555569     0.00000029805263     0.00000020317100
   31     0.00000151143626     0.00000947981959     0.00000024539440     0.00000039652290     0.00000026384051
   32     0.00000268082593     0.00001796062949     0.00000025978168     0.00000048993341     0.00000021617749
   33     0.00000098015496     0.00000705368216     0.00000013376476     0.00000020130008     0.00000007310674
   34     0.00000503108859     0.00003529831174     0.00000085996991     0.00000103425429     0.00000039330366
   35     0.00000057034255     0.00000222709308     0.00000026496149     0.00000059262221     0.00000017711222
   36     0.00003503571055     0.00007838002399     0.00014382428691     0.00147405704630     0.00169535621937
   37     0.00340279769752     0.00077676031081     0.03690660383935     0.09701742561695     1.06165546438916
   38     0.00009098311928     0.00031613560850     0.00001609477197     0.00000738553885     0.00000083141518
   39     0.00027853899322     0.00106664819623     0.00006418787154     0.00002559947838     0.00000389535242
   40     0.00277917730919     0.02524024703939     0.00044812698513     0.00144793139728     0.00019801173011
   41     0.00004041273895     0.00024185818799     0.00000531538967     0.00000463047047     0.00000063946171
   42     0.00574659906745     0.01075075733071     0.00102099151421     0.00011974599771     0.00006301992711
   43     0.01584504451483     0.00406312196135     0.00131646665596     0.00038263107357     0.00006295939321
   44     0.07254605875058     0.01149461450230     0.93839186331909     0.05929867219910     0.01445555834959
   45     0.00036846070282     0.00006587605081     0.00115773678972     0.01149732489280     0.07497647708555
   46     0.00015538179165     0.00016864211155     0.00058855998822     0.00556570101865     0.01086096997094
   47     0.00996046319042     0.04173494425934     0.01586031149338     0.07196493377981     0.00953911456248
   48     0.00006062443733     0.00022728029117     0.00015052775432     0.00159496741705     0.00301021366915
   49     0.00000228259064     0.00000253061732     0.00001207520622     0.00005319179151     0.00007008083644
   50     0.00000016986915     0.00000085471723     0.00000023238897     0.00000187510820     0.00000181712153
   51     0.00000016868135     0.00000031382870     0.00000056614636     0.00000351049531     0.00000149935469
   52     0.00000114235383     0.00000515058881     0.00000248395844     0.00001751715298     0.00001598883450
   53     0.00000002438715     0.00000003563871     0.00000003379697     0.00000039076087     0.00000025866197
   54     0.00000003116638     0.00000005026821     0.00000005640396     0.00000039418865     0.00000023242953
   55     0.00000001848054     0.00000004871617     0.00000000554255     0.00000005278887     0.00000002898804
   56     0.00000016524538     0.00000043166317     0.00000002410989     0.00000006447754     0.00000003037492
   57     0.00000019500389     0.00000136058650     0.00000003216060     0.00000006174693     0.00000003388893
   58     0.00000076397364     0.00000409493350     0.00000016080539     0.00000036173314     0.00000164384013
   59     0.00000003610886     0.00000017088416     0.00000001084400     0.00000003842094     0.00000002095971
   60     0.00000017999265     0.00000138740415     0.00000002670243     0.00000002702315     0.00000001026184
   61     0.00000019950685     0.00000113649820     0.00000004131816     0.00000002989130     0.00000001591730
   62     0.00000094660857     0.00000688958687     0.00000009293496     0.00000005539069     0.00000003339283
   63     0.00000183452646     0.00000675761059     0.00000028365076     0.00000057453263     0.00000085789061
   64     0.00000035455689     0.00000085762077     0.00000005123502     0.00000012377596     0.00000003977532
   65     0.00000005016641     0.00000018990093     0.00000002435262     0.00000010668652     0.00000004051245
   66     0.00071381479233     0.00026270924610     0.00899250807954     0.01670311380037     0.05849566876244
   67     0.00085943029400     0.00029712849437     0.00990602879986     0.01680596200852     0.05844270755805
   68     0.00021655620915     0.00006067414944     0.00191346080267     0.00905282753924     0.05973915362774

                16                  17                  18                  19                  20

    1     0.00000234490760     0.00001265544721     0.00003982601600     0.00016671293841     0.00010244283258
    2     0.00000632058598     0.00002048219479     0.00007604739355     0.00029249567688     0.00013570673925
    3     0.00005005064674     0.00006617470656     0.00033735251792     0.00229643279761     0.00052969927284
    4     0.00029051074510     0.00036116032946     0.00253375052183     0.01244249607987     0.00643298820070
    5     0.00001850548185     0.00008164334024     0.00026943407198     0.00073912021058     0.00121187715106
    6     0.00000507125249     0.00001007263120     0.00005498582565     0.00023294691741     0.00011066243187
    7     0.00017325192090     0.00025312583686     0.00063548271848     0.00634185894035     0.00017716050422
    8     0.00018516867357     0.00128954943831     0.00027587864328     0.00315634816388     0.00003233200829
    9     0.00016827962425     0.00042052669288     0.00014952559641     0.00151382055257     0.00001735151984
   10     0.00046811678484     0.00129252559501     0.00042613335734     0.00427245483899     0.00005799309532
   11     0.00235602153589     0.00402185173219     0.00252538773149     0.02863908433430     0.00037615266324
   12     0.00120087356713     0.00261955975226     0.00561950417922     0.05978441143938     0.00130786552944
   13     0.01418329942289     0.01265877339049     0.01349931043527     0.11050283271414     0.00130621933257
   14     0.12545003194892     0.12263096710717     0.12331046689426     1.39552609373869     0.01482307613309
   15     1.43895289042734     0.12161388170708     0.12286048379665     0.12283782756934     0.00776207599211
   16     0.00000000000000     1.44382844386900     0.13313046620405     0.12739238870679     0.01328721176546
   17     1.44382844386900     0.00000000000000     1.41374344569348     0.12606512417566     0.10518259377709
   18     0.13313046620405     1.41374344569348     0.00000000000000     1.37898684373334     1.11269348291024
   19     0.12739238870679     0.12606512417566     1.37898684373334     0.00000000000000     0.13325625430897
   20     0.01328721176546     0.10518259377709     1.11269348291024     0.13325625430897     0.00000000000000
   21     0.00274974895032     0.02427201657169     0.09213682540783     0.02550650213645     1.31667338652684
   22     0.00033935658176     0.00236575516013     0.01490327862452     0.00296624397830     0.10520217845918
   23     0.00015675874010     0.00100803642523     0.00433090922897     0.00096946507715     0.04227770710807
   24     0.00002058483132     0.00016376595483     0.00046703966467     0.00012809927231     0.00377062428087
   25     0.00002663773569     0.00016123853421     0.00049639504713     0.00010434145595     0.00324096735367
   26     0.00001811608421     0.00011007520861     0.00048432906597     0.00009402763537     0.00243491249933
   27     0.00009221005969     0.00052426164094     0.00254532748722     0.00048399826851     0.01797667971792
   28     0.00000232538166     0.00001402471738     0.00004479566510     0.00001040163442     0.00025776498560
   29     0.00000164404031     0.00000744605411     0.00002345065017     0.00000432338594     0.00014057238755
   30     0.00000048943416     0.00000159316220     0.00000457448461     0.00000152813525     0.00002542110192
   31     0.00000029248294     0.00000271055202     0.00000413159499     0.00000187356656     0.00003281814139
   32     0.00000020359193     0.00000142952755     0.00000287303277     0.00000184222672     0.00000943794574
   33     0.00000008482728     0.00000044547523     0.00000073007008     0.00000060350277     0.00000230190460
   34     0.00000038656263     0.00000303849035     0.00000487730000     0.00000181109520     0.00003307894839
   35     0.00000049302564     0.00000253260742     0.00000710623054     0.00000201049401     0.00003672529803
   36     0.00159240370722     0.01339053265008     0.04097994516621     0.01199387493059     0.19899872442282
   37     0.11440856470490     0.01417536289386     0.00747352273451     0.01397479566075     0.00046696878146
   38     0.00000035088785     0.00000092120157     0.00000565148611     0.00002469069140     0.00000702789903
   39     0.00000182843270     0.00000208947190     0.00000775312944     0.00004254500377     0.00001206739394
   40     0.00023019259630     0.00034088401695     0.00260925714189     0.01055395637643     0.00470707911511
   41     0.00000044778322     0.00000113931445     0.00000405182265     0.00001591705024     0.00001136186777
   42     0.00001086676451     0.00004619226072     0.00003268732559     0.00021403498772     0.00000869480910
   43     0.00001596520419     0.00001113763306     0.00001512441932     0.00010811078530     0.00000210798756
   44     0.00144276726284     0.00112395543416     0.00133252407573     0.01058239713499     0.00026071345434
   45     0.87288112863628     0.07943238403014     0.01185445444694     0.00584093734487     0.00115807949122
   46     0.07772242604928     0.87449915413092     0.07728196105067     0.01198733012145     0.01617330343609
   47     0.00557955848295     0.00997738714157     0.07005261618993     0.83005746886690     0.02639690599880
   48     0.00142333256631     0.01449552032763     0.06462211387933     0.01808425351841     0.93390881891908
   49     0.00004539235260     0.00036035546366     0.00163856021614     0.00033720739078     0.01520726567437
   50     0.00000129736859     0.00000990201533     0.00003499341320     0.00001081810360     0.00021938946526
   51     0.00000215837558     0.00001616980656     0.00007087716623     0.00001655406258     0.00028826131047
   52     0.00002014945973     0.00009139249815     0.00029233885215     0.00007788108277     0.00176966557349
   53     0.00000048166825     0.00000270321132     0.00000933186232     0.00000174907512     0.00003776271309
   54     0.00000025509457     0.00000243261635     0.00000830941145     0.00000243847550     0.00004911421762
   55     0.00000007724208     0.00000034506244     0.00000086929738     0.00000027427263     0.00000483430680
   56     0.00000007159179     0.00000054733034     0.00000091481554     0.00000025076616     0.00000686171445
   57     0.00000003934957     0.00000014043213     0.00000015163123     0.00000016459216     0.00000149982010
   58     0.00000054602279     0.00000742045242     0.00001734293616     0.00000745262447     0.00005118040457
   59     0.00000001073162     0.00000008077777     0.00000008276915     0.00000010347317     0.00000045641713
   60     0.00000000879802     0.00000003420937     0.00000006662949     0.00000007873430     0.00000024767757
   61     0.00000001623722     0.00000005866877     0.00000008546915     0.00000007593720     0.00000023222039
   62     0.00000003101476     0.00000027261087     0.00000028043211     0.00000014779848     0.00000161942782
   63     0.00000063592958     0.00000483870844     0.00000783732914     0.00000313538847     0.00006689462048
   64     0.00000011346533     0.00000107577337     0.00000079713463     0.00000075200726     0.00000609761527
   65     0.00000012952401     0.00000081167273     0.00000220476289     0.00000047525123     0.00001174797627
   66     0.01502791713888     0.00123302243328     0.00297634421955     0.00127480012180     0.00018589850120
   67     0.01512787902257     0.00123080244335     0.00299251662238     0.00130972583537     0.00021102801377
   68     0.02336424688130     0.00185671964013     0.00054263668442     0.00113003791984     0.00009319255260

                21                  22                  23                  24                  25

    1     0.00013355511334     0.00012059122372     0.00007542564605     0.00003337547521     0.00002157198511
    2     0.00008090732687     0.00007613166238     0.00003410282789     0.00001304133669     0.00000964457440
    3     0.00010438900249     0.00005005177394     0.00004115853118     0.00002705207649     0.00001394715298
    4     0.00135611215787     0.00089655666607     0.00037141816088     0.00015810982128     0.00020880950231
    5     0.00075157855339     0.00264141885128     0.00214264004089     0.00083050496596     0.00059313045482
    6     0.00008018020651     0.00029238128504     0.00021264656224     0.00019770030369     0.00025514238746
    7     0.00004400267961     0.00001342482058     0.00000823124119     0.00000396101156     0.00000233020261
    8     0.00003014457663     0.00000391657069     0.00000305721941     0.00000170220166     0.00000104998702
    9     0.00000739815537     0.00000185313988     0.00000078021682     0.00000038337283     0.00000029261094
   10     0.00002469036537     0.00000492793755     0.00000118799805     0.00000038829967     0.00000026494171
   11     0.00009407345923     0.00001569681617     0.00000588463949     0.00000104437909     0.00000074722419
   12     0.00026222533077     0.00007672015949     0.00002575524599     0.00000356548638     0.00000290792353
   13     0.00037764165711     0.00004531527432     0.00001996031230     0.00000216257289     0.00000106406804
   14     0.00294294360777     0.00039965449856     0.00013124625236     0.00001614614709     0.00001179471629
   15     0.00329268411766     0.00022994471199     0.00018561538499     0.00004241353414     0.00001250964591
   16     0.00274974895032     0.00033935658176     0.00015675874010     0.00002058483132     0.00002663773569
   17     0.02427201657169     0.00236575516013     0.00100803642523     0.00016376595483     0.00016123853421
   18     0.09213682540783     0.01490327862452     0.00433090922897     0.00046703966467     0.00049639504713
   19     0.02550650213645     0.00296624397830     0.00096946507715     0.00012809927231     0.00010434145595
   20     1.31667338652684     0.10520217845918     0.04227770710807     0.00377062428087     0.00324096735367
   21     0.00000000000000     0.97068107618257     0.10472374938013     0.01447301771256     0.01108587466167
   22     0.97068107618257     0.00000000000000     1.40116397369605     0.12824287420037     0.12466043917036
   23     0.10472374938013     1.40116397369605     0.00000000000000     1.46200674745383     0.12602144922815
   24     0.01447301771256     0.12824287420037     1.46200674745383     0.00000000000000     1.39946914203289
   25     0.01108587466167     0.12466043917036     0.12602144922815     1.39946914203289     0.00000000000000
   26     0.01480668995905     0.12746869246779     0.12961341469852     0.12537643333189     1.39969975123305
   27     0.11279227755085     1.38700785845629     0.12400719190463     0.13209673750531     0.12794585238167
   28     0.00073671604303     0.00930175446078     0.01461552122688     0.10853512530113     1.01803963528244
   29     0.00037685578170     0.00436474692257     0.00202149095928     0.02201152061139     0.08642854664861
   30     0.00008926913123     0.00096508760240     0.00188525375848     0.01525362959364     0.01922736241972
   31     0.00006441334282     0.00132613083454     0.00939171773455     0.02439565572170     0.01609000963002
   32     0.00005889793702     0.00070018353861     0.00124835116170     0.00313845485421     0.00391339049423
   33     0.00001006158951     0.00013637678844     0.00032959226618     0.00082001063227     0.00112412029787
   34     0.00012148795240     0.00255400309802     0.00229134829781     0.00743567072722     0.02032948681417
   35     0.00011325451546     0.00117421729548     0.00120886736555     0.00561492418464     0.02532258055095
   36     2.19489934682772     0.13859499585372     0.02541537516794     0.00316525762378     0.00624862641948
[...]
   15     0.00000003037492     0.00000003388893     0.00000164384013     0.00000002095971     0.00000001026184
   16     0.00000007159179     0.00000003934957     0.00000054602279     0.00000001073162     0.00000000879802
   17     0.00000054733034     0.00000014043213     0.00000742045242     0.00000008077777     0.00000003420937
   18     0.00000091481554     0.00000015163123     0.00001734293616     0.00000008276915     0.00000006662949
   19     0.00000025076616     0.00000016459216     0.00000745262447     0.00000010347317     0.00000007873430
   20     0.00000686171445     0.00000149982010     0.00005118040457     0.00000045641713     0.00000024767757
   21     0.00002708031026     0.00000432754023     0.00008009416030     0.00000219760930     0.00000058712871
   22     0.00023405249314     0.00006864307248     0.00155923194119     0.00001357881941     0.00000976103272
   23     0.00045337417336     0.00027940447121     0.00846230625027     0.00003263880204     0.00003010723955
   24     0.00096687195084     0.00086642026789     0.02357116643163     0.00009862710376     0.00007175746125
   25     0.00158868851997     0.00059245981680     0.01019727733198     0.00019260300030     0.00008240034598
   26     0.00051320192598     0.00014108031044     0.00281316477706     0.00009280602109     0.00003242532789
   27     0.00012400375617     0.00009855971613     0.00179796017560     0.00002423282144     0.00002225097173
   28     0.01202053116371     0.00106967525952     0.00542115815271     0.00072061827412     0.00011462221574
   29     0.06836375078412     0.01032616443388     0.01126736060614     0.00366775755554     0.00066649798225
   30     0.76652985359815     0.05886739540130     0.04344515986440     0.01371750529939     0.00409596033054
   31     0.05057263357181     0.87217752470792     0.76982160634019     0.01632680726967     0.01924579500751
   32     0.01430497652567     0.05615437323572     0.05696156606438     0.06693476204499     0.06332752118291
   33     0.01764563814284     0.02031538440863     0.01249161288766     0.90919534888929     0.91671959439777
   34     0.00779993636339     0.01352898763493     0.02384886307182     0.01584055851513     0.01252895184941
   35     0.02102083840227     0.00235649434531     0.00778618271502     0.01362220194620     0.00177939114238
   36     0.00001606909075     0.00000234597663     0.00003368767908     0.00000090099605     0.00000030141071
   37     0.00000000553916     0.00000000341477     0.00000012728516     0.00000000999555     0.00000000292435
   38     0.00001465615050     0.00000233715516     0.00000594824544     0.00002652444319     0.00000641027479
   39     0.00000092369269     0.00000120103030     0.00000718723118     0.00000048255399     0.00000116173946
   40     0.00000572567583     0.00000273394201     0.00002908102079     0.00000041700161     0.00000181148426
   41     0.00021217357336     0.00045928080100     0.00114522223871     0.00050269202751     0.00127048390841
   42     0.00000008637398     0.00000013554966     0.00000096111143     0.00000003473810     0.00000018062256
   43     0.00000001354112     0.00000002809077     0.00000033746125     0.00000000154624     0.00000001630791
   44     0.00000000699139     0.00000000550769     0.00000005564695     0.00000000342955     0.00000000431958
   45     0.00000001290528     0.00000000305667     0.00000008837053     0.00000000078449     0.00000000062508
   46     0.00000003534986     0.00000001712425     0.00000084127530     0.00000001321021     0.00000000404039
   47     0.00000014566698     0.00000018385064     0.00000116375516     0.00000006001808     0.00000006795243
   48     0.00001945030352     0.00000413250629     0.00007281610707     0.00000074323575     0.00000039034030
   49     0.00006113782161     0.00002503104391     0.00084579189027     0.00000300833292     0.00000238955970
   50     0.00012050830061     0.00025877639269     0.00471790317262     0.00004447604042     0.00002271756521
   51     0.00011931739704     0.00001916263395     0.00013193470647     0.00003105889523     0.00000424790045
   52     0.00001505056473     0.00000350586195     0.00005014358424     0.00000216048625     0.00000135276436
   53     0.00114288869941     0.00010689455199     0.00084154318871     0.00006972709762     0.00001837490277
   54     0.00041550501967     0.00031618163532     0.00031355763178     0.00008301184776     0.00002171645983
   55     0.02372808929735     0.00572535636432     0.00855153142591     0.00061869308929     0.00014752375766
   56     0.00000000000000     0.01009442199860     0.02490678202474     0.00903589355231     0.00189659461808
   57     0.01009442199860     0.00000000000000     0.02083879649411     0.00286533950686     0.00635188758938
   58     0.02490678202474     0.02083879649411     0.00000000000000     0.00096986919826     0.00103785913605
   59     0.00903589355231     0.00286533950686     0.00096986919826     0.00000000000000     0.03500514033138
   60     0.00189659461808     0.00635188758938     0.00103785913605     0.03500514033138     0.00000000000000
   61     0.00067843816556     0.00112814392620     0.00070114260111     0.03506663756517     0.03728330605507
   62     0.00046723533078     0.00119690995854     0.00109122579830     0.00254095118184     0.00107799798765
   63     0.00079735768306     0.00114148887020     0.00683091794396     0.00098342601042     0.00070360805586
   64     0.00481970345213     0.00045963913889     0.00085699974348     0.00827089263130     0.00065413516318
   65     0.00071916276227     0.00039115051554     0.00035825850089     0.00044952595720     0.00024679462608
   66     0.00000000110303     0.00000000171113     0.00000007282066     0.00000000020811     0.00000000094007
   67     0.00000000269368     0.00000000181758     0.00000004066818     0.00000000031139     0.00000000080460
   68     0.00000000200190     0.00000000123519     0.00000001079360     0.00000000127465     0.00000000055173

                61                  62                  63                  64                  65

    1     0.00026258493807     0.00029848368455     0.00037731737192     0.00007251492026     0.00001100450951
    2     0.00002666021935     0.00003172450395     0.00016123487747     0.00001085651891     0.00000306764887
    3     0.00002744069113     0.00013725389998     0.00019138543849     0.00001589300524     0.00000108387376
    4     0.00005247733019     0.00009794122325     0.00104107305020     0.00014137971255     0.00001413157617
    5     0.00014674434540     0.00057298581152     0.00752951271359     0.00072451108718     0.00006111906872
    6     0.00195005981527     0.00287041202068     0.00570509252029     0.00056612974048     0.00014746746236
    7     0.00000348464944     0.00000792284616     0.00002148813688     0.00000342451466     0.00000028588033
    8     0.00000106529163     0.00000943798029     0.00001298386273     0.00000115243214     0.00000008857380
    9     0.00000021194694     0.00000158256843     0.00000268943144     0.00000039137333     0.00000002311795
   10     0.00000014546968     0.00000411317369     0.00000417483816     0.00000045913331     0.00000003345950
   11     0.00000019950685     0.00000094660857     0.00000183452646     0.00000035455689     0.00000005016641
   12     0.00000113649820     0.00000688958687     0.00000675761059     0.00000085762077     0.00000018990093
   13     0.00000004131816     0.00000009293496     0.00000028365076     0.00000005123502     0.00000002435262
   14     0.00000002989130     0.00000005539069     0.00000057453263     0.00000012377596     0.00000010668652
   15     0.00000001591730     0.00000003339283     0.00000085789061     0.00000003977532     0.00000004051245
   16     0.00000001623722     0.00000003101476     0.00000063592958     0.00000011346533     0.00000012952401
   17     0.00000005866877     0.00000027261087     0.00000483870844     0.00000107577337     0.00000081167273
   18     0.00000008546915     0.00000028043211     0.00000783732914     0.00000079713463     0.00000220476289
   19     0.00000007593720     0.00000014779848     0.00000313538847     0.00000075200726     0.00000047525123
   20     0.00000023222039     0.00000161942782     0.00006689462048     0.00000609761527     0.00001174797627
   21     0.00000096379839     0.00001042521501     0.00020420302175     0.00003586386719     0.00002929072455
   22     0.00001091905651     0.00012302212963     0.00320003189197     0.00024430360396     0.00027394138869
   23     0.00002384802676     0.00013061551764     0.00283899129546     0.00027680604606     0.00032802312004
   24     0.00004688310528     0.00029792481298     0.00610535509376     0.00055959421284     0.00079019521506
   25     0.00008956193291     0.00092783628814     0.01441220544584     0.00152732724091     0.00853163534494
   26     0.00005181277178     0.00082740798573     0.01659146990592     0.00095848846897     0.01046625503890
   27     0.00002942048018     0.00028990011998     0.00813865592743     0.00031390659013     0.00091559543177
   28     0.00010939537305     0.00122173446759     0.00621616974958     0.01175534217976     0.02352943537383
   29     0.00061256441937     0.00950590406768     0.01126247411707     0.06737263482201     0.05016896887789
   30     0.00176173419594     0.00261118678429     0.00767686328693     0.02068169169814     0.01387828847061
   31     0.01291063895401     0.01318585813899     0.02372474839175     0.00781672622950     0.00209030580453
   32     0.06434595728959     0.06265166428393     0.05806177267219     0.01412816314742     0.01281770645806
   33     0.91501137512947     0.01908943443183     0.01312353484625     0.01659977886411     0.00146575670290
   34     0.01838748132465     0.89515418874563     0.74143192578597     0.05055932863506     0.05504669918280
   35     0.00407526178878     0.06296092039635     0.04373426927249     0.77652565805793     0.82933443834060
   36     0.00000027443283     0.00000314238374     0.00007477118224     0.00000979352635     0.00001015621426
   37     0.00000000753869     0.00000000569746     0.00000007442658     0.00000000687266     0.00000000838666
   38     0.00010497366220     0.00001930243824     0.00001653412418     0.00000840995678     0.00000086346524
   39     0.00000248354540     0.00000232184160     0.00000993546178     0.00000178865483     0.00000032750304
   40     0.00000306877860     0.00000819137630     0.00005836002559     0.00001130290521     0.00000062671115
   41     0.00224945616157     0.00201572913178     0.00233597010090     0.00026606336903     0.00007556939998
   42     0.00000027370228     0.00000083013732     0.00000203686880     0.00000015376417     0.00000001426062
   43     0.00000002698652     0.00000007593369     0.00000036079585     0.00000001802650     0.00000000108704
   44     0.00000000578508     0.00000001721945     0.00000010545924     0.00000002033194     0.00000000393286
   45     0.00000000219474     0.00000000344969     0.00000011632833     0.00000000796065     0.00000003994630
   46     0.00000000640656     0.00000010079955     0.00000157650139     0.00000030222838     0.00000020093722
   47     0.00000004685848     0.00000011531118     0.00000170566072     0.00000004607481     0.00000015122459
   48     0.00000017811489     0.00000141766266     0.00002499958900     0.00000443925330     0.00000310694687
   49     0.00000117712789     0.00000500089261     0.00011547167741     0.00001467635342     0.00003015137248
   50     0.00001161613903     0.00002768365261     0.00063108123603     0.00013245593525     0.00008132375495
   51     0.00001175092161     0.00011900401311     0.00249271255293     0.00015578770579     0.00444512996341
   52     0.00000236944983     0.00002302809436     0.00066128721190     0.00003323235093     0.00004173596818
   53     0.00001717518034     0.00024527912600     0.00040786202969     0.00055335121696     0.00115820048007
   54     0.00002220394897     0.00013458792930     0.00077770443547     0.00122680584175     0.00645875772975
   55     0.00021457069079     0.00028594207198     0.00053473438272     0.00071839255037     0.00125543972036
   56     0.00067843816556     0.00046723533078     0.00079735768306     0.00481970345213     0.00071916276227
   57     0.00112814392620     0.00119690995854     0.00114148887020     0.00045963913889     0.00039115051554
   58     0.00070114260111     0.00109122579830     0.00683091794396     0.00085699974348     0.00035825850089
   59     0.03506663756517     0.00254095118184     0.00098342601042     0.00827089263130     0.00044952595720
   60     0.03728330605507     0.00107799798765     0.00070360805586     0.00065413516318     0.00024679462608
   61     0.00000000000000     0.00579027522357     0.00102412515184     0.00182923530328     0.00010369924708
   62     0.00579027522357     0.00000000000000     0.02335894241678     0.00936477521203     0.00556378285229
   63     0.00102412515184     0.02335894241678     0.00000000000000     0.02602877744834     0.00916935064794
   64     0.00182923530328     0.00936477521203     0.02602877744834     0.00000000000000     0.01803768094097
   65     0.00010369924708     0.00556378285229     0.00916935064794     0.01803768094097     0.00000000000000
   66     0.00000000033789     0.00000000114216     0.00000004089869     0.00000000071399     0.00000000240316
   67     0.00000000048657     0.00000000299327     0.00000002160454     0.00000000248456     0.00000000223984
   68     0.00000000023152     0.00000000168828     0.00000002248706     0.00000000122861     0.00000000270853

                66                  67                  68

    1     0.00000078113909     0.00000120361350     0.00000021919364
    2     0.00000181503214     0.00000257641532     0.00000076061250
    3     0.00001102498858     0.00001021013013     0.00000395855222
    4     0.00000896660357     0.00000933423440     0.00000890168357
    5     0.00000113535544     0.00000095017111     0.00000066832806
    6     0.00000042104623     0.00000141339796     0.00000022475371
    7     0.00004318616823     0.00004411825760     0.00001415538406
    8     0.00007264870430     0.00010991519818     0.00000488988216
    9     0.00003874272903     0.00003791571501     0.00000421842681
   10     0.00022121118040     0.00027418680970     0.00002729714895
   11     0.00071381479233     0.00085943029400     0.00021655620915
   12     0.00026270924610     0.00029712849437     0.00006067414944
   13     0.00899250807954     0.00990602879986     0.00191346080267
   14     0.01670311380037     0.01680596200852     0.00905282753924
   15     0.05849566876244     0.05844270755805     0.05973915362774
   16     0.01502791713888     0.01512787902257     0.02336424688130
   17     0.00123302243328     0.00123080244335     0.00185671964013
   18     0.00297634421955     0.00299251662238     0.00054263668442
   19     0.00127480012180     0.00130972583537     0.00113003791984
   20     0.00018589850120     0.00021102801377     0.00009319255260
   21     0.00011650533856     0.00011081848591     0.00003751181907
   22     0.00001063958239     0.00000667988385     0.00000516421145
   23     0.00000762574710     0.00000662189655     0.00000248851450
   24     0.00000176884458     0.00000150351196     0.00000032202572
   25     0.00000042247428     0.00000064018110     0.00000030386903
   26     0.00000084384652     0.00000079924334     0.00000026773592
   27     0.00000258287097     0.00000197077910     0.00000132981912
   28     0.00000008855107     0.00000009408793     0.00000004057429
   29     0.00000001626857     0.00000003742468     0.00000001828343
   30     0.00000000835995     0.00000001600281     0.00000000958296
   31     0.00000000905696     0.00000001713116     0.00000000637853
   32     0.00000000716147     0.00000001022817     0.00000000767412
   33     0.00000000220228     0.00000000307519     0.00000000212480
   34     0.00000002945721     0.00000003751697     0.00000001281048
   35     0.00000001641163     0.00000001601096     0.00000001164682
   36     0.00006040488110     0.00003868741417     0.00000838908235
   37     0.91876067698139     0.91818307203006     0.92059570453266
   38     0.00000010044386     0.00000009618218     0.00000003728390
   39     0.00000023202148     0.00000031289840     0.00000011629601
   40     0.00000852317687     0.00000954358563     0.00000946073611
   41     0.00000006506893     0.00000006704919     0.00000004645035
   42     0.00000315743514     0.00000422778855     0.00000044081025
   43     0.00000258447022     0.00000269560456     0.00000064215913
   44     0.00457254907264     0.00403737284194     0.00094927371867
   45     0.00123679366739     0.00122649677413     0.00751538332140
   46     0.00023630177703     0.00022261109376     0.00013573840237
   47     0.00017902553879     0.00018244075491     0.00035180566515
   48     0.00012171157260     0.00009699099408     0.00002405241184
   49     0.00000238113524     0.00000296948047     0.00000092496582
   50     0.00000007677853     0.00000007870321     0.00000005853269
   51     0.00000005887926     0.00000010104218     0.00000007530672
   52     0.00000079118850     0.00000037051247     0.00000044435007
   53     0.00000001210334     0.00000001752338     0.00000001614048
   54     0.00000000814198     0.00000001900005     0.00000001319197
   55     0.00000000100599     0.00000000322636     0.00000000176694
   56     0.00000000110303     0.00000000269368     0.00000000200190
   57     0.00000000171113     0.00000000181758     0.00000000123519
   58     0.00000007282066     0.00000004066818     0.00000001079360
   59     0.00000000020811     0.00000000031139     0.00000000127465
   60     0.00000000094007     0.00000000080460     0.00000000055173
   61     0.00000000033789     0.00000000048657     0.00000000023152
   62     0.00000000114216     0.00000000299327     0.00000000168828
   63     0.00000004089869     0.00000002160454     0.00000002248706
   64     0.00000000071399     0.00000000248456     0.00000000122861
   65     0.00000000240316     0.00000000223984     0.00000000270853
   66     0.00000000000000     0.03495166298678     0.03839608191571
   67     0.03495166298678     0.00000000000000     0.03837592140873
   68     0.03839608191571     0.03837592140873     0.00000000000000



  Atomic Valences: 

 #  #
 Irrep: 1
      1:  4.3922808
      2:  4.4234458
      3:  4.5996888
      4:  4.5828068
      5:  3.9157352
      6:  4.5777993
      7:  4.7388993
      8:  4.3677506
      9:  4.5250149
     10:  3.8589484
     11:  4.9974013
     12:  3.9722198
     13:  4.0211469
     14:  4.6645641
     15:  4.6264885
     16:  4.4334599
     17:  4.3971267
     18:  4.7114927
     19:  4.4623771
     20:  4.0912428
     21:  5.0241033
     22:  4.6285422
     23:  4.4493391
     24:  4.4859174
     25:  4.7227937
     26:  4.4777392
     27:  4.4407300
     28:  4.5078102
     29:  4.2618345
     30:  4.5512204
     31:  4.5780997
     32:  4.2823583
     33:  4.2913494
     34:  4.5987400
     35:  4.5646306
     36:  2.7435290
     37:  4.1476494
     38:  1.0994274
     39:  1.1019708
     40:  1.1179756
     41:  1.1228576
     42:  1.1090776
     43:  1.0866664
     44:  1.1746700
     45:  1.1017849
     46:  1.0962952
     47:  1.1341033
     48:  1.1829376
     49:  1.1054424
     50:  1.1094743
     51:  1.1083881
     52:  1.0983111
     53:  1.1080895
     54:  1.1104245
     55:  1.1212949
     56:  1.0422558
     57:  1.0889538
     58:  1.0599479
     59:  1.1377511
     60:  1.1055219
     61:  1.1061873
     62:  1.1263741
     63:  1.0500488
     64:  1.0443615
     65:  1.0585218
     66:  1.1049396
     67:  1.1051401
     68:  1.1044470


    Psi4 stopped on: Wednesday, 04 March 2020 06:15AM
    Psi4 wall time for execution: 0:30:03.07

*** Psi4 exiting successfully. Buy a developer a beer!
