
    -----------------------------------------------------------------------
          Psi4: An Open-Source Ab Initio Electronic Structure Package
                               Psi4 1.3.2 release

                         Git: Rev {HEAD} ecbda83 


    R. M. Parrish, L. A. Burns, D. G. A. Smith, A. C. Simmonett,
    A. E. DePrince III, E. G. Hohenstein, U. Bozkaya, A. Yu. Sokolov,
    R. Di Remigio, R. M. Richard, J. F. Gonthier, A. M. James,
    H. R. McAlexander, A. Kumar, M. Saitow, X. Wang, B. P. Pritchard,
    P. Verma, H. F. Schaefer III, K. Patkowski, R. A. King, E. F. Valeev,
    F. A. Evangelista, J. M. Turney, T. D. Crawford, and C. D. Sherrill,
    J. Chem. Theory Comput. 13(7) pp 3185--3197 (2017).
    (doi: 10.1021/acs.jctc.7b00174)


                         Additional Contributions by
    P. Kraus, H. Kruse, M. H. Lechner, M. C. Schieber, R. A. Shaw,
    A. Alenaizan, R. Galvelis, Z. L. Glick, S. Lehtola, and J. P. Misiewicz

    -----------------------------------------------------------------------


    Psi4 started on: Sunday, 26 April 2020 12:13PM

    Process ID: 15819
    Host:       node37.bme.utexas.edu
    PSIDATADIR: /home/bdw2292/miniconda3/envs/p4env/share/psi4
    Memory:     500.0 MiB
    Threads:    1
    
  ==> Input File <==

--------------------------------------------------------------------------
molecule { 
0 1
 C    0.113635    4.481811   -0.628642
 C    1.484110    4.412610   -0.343276
 C    2.139366    3.166140   -0.348412
 C    1.338555    2.048529   -0.690696
 N    0.029615    2.094564   -0.969761
 C   -0.566744    3.296253   -0.930096
 C    3.600624    2.982438   -0.024642
 C    4.536253    4.014562    0.153909
 C    5.849758    3.607061    0.419967
 N    6.236890    2.336937    0.525156
 C    5.268600    1.413419    0.360261
 N    3.994674    1.702343    0.093739
 N    5.663870    0.093780    0.486528
 C    4.980001   -1.157037    0.265979
 C    5.736022   -2.343765    0.024686
 C    5.017546   -3.527396   -0.215495
 C    3.619679   -3.604954   -0.233743
 C    2.888325   -2.443232    0.035284
 C    3.582005   -1.249046    0.286951
 N    1.459294   -2.337398    0.059330
 C    0.466630   -3.229383   -0.277735
 C   -0.958640   -2.706830   -0.329387
 C   -1.296145   -1.375123   -0.628256
 C   -2.630003   -0.960649   -0.612074
 C   -3.678277   -1.854948   -0.322170
 C   -3.329602   -3.197117   -0.073966
 C   -1.997869   -3.620166   -0.083698
 C   -5.137373   -1.391210   -0.314338
 N   -5.401427   -0.074480    0.297287
 C   -6.045919   -0.043019    1.625876
 C   -7.593398   -0.000126    1.550350
 N   -8.127112    1.101207    0.708898
 C   -8.242674    2.414474    1.354620
 C   -7.458311    1.074961   -0.617169
 C   -5.910704    1.030448   -0.542503
 O    0.700891   -4.405500   -0.512458
 C    7.254861   -2.370216   -0.005108
 H   -0.415229    5.430231   -0.616890
 H    2.012454    5.330236   -0.096057
 H    1.780287    1.059600   -0.767297
 H   -1.631236    3.297952   -1.159523
 H    4.307928    5.070407    0.075276
 H    6.656570    4.326387    0.558152
 H    6.660313    0.055588    0.639735
 H    5.565995   -4.447708   -0.412208
 H    3.103421   -4.533198   -0.443985
 H    3.021796   -0.356864    0.513111
 H    1.120953   -1.423181    0.323377
 H   -0.516250   -0.656286   -0.870114
 H   -2.849191    0.083016   -0.833426
 H   -4.108111   -3.931787    0.130535
 H   -1.744503   -4.659387    0.110900
 H   -5.514497   -1.315131   -1.343386
 H   -5.728008   -2.183090    0.165317
 H   -5.622834   -1.164959    2.385740
 H   -5.588976    1.101674    2.304315
 H   -8.070706    0.062995    2.634307
 H   -8.056056   -1.271008    0.933333
 H   -7.254430    2.811549    1.613990
 H   -8.842323    2.335050    2.268785
 H   -8.744138    3.122664    0.684997
 H   -7.828322    1.995575   -1.263787
 H   -7.917699   -0.166877   -1.304047
 H   -5.439931    2.267435    0.020296
 H   -5.355389    0.933829   -1.851844
 H    7.703191   -2.057501    0.948765
 H    7.643770   -1.702408   -0.778973
 H    7.654857   -3.364589   -0.219768
}
memory 20GB
set_num_threads(6)
psi4_io.set_default_path("/scratch/bdw2292")
set freeze_core True
E, wfn = energy('mp2/6-311+G*',return_wfn=True)
oeprop(wfn,"WIBERG_LOWDIN_INDICES")
clean()
--------------------------------------------------------------------------

  Memory set to  18.626 GiB by Python driver.
  Threads set to 6 by Python driver.
    SCF Algorithm Type (re)set to DF.

*** tstart() called on node37.bme.utexas.edu
*** at Sun Apr 26 12:13:09 2020

   => Loading Basis Set <=

    Name: 6-311+G*
    Role: ORBITAL
    Keyword: BASIS
    atoms 1-4, 6-9, 11, 14-19, 21-28, 30-31, 33-35, 37 entry C          line   130 file /home/bdw2292/miniconda3/envs/p4env/share/psi4/basis/6-311pgs.gbs 
    atoms 5, 10, 12-13, 20, 29, 32                     entry N          line   151 file /home/bdw2292/miniconda3/envs/p4env/share/psi4/basis/6-311pgs.gbs 
    atoms 36                                           entry O          line   172 file /home/bdw2292/miniconda3/envs/p4env/share/psi4/basis/6-311pgs.gbs 
    atoms 38-68                                        entry H          line    47 file /home/bdw2292/miniconda3/envs/p4env/share/psi4/basis/6-311pgs.gbs 


         ---------------------------------------------------------
                                   SCF
               by Justin Turney, Rob Parrish, Andy Simmonett
                          and Daniel G. A. Smith
                              RHF Reference
                        6 Threads,  19073 MiB Core
         ---------------------------------------------------------

  ==> Geometry <==

    Molecular point group: c1
    Full point group: C1

    Geometry (in Angstrom), charge = 0, multiplicity = 1:

       Center              X                  Y                   Z               Mass       
    ------------   -----------------  -----------------  -----------------  -----------------
         C           -0.002383085913     4.500246982602    -0.627192121627    12.000000000000
         C            1.368091914087     4.431045982602    -0.341826121627    12.000000000000
         C            2.023347914087     3.184575982602    -0.346962121627    12.000000000000
         C            1.222536914087     2.066964982602    -0.689246121627    12.000000000000
         N           -0.086403085913     2.112999982602    -0.968311121627    14.003074004430
         C           -0.682762085913     3.314688982602    -0.928646121627    12.000000000000
         C            3.484605914087     3.000873982602    -0.023192121627    12.000000000000
         C            4.420234914087     4.032997982602     0.155358878373    12.000000000000
         C            5.733739914087     3.625496982602     0.421416878373    12.000000000000
         N            6.120871914087     2.355372982602     0.526605878373    14.003074004430
         C            5.152581914087     1.431854982602     0.361710878373    12.000000000000
         N            3.878655914087     1.720778982602     0.095188878373    14.003074004430
         N            5.547851914087     0.112215982602     0.487977878373    14.003074004430
         C            4.863982914087    -1.138601017398     0.267428878373    12.000000000000
         C            5.620003914087    -2.325329017398     0.026135878373    12.000000000000
         C            4.901527914087    -3.508960017398    -0.214045121627    12.000000000000
         C            3.503660914087    -3.586518017398    -0.232293121627    12.000000000000
         C            2.772306914087    -2.424796017398     0.036733878373    12.000000000000
         C            3.465986914087    -1.230610017398     0.288400878373    12.000000000000
         N            1.343275914087    -2.318962017398     0.060779878373    14.003074004430
         C            0.350611914087    -3.210947017398    -0.276285121627    12.000000000000
         C           -1.074658085913    -2.688394017398    -0.327937121627    12.000000000000
         C           -1.412163085913    -1.356687017398    -0.626806121627    12.000000000000
         C           -2.746021085913    -0.942213017398    -0.610624121627    12.000000000000
         C           -3.794295085913    -1.836512017398    -0.320720121627    12.000000000000
         C           -3.445620085913    -3.178681017398    -0.072516121627    12.000000000000
         C           -2.113887085913    -3.601730017398    -0.082248121627    12.000000000000
         C           -5.253391085913    -1.372774017398    -0.312888121627    12.000000000000
         N           -5.517445085913    -0.056044017398     0.298736878373    14.003074004430
         C           -6.161937085913    -0.024583017398     1.627325878373    12.000000000000
         C           -7.709416085913     0.018309982602     1.551799878373    12.000000000000
         N           -8.243130085913     1.119642982602     0.710347878373    14.003074004430
         C           -8.358692085913     2.432909982602     1.356069878373    12.000000000000
         C           -7.574329085913     1.093396982602    -0.615719121627    12.000000000000
         C           -6.026722085913     1.048883982602    -0.541053121627    12.000000000000
         O            0.584872914087    -4.387064017398    -0.511008121627    15.994914619570
         C            7.138842914087    -2.351780017398    -0.003658121627    12.000000000000
         H           -0.531247085913     5.448666982602    -0.615440121627     1.007825032230
         H            1.896435914087     5.348671982602    -0.094607121627     1.007825032230
         H            1.664268914087     1.078035982602    -0.765847121627     1.007825032230
         H           -1.747254085913     3.316387982602    -1.158073121627     1.007825032230
         H            4.191909914087     5.088842982602     0.076725878373     1.007825032230
         H            6.540551914087     4.344822982602     0.559601878373     1.007825032230
         H            6.544294914087     0.074023982602     0.641184878373     1.007825032230
         H            5.449976914087    -4.429272017398    -0.410758121627     1.007825032230
         H            2.987402914087    -4.514762017398    -0.442535121627     1.007825032230
         H            2.905777914087    -0.338428017398     0.514560878373     1.007825032230
         H            1.004934914087    -1.404745017398     0.324826878373     1.007825032230
         H           -0.632268085913    -0.637850017398    -0.868664121627     1.007825032230
         H           -2.965209085913     0.101451982602    -0.831976121627     1.007825032230
         H           -4.224129085913    -3.913351017398     0.131984878373     1.007825032230
         H           -1.860521085913    -4.640951017398     0.112349878373     1.007825032230
         H           -5.630515085913    -1.296695017398    -1.341936121627     1.007825032230
         H           -5.844026085913    -2.164654017398     0.166766878373     1.007825032230
         H           -5.738852085913    -1.146523017398     2.387189878373     1.007825032230
         H           -5.704994085913     1.120109982602     2.305764878373     1.007825032230
         H           -8.186724085913     0.081430982602     2.635756878373     1.007825032230
         H           -8.172074085913    -1.252572017398     0.934782878373     1.007825032230
         H           -7.370448085913     2.829984982602     1.615439878373     1.007825032230
         H           -8.958341085913     2.353485982602     2.270234878373     1.007825032230
         H           -8.860156085913     3.141099982602     0.686446878373     1.007825032230
         H           -7.944340085913     2.014010982602    -1.262337121627     1.007825032230
         H           -8.033717085913    -0.148441017398    -1.302597121627     1.007825032230
         H           -5.555949085913     2.285870982602     0.021745878373     1.007825032230
         H           -5.471407085913     0.952264982602    -1.850394121627     1.007825032230
         H            7.587172914087    -2.039065017398     0.950214878373     1.007825032230
         H            7.527751914087    -1.683972017398    -0.777523121627     1.007825032230
         H            7.538838914087    -3.346153017398    -0.218318121627     1.007825032230

  Running in c1 symmetry.

  Rotational constants: A =      0.00477  B =      0.00154  C =      0.00120 [cm^-1]
  Rotational constants: A =    142.95794  B =     46.28394  C =     35.98314 [MHz]
  Nuclear repulsion = 3642.770528509578071

  Charge       = 0
  Multiplicity = 1
  Electrons    = 262
  Nalpha       = 131
  Nbeta        = 131

  ==> Algorithm <==

  SCF Algorithm Type is DF.
  DIIS enabled.
  MOM disabled.
  Fractional occupation disabled.
  Guess Type is SAD.
  Energy threshold   = 1.00e-08
  Density threshold  = 1.00e-08
  Integral threshold = 0.00e+00

  ==> Primary Basis <==

  Basis Set: 6-311+G*
    Blend: 6-311+G*
    Number of shells: 463
    Number of basis function: 907
    Number of Cartesian functions: 944
    Spherical Harmonics?: true
    Max angular momentum: 2

   => Loading Basis Set <=

    Name: (6-311+G* AUX)
    Role: JKFIT
    Keyword: DF_BASIS_SCF
    atoms 1-4, 6-9, 11, 14-19, 21-28, 30-31, 33-35, 37 entry C          line   200 file /home/bdw2292/miniconda3/envs/p4env/share/psi4/basis/heavy-aug-cc-pvtz-jkfit.gbs 
    atoms 5, 10, 12-13, 20, 29, 32                     entry N          line   262 file /home/bdw2292/miniconda3/envs/p4env/share/psi4/basis/heavy-aug-cc-pvtz-jkfit.gbs 
    atoms 36                                           entry O          line   324 file /home/bdw2292/miniconda3/envs/p4env/share/psi4/basis/heavy-aug-cc-pvtz-jkfit.gbs 
    atoms 38-68                                        entry H          line   116 file /home/bdw2292/miniconda3/envs/p4env/share/psi4/basis/heavy-aug-cc-pvtz-jkfit.gbs 

  ==> Pre-Iterations <==

   -------------------------------------------------------
    Irrep   Nso     Nmo     Nalpha   Nbeta   Ndocc  Nsocc
   -------------------------------------------------------
     A        907     907       0       0       0       0
   -------------------------------------------------------
    Total     907     907     131     131     131       0
   -------------------------------------------------------

  ==> Integral Setup <==

  ==> DiskDFJK: Density-Fitted J/K Matrices <==

    J tasked:                  Yes
    K tasked:                  Yes
    wK tasked:                  No
    OpenMP threads:              6
    Integrals threads:           6
    Memory [MiB]:            14305
    Algorithm:                Core
    Integral Cache:           NONE
    Schwarz Cutoff:          1E-12
    Fitting Condition:       1E-10

   => Auxiliary Basis Set <=

  Basis Set: (6-311+G* AUX)
    Blend: HEAVY-AUG-CC-PVTZ-JKFIT
    Number of shells: 1420
    Number of basis function: 4778
    Number of Cartesian functions: 5932
    Spherical Harmonics?: true
    Max angular momentum: 4

  Minimum eigenvalue in the overlap matrix is 9.8247874641E-08.
  Using Canonical Orthogonalization with cutoff of 1.0000000000E-07.
  Overall, 1 of 907 possible MOs eliminated.

  SCF Guess: Superposition of Atomic Densities via on-the-fly atomic UHF.

  ==> Iterations <==

                           Total Energy        Delta E     RMS |[F,P]|

   @DF-RHF iter SAD: -1570.80148406798753   -1.57080e+03   0.00000e+00 
   @DF-RHF iter   1: -1571.27399868721136   -4.72515e-01   1.37678e-03 DIIS
   @DF-RHF iter   2: -1572.03720954916548   -7.63211e-01   7.24512e-04 DIIS
   @DF-RHF iter   3: -1572.22816764280969   -1.90958e-01   1.81462e-04 DIIS
   @DF-RHF iter   4: -1572.24436139460659   -1.61938e-02   7.06317e-05 DIIS
   @DF-RHF iter   5: -1572.24663058099463   -2.26919e-03   1.42657e-05 DIIS
   @DF-RHF iter   6: -1572.24676418327044   -1.33602e-04   6.79355e-06 DIIS
   @DF-RHF iter   7: -1572.24679678586244   -3.26026e-05   2.20609e-06 DIIS
   @DF-RHF iter   8: -1572.24680206632593   -5.28046e-06   8.86733e-07 DIIS
   @DF-RHF iter   9: -1572.24680298291241   -9.16586e-07   3.54568e-07 DIIS
   @DF-RHF iter  10: -1572.24680315906085   -1.76148e-07   1.52715e-07 DIIS
   @DF-RHF iter  11: -1572.24680319412687   -3.50660e-08   7.64359e-08 DIIS
   @DF-RHF iter  12: -1572.24680320352445   -9.39758e-09   3.02893e-08 DIIS
   @DF-RHF iter  13: -1572.24680320543871   -1.91426e-09   1.30386e-08 DIIS
   @DF-RHF iter  14: -1572.24680320556536   -1.26647e-10   6.22616e-09 DIIS
  Energy and wave function converged.


  ==> Post-Iterations <==

    Orbital Energies [Eh]
    ---------------------

    Doubly Occupied:                                                      

       1A    -20.515935     2A    -15.602438     3A    -15.598500  
       4A    -15.584610     5A    -15.572095     6A    -15.571908  
       7A    -15.570738     8A    -15.565913     9A    -11.372559  
      10A    -11.360159    11A    -11.340968    12A    -11.333569  
      13A    -11.332686    14A    -11.318951    15A    -11.316955  
      16A    -11.312973    17A    -11.299747    18A    -11.299382  
      19A    -11.298659    20A    -11.290847    21A    -11.288367  
      22A    -11.278362    23A    -11.275963    24A    -11.264535  
      25A    -11.261697    26A    -11.253450    27A    -11.251643  
      28A    -11.249731    29A    -11.246270    30A    -11.245083  
      31A    -11.243327    32A    -11.239905    33A    -11.238211  
      34A    -11.236310    35A    -11.232666    36A    -11.229519  
      37A    -11.223191    38A     -1.381393    39A     -1.343958  
      40A     -1.276750    41A     -1.253808    42A     -1.248220  
      43A     -1.239573    44A     -1.208230    45A     -1.208123  
      46A     -1.155219    47A     -1.137756    48A     -1.114503  
      49A     -1.073742    50A     -1.055993    51A     -1.046663  
      52A     -1.035768    53A     -1.015325    54A     -1.006097  
      55A     -0.998018    56A     -0.978060    57A     -0.947730  
      58A     -0.931063    59A     -0.925130    60A     -0.899337  
      61A     -0.871210    62A     -0.862123    63A     -0.856570  
      64A     -0.838854    65A     -0.833636    66A     -0.827691  
      67A     -0.824998    68A     -0.802914    69A     -0.775164  
      70A     -0.752898    71A     -0.736920    72A     -0.727768  
      73A     -0.720542    74A     -0.704257    75A     -0.692391  
      76A     -0.681471    77A     -0.667818    78A     -0.664603  
      79A     -0.656409    80A     -0.651053    81A     -0.649673  
      82A     -0.644946    83A     -0.635667    84A     -0.627672  
      85A     -0.625375    86A     -0.619187    87A     -0.612108  
      88A     -0.610002    89A     -0.605915    90A     -0.601588  
      91A     -0.597486    92A     -0.594247    93A     -0.591876  
      94A     -0.587858    95A     -0.584337    96A     -0.579144  
      97A     -0.578858    98A     -0.571892    99A     -0.564775  
     100A     -0.559640   101A     -0.547300   102A     -0.543344  
     103A     -0.540745   104A     -0.531648   105A     -0.525695  
     106A     -0.521357   107A     -0.514047   108A     -0.512320  
     109A     -0.507244   110A     -0.501476   111A     -0.494978  
     112A     -0.488231   113A     -0.482982   114A     -0.475290  
     115A     -0.453312   116A     -0.450033   117A     -0.440752  
     118A     -0.437271   119A     -0.423624   120A     -0.422530  
     121A     -0.412479   122A     -0.410497   123A     -0.398353  
     124A     -0.392086   125A     -0.371411   126A     -0.344304  
     127A     -0.338250   128A     -0.331892   129A     -0.325353  
     130A     -0.311691   131A     -0.288221  

    Virtual:                                                              

     132A      0.044460   133A      0.047886   134A      0.054848  
     135A      0.061091   136A      0.065990   137A      0.068653  
     138A      0.071591   139A      0.073333   140A      0.075431  
     141A      0.081094   142A      0.082270   143A      0.083378  
     144A      0.086603   145A      0.088367   146A      0.090046  
     147A      0.095477   148A      0.096424   149A      0.099521  
     150A      0.101439   151A      0.102055   152A      0.104629  
     153A      0.105559   154A      0.109268   155A      0.110886  
     156A      0.112820   157A      0.115760   158A      0.117769  
     159A      0.118192   160A      0.119031   161A      0.124732  
     162A      0.125798   163A      0.129772   164A      0.132621  
     165A      0.134869   166A      0.136182   167A      0.139361  
     168A      0.141623   169A      0.142577   170A      0.147040  
     171A      0.147400   172A      0.150735   173A      0.152775  
     174A      0.153818   175A      0.156117   176A      0.159131  
     177A      0.159774   178A      0.164375   179A      0.166377  
     180A      0.168829   181A      0.172302   182A      0.173177  
     183A      0.178640   184A      0.180965   185A      0.183210  
     186A      0.185614   187A      0.189459   188A      0.191657  
     189A      0.194205   190A      0.196240   191A      0.198498  
     192A      0.200811   193A      0.203327   194A      0.204037  
     195A      0.209567   196A      0.210794   197A      0.211964  
     198A      0.219002   199A      0.220097   200A      0.223336  
     201A      0.225265   202A      0.228203   203A      0.229022  
     204A      0.231504   205A      0.233186   206A      0.234655  
     207A      0.238679   208A      0.240558   209A      0.244359  
     210A      0.248037   211A      0.251246   212A      0.253297  
     213A      0.255671   214A      0.258020   215A      0.260660  
     216A      0.261919   217A      0.263119   218A      0.264202  
     219A      0.268337   220A      0.271496   221A      0.271867  
     222A      0.275094   223A      0.277099   224A      0.281652  
     225A      0.283000   226A      0.285053   227A      0.286164  
     228A      0.287403   229A      0.289010   230A      0.290754  
     231A      0.292679   232A      0.295662   233A      0.298893  
     234A      0.299833   235A      0.302353   236A      0.305344  
     237A      0.306435   238A      0.309647   239A      0.311939  
     240A      0.313069   241A      0.315618   242A      0.317247  
     243A      0.319509   244A      0.323499   245A      0.324628  
     246A      0.325973   247A      0.327016   248A      0.328781  
     249A      0.329947   250A      0.331374   251A      0.334911  
     252A      0.336065   253A      0.337390   254A      0.338781  
     255A      0.340634   256A      0.343896   257A      0.346767  
     258A      0.348087   259A      0.349104   260A      0.349834  
     261A      0.352770   262A      0.355785   263A      0.357092  
     264A      0.359285   265A      0.359783   266A      0.362489  
     267A      0.363040   268A      0.367997   269A      0.368835  
     270A      0.369735   271A      0.372099   272A      0.373164  
     273A      0.374832   274A      0.377749   275A      0.379601  
     276A      0.382188   277A      0.384610   278A      0.386206  
     279A      0.387280   280A      0.389716   281A      0.391277  
     282A      0.392258   283A      0.394493   284A      0.397478  
     285A      0.398160   286A      0.400327   287A      0.401187  
     288A      0.404437   289A      0.406616   290A      0.407802  
     291A      0.412420   292A      0.414109   293A      0.415223  
     294A      0.417182   295A      0.418277   296A      0.419292  
     297A      0.421713   298A      0.426661   299A      0.428500  
     300A      0.431363   301A      0.432176   302A      0.434414  
     303A      0.436259   304A      0.438754   305A      0.440188  
     306A      0.442622   307A      0.447850   308A      0.449948  
     309A      0.452495   310A      0.456764   311A      0.457814  
     312A      0.461907   313A      0.466278   314A      0.468405  
     315A      0.469920   316A      0.476180   317A      0.479164  
     318A      0.481225   319A      0.483379   320A      0.484395  
     321A      0.488195   322A      0.490884   323A      0.495284  
     324A      0.500371   325A      0.503144   326A      0.506391  
     327A      0.507820   328A      0.510472   329A      0.517759  
     330A      0.520333   331A      0.522249   332A      0.524998  
     333A      0.527164   334A      0.528833   335A      0.538317  
     336A      0.540473   337A      0.542332   338A      0.545532  
     339A      0.551213   340A      0.554262   341A      0.559420  
     342A      0.566252   343A      0.573560   344A      0.580661  
     345A      0.583726   346A      0.591134   347A      0.592573  
     348A      0.596791   349A      0.597024   350A      0.601862  
     351A      0.609041   352A      0.610366   353A      0.616285  
     354A      0.622856   355A      0.631351   356A      0.646472  
     357A      0.655688   358A      0.660704   359A      0.662312  
     360A      0.667778   361A      0.671943   362A      0.677199  
     363A      0.682002   364A      0.686364   365A      0.696340  
     366A      0.701418   367A      0.706052   368A      0.712945  
     369A      0.717279   370A      0.718932   371A      0.722361  
     372A      0.726788   373A      0.729462   374A      0.734089  
     375A      0.737076   376A      0.743899   377A      0.751376  
     378A      0.755676   379A      0.757201   380A      0.758952  
     381A      0.761922   382A      0.763757   383A      0.766349  
     384A      0.769601   385A      0.772945   386A      0.775182  
     387A      0.779199   388A      0.788499   389A      0.792467  
     390A      0.799339   391A      0.802310   392A      0.804743  
     393A      0.805961   394A      0.808359   395A      0.811394  
     396A      0.816478   397A      0.820635   398A      0.825110  
     399A      0.826048   400A      0.831056   401A      0.833043  
     402A      0.834961   403A      0.839930   404A      0.843480  
     405A      0.847933   406A      0.851889   407A      0.854578  
     408A      0.858143   409A      0.860284   410A      0.866567  
     411A      0.869864   412A      0.870940   413A      0.875063  
     414A      0.878008   415A      0.881579   416A      0.882376  
     417A      0.886809   418A      0.887615   419A      0.893758  
     420A      0.901662   421A      0.903662   422A      0.904824  
     423A      0.910372   424A      0.913809   425A      0.915532  
     426A      0.916804   427A      0.918463   428A      0.920954  
     429A      0.924084   430A      0.926149   431A      0.928522  
     432A      0.932230   433A      0.935975   434A      0.943659  
     435A      0.944895   436A      0.946613   437A      0.951360  
     438A      0.955562   439A      0.957104   440A      0.959176  
     441A      0.960957   442A      0.964017   443A      0.968213  
     444A      0.976216   445A      0.978726   446A      0.982391  
     447A      0.985912   448A      0.986929   449A      0.988285  
     450A      0.995774   451A      0.997192   452A      1.002671  
     453A      1.011167   454A      1.017268   455A      1.024475  
     456A      1.032983   457A      1.039669   458A      1.043847  
     459A      1.051028   460A      1.053843   461A      1.057315  
     462A      1.062560   463A      1.067815   464A      1.071064  
     465A      1.072903   466A      1.080151   467A      1.085324  
     468A      1.096610   469A      1.099855   470A      1.101002  
     471A      1.103997   472A      1.108588   473A      1.109839  
     474A      1.118827   475A      1.124522   476A      1.126059  
     477A      1.132531   478A      1.136012   479A      1.140367  
     480A      1.142315   481A      1.151180   482A      1.158224  
     483A      1.160823   484A      1.166178   485A      1.168404  
     486A      1.170849   487A      1.174373   488A      1.178612  
     489A      1.180176   490A      1.182581   491A      1.185240  
     492A      1.188310   493A      1.189226   494A      1.197764  
     495A      1.205306   496A      1.208312   497A      1.213260  
     498A      1.218306   499A      1.229316   500A      1.231586  
     501A      1.233512   502A      1.236181   503A      1.239762  
     504A      1.245002   505A      1.247615   506A      1.258389  
     507A      1.264367   508A      1.268857   509A      1.274093  
     510A      1.280735   511A      1.283376   512A      1.286620  
     513A      1.288952   514A      1.291539   515A      1.295176  
     516A      1.304892   517A      1.313578   518A      1.314772  
     519A      1.327188   520A      1.329271   521A      1.335714  
     522A      1.345309   523A      1.350294   524A      1.357701  
     525A      1.371246   526A      1.379115   527A      1.384147  
     528A      1.385182   529A      1.397212   530A      1.405082  
     531A      1.405946   532A      1.429005   533A      1.436306  
     534A      1.441665   535A      1.450596   536A      1.454901  
     537A      1.456819   538A      1.464780   539A      1.470435  
     540A      1.474423   541A      1.476742   542A      1.487321  
     543A      1.490659   544A      1.498746   545A      1.505216  
     546A      1.511028   547A      1.515795   548A      1.529118  
     549A      1.534417   550A      1.545460   551A      1.550415  
     552A      1.555582   553A      1.566642   554A      1.569079  
     555A      1.587552   556A      1.589407   557A      1.594381  
     558A      1.602289   559A      1.610756   560A      1.621058  
     561A      1.632202   562A      1.647032   563A      1.655663  
     564A      1.674917   565A      1.691644   566A      1.695380  
     567A      1.705396   568A      1.713809   569A      1.733915  
     570A      1.742487   571A      1.745022   572A      1.753790  
     573A      1.774942   574A      1.787823   575A      1.790137  
     576A      1.799477   577A      1.804441   578A      1.808694  
     579A      1.812339   580A      1.816962   581A      1.818681  
     582A      1.821794   583A      1.828786   584A      1.836839  
     585A      1.842734   586A      1.846944   587A      1.851729  
     588A      1.855799   589A      1.857961   590A      1.859341  
     591A      1.866992   592A      1.868978   593A      1.871638  
     594A      1.874969   595A      1.875736   596A      1.882770  
     597A      1.890695   598A      1.903738   599A      1.926521  
     600A      1.931641   601A      1.939518   602A      1.945662  
     603A      1.960469   604A      1.967865   605A      1.970164  
     606A      1.972787   607A      1.991927   608A      1.997504  
     609A      2.009262   610A      2.022669   611A      2.034719  
     612A      2.037498   613A      2.039633   614A      2.043821  
     615A      2.047041   616A      2.053248   617A      2.069530  
     618A      2.078397   619A      2.083726   620A      2.089709  
     621A      2.092323   622A      2.093244   623A      2.109555  
     624A      2.114020   625A      2.121160   626A      2.128071  
     627A      2.131432   628A      2.148027   629A      2.152606  
     630A      2.157601   631A      2.178362   632A      2.183599  
     633A      2.187230   634A      2.189856   635A      2.195767  
     636A      2.209420   637A      2.216597   638A      2.218530  
     639A      2.221958   640A      2.223591   641A      2.235284  
     642A      2.237612   643A      2.242020   644A      2.246003  
     645A      2.251856   646A      2.257967   647A      2.260910  
     648A      2.261277   649A      2.270589   650A      2.272517  
     651A      2.285823   652A      2.293134   653A      2.302108  
     654A      2.316804   655A      2.318226   656A      2.362070  
     657A      2.370281   658A      2.379435   659A      2.383092  
     660A      2.397919   661A      2.410012   662A      2.436086  
     663A      2.446824   664A      2.454381   665A      2.474908  
     666A      2.492703   667A      2.503910   668A      2.509371  
     669A      2.517144   670A      2.538837   671A      2.543747  
     672A      2.553478   673A      2.572347   674A      2.605414  
     675A      2.621504   676A      2.639724   677A      2.643443  
     678A      2.648527   679A      2.651801   680A      2.658363  
     681A      2.663467   682A      2.665598   683A      2.667891  
     684A      2.674846   685A      2.676814   686A      2.684558  
     687A      2.689894   688A      2.692017   689A      2.705516  
     690A      2.709140   691A      2.726711   692A      2.739981  
     693A      2.758829   694A      2.772369   695A      2.774772  
     696A      2.781096   697A      2.786083   698A      2.793148  
     699A      2.811599   700A      2.813728   701A      2.818136  
     702A      2.849162   703A      2.854272   704A      2.861170  
     705A      2.875052   706A      2.883056   707A      2.885953  
     708A      2.892021   709A      2.894400   710A      2.905477  
     711A      2.906883   712A      2.916472   713A      2.925870  
     714A      2.934447   715A      2.938421   716A      2.958021  
     717A      2.964804   718A      2.970213   719A      2.982621  
     720A      2.989425   721A      2.997075   722A      3.010281  
     723A      3.017000   724A      3.021705   725A      3.035815  
     726A      3.044223   727A      3.044937   728A      3.053875  
     729A      3.056381   730A      3.072106   731A      3.081878  
     732A      3.083422   733A      3.090052   734A      3.098456  
     735A      3.101799   736A      3.111944   737A      3.128204  
     738A      3.142598   739A      3.152846   740A      3.161720  
     741A      3.168256   742A      3.177569   743A      3.182729  
     744A      3.191419   745A      3.196554   746A      3.203021  
     747A      3.214098   748A      3.228380   749A      3.237094  
     750A      3.240459   751A      3.243127   752A      3.262249  
     753A      3.270275   754A      3.289505   755A      3.294724  
     756A      3.298110   757A      3.302412   758A      3.309287  
     759A      3.316014   760A      3.322303   761A      3.340171  
     762A      3.342334   763A      3.346829   764A      3.350761  
     765A      3.356842   766A      3.367144   767A      3.367747  
     768A      3.371700   769A      3.379807   770A      3.386983  
     771A      3.396223   772A      3.421757   773A      3.433372  
     774A      3.474735   775A      3.476942   776A      3.496678  
     777A      3.505271   778A      3.507084   779A      3.552680  
     780A      3.567602   781A      3.568039   782A      3.571305  
     783A      3.591320   784A      3.598126   785A      3.598889  
     786A      3.632212   787A      3.639070   788A      3.646460  
     789A      3.659296   790A      3.663420   791A      3.687100  
     792A      3.700255   793A      3.701451   794A      3.703669  
     795A      3.714176   796A      3.721461   797A      3.734301  
     798A      3.741714   799A      3.756585   800A      3.763906  
     801A      3.772643   802A      3.772971   803A      3.778838  
     804A      3.785159   805A      3.790036   806A      3.811723  
     807A      3.815665   808A      3.821690   809A      3.831420  
     810A      3.846400   811A      3.856463   812A      3.872056  
     813A      3.884474   814A      3.897078   815A      3.909659  
     816A      3.924896   817A      3.934799   818A      3.959466  
     819A      3.970144   820A      4.025631   821A      4.027856  
     822A      4.048952   823A      4.070632   824A      4.084996  
     825A      4.104582   826A      4.105112   827A      4.116025  
     828A      4.159453   829A      4.184840   830A      4.225763  
     831A      4.288179   832A      4.329002   833A      4.362312  
     834A      4.384622   835A      4.398319   836A      4.410911  
     837A      4.416307   838A      4.418088   839A      4.422768  
     840A      4.443935   841A      4.463820   842A      4.483538  
     843A      4.491337   844A      4.512269   845A      4.540267  
     846A      4.595672   847A      4.654262   848A      4.686276  
     849A      4.763283   850A      4.848314   851A      4.873161  
     852A      4.947511   853A      4.992113   854A      5.017802  
     855A      5.053704   856A      5.084047   857A      5.168729  
     858A      5.193145   859A      5.225882   860A      5.243773  
     861A      5.271895   862A      5.342575   863A      5.584988  
     864A      5.645017   865A      5.689263   866A      5.768602  
     867A      5.826995   868A      5.855283   869A      6.383084  
     870A     24.526742   871A     24.590720   872A     24.635941  
     873A     24.644380   874A     24.680348   875A     24.708904  
     876A     24.779350   877A     24.806464   878A     24.811368  
     879A     24.852068   880A     24.874598   881A     24.974050  
     882A     25.003201   883A     25.009554   884A     25.012910  
     885A     25.024441   886A     25.041389   887A     25.058237  
     888A     25.059139   889A     25.070443   890A     25.132390  
     891A     25.152362   892A     25.174003   893A     25.183319  
     894A     25.195146   895A     25.202165   896A     25.205732  
     897A     25.279068   898A     25.280569   899A     36.889994  
     900A     36.933262   901A     36.971934   902A     36.998941  
     903A     37.044303   904A     37.099764   905A     37.142821  
     906A     51.760078  

    Final Occupation by Irrep:
              A 
    DOCC [   131 ]

  @DF-RHF Final Energy: -1572.24680320556536

   => Energetics <=

    Nuclear Repulsion Energy =           3642.7705285095780710
    One-Electron Energy =               -9383.7776038376250654
    Two-Electron Energy =                4168.7602721224820925
    Total Energy =                      -1572.2468032055649019

Computation Completed


Properties will be evaluated at   0.000000,   0.000000,   0.000000 [a0]

Properties computed using the SCF density matrix

  Nuclear Dipole Moment: [e a0]
     X:   -44.6229      Y:     6.1719      Z:     4.1138

  Electronic Dipole Moment: [e a0]
     X:    44.3443      Y:    -3.0631      Z:    -3.6841

  Dipole Moment: [e a0]
     X:    -0.2785      Y:     3.1088      Z:     0.4297     Total:     3.1507

  Dipole Moment: [D]
     X:    -0.7080      Y:     7.9018      Z:     1.0921     Total:     8.0083


*** tstop() called on node37.bme.utexas.edu at Sun Apr 26 12:22:49 2020
Module time:
	user time   =    3261.16 seconds =      54.35 minutes
	system time =      34.84 seconds =       0.58 minutes
	total time  =        580 seconds =       9.67 minutes
Total time:
	user time   =    3261.16 seconds =      54.35 minutes
	system time =      34.84 seconds =       0.58 minutes
	total time  =        580 seconds =       9.67 minutes

*** tstart() called on node37.bme.utexas.edu
*** at Sun Apr 26 12:22:49 2020


  //>>>>>>>>>>>>>>>>>>>>>>>>>>>>>>>>>>>//
  //               DFMP2               //
  //<<<<<<<<<<<<<<<<<<<<<<<<<<<<<<<<<<<//

   => Loading Basis Set <=

    Name: (6-311+G* AUX)
    Role: RIFIT
    Keyword: DF_BASIS_MP2
    atoms 1-4, 6-9, 11, 14-19, 21-28, 30-31, 33-35, 37 entry C          line   148 file /home/bdw2292/miniconda3/envs/p4env/share/psi4/basis/heavy-aug-cc-pvtz-ri.gbs 
    atoms 5, 10, 12-13, 20, 29, 32                     entry N          line   206 file /home/bdw2292/miniconda3/envs/p4env/share/psi4/basis/heavy-aug-cc-pvtz-ri.gbs 
    atoms 36                                           entry O          line   264 file /home/bdw2292/miniconda3/envs/p4env/share/psi4/basis/heavy-aug-cc-pvtz-ri.gbs 
    atoms 38-68                                        entry H          line    44 file /home/bdw2292/miniconda3/envs/p4env/share/psi4/basis/heavy-aug-cc-pvtz-ri.gbs 

	 --------------------------------------------------------
	                          DF-MP2                         
	      2nd-Order Density-Fitted Moller-Plesset Theory     
	              RMP2 Wavefunction,   6 Threads             
	                                                         
	        Rob Parrish, Justin Turney, Andy Simmonett,      
	           Ed Hohenstein, and C. David Sherrill          
	 --------------------------------------------------------

   => Auxiliary Basis Set <=

  Basis Set: (6-311+G* AUX)
    Blend: HEAVY-AUG-CC-PVTZ-RI
    Number of shells: 1346
    Number of basis function: 4852
    Number of Cartesian functions: 6117
    Spherical Harmonics?: true
    Max angular momentum: 4

	 --------------------------------------------------------
	                 NBF =   907, NAUX =  4852
	 --------------------------------------------------------
	   CLASS    FOCC     OCC    AOCC    AVIR     VIR    FVIR
	   PAIRS      37     131      94     775     775       0
	 --------------------------------------------------------

	-----------------------------------------------------------
	 ==================> DF-MP2 Energies <==================== 
	-----------------------------------------------------------
	 Reference Energy          =   -1572.2468032055653566 [Eh]
	 Singles Energy            =      -0.0000000000000000 [Eh]
	 Same-Spin Energy          =      -1.4471595029421205 [Eh]
	 Opposite-Spin Energy      =      -3.8950782540868354 [Eh]
	 Correlation Energy        =      -5.3422377570289559 [Eh]
	 Total Energy              =   -1577.5890409625942539 [Eh]
	-----------------------------------------------------------
	 ================> DF-SCS-MP2 Energies <================== 
	-----------------------------------------------------------
	 SCS Same-Spin Scale       =       0.3333333333333333 [-]
	 SCS Opposite-Spin Scale   =       1.2000000000000000 [-]
	 SCS Same-Spin Energy      =      -0.4823865009807068 [Eh]
	 SCS Opposite-Spin Energy  =      -4.6740939049042023 [Eh]
	 SCS Correlation Energy    =      -5.1564804058849090 [Eh]
	 SCS Total Energy          =   -1577.4032836114502061 [Eh]
	-----------------------------------------------------------


*** tstop() called on node37.bme.utexas.edu at Sun Apr 26 12:28:29 2020
Module time:
	user time   =    1907.67 seconds =      31.79 minutes
	system time =      14.25 seconds =       0.24 minutes
	total time  =        340 seconds =       5.67 minutes
Total time:
	user time   =    5168.84 seconds =      86.15 minutes
	system time =      49.09 seconds =       0.82 minutes
	total time  =        920 seconds =      15.33 minutes


Properties will be evaluated at   0.000000,   0.000000,   0.000000 [a0]
OEProp: No title given, name of density matrix used for the following properties is 'SCF density'


  Wiberg Bond Indices using Orthogonal Lowdin Orbitals:

  Irrep: 1 Size: 68 x 68

                 1                   2                   3                   4                   5

    1     0.00000000000000     1.50943338561048     0.12976533641571     0.14766565580882     0.12895744942160
    2     1.50943338561048     0.00000000000000     1.42527774780097     0.13156334206278     0.12501332439302
    3     0.12976533641571     1.42527774780097     0.00000000000000     1.38141444791764     0.12252924808616
    4     0.14766565580882     0.13156334206278     1.38141444791764     0.00000000000000     1.68403816618070
    5     0.12895744942160     0.12501332439302     0.12252924808616     1.68403816618070     0.00000000000000
    6     1.51103398621255     0.14353555466610     0.13993225721275     0.15769525877519     1.64684611325038
    7     0.01550685567457     0.10580555720548     1.02712245823721     0.10691332398830     0.01454792316561
    8     0.00396957448560     0.04547459101659     0.10049470282150     0.02478535948430     0.00236523477960
    9     0.00044754097344     0.00510096503879     0.01544634550806     0.00432625748540     0.00073362824075
   10     0.00045278590603     0.00555650286991     0.00601660687497     0.00621963166098     0.00035013604503
   11     0.00094891400292     0.00354470208096     0.01848421234307     0.00747903527293     0.00050431233923
   12     0.00303377845599     0.02278198707209     0.12156924108803     0.06555205871266     0.00437842949717
   13     0.00018129325680     0.00054043969912     0.00173435860837     0.00099525560064     0.00009726911970
   14     0.00004509633982     0.00012639180835     0.00067343681556     0.00166311809605     0.00013474948786
   15     0.00001384462544     0.00003214052589     0.00009608914593     0.00019445264238     0.00002150309966
   16     0.00000395499082     0.00001031207069     0.00006438666918     0.00035226443637     0.00001756252091
   17     0.00001432116633     0.00002435348212     0.00007648805326     0.00034216886154     0.00005145858991
   18     0.00004444035868     0.00007566303259     0.00036645357808     0.00239101370432     0.00025045413257
   19     0.00023107682294     0.00030730521048     0.00241022746978     0.01220863594533     0.00066566449307
   20     0.00008436830578     0.00008829373528     0.00039267130466     0.00375971363454     0.00067087370254
   21     0.00001997318135     0.00001996230736     0.00006615435074     0.00050704774752     0.00026178371402
   22     0.00006574886052     0.00004782576888     0.00006248642959     0.00069447511514     0.00182474217269
   23     0.00060452777012     0.00040993902191     0.00054448268294     0.00785113290849     0.02601873900651
   24     0.00025065165190     0.00025928274719     0.00032610750851     0.00140710160097     0.01081537974077
   25     0.00002100651236     0.00001645243252     0.00002303496955     0.00014018136462     0.00056786821900
   26     0.00001494766136     0.00000745092574     0.00001579580462     0.00017527954074     0.00043732039538
   27     0.00001509219567     0.00000759128863     0.00001974462497     0.00019781751287     0.00055887728587
   28     0.00000711127729     0.00000323424538     0.00000423709080     0.00002781388261     0.00007841222279
   29     0.00001883036362     0.00000324285629     0.00000433663636     0.00001677859945     0.00009341727742
   30     0.00000454735421     0.00000183973820     0.00000221494057     0.00000419497620     0.00001741515054
   31     0.00000189604654     0.00000047715491     0.00000060806304     0.00000126824178     0.00000367915309
   32     0.00000195625789     0.00000043735471     0.00000031605753     0.00000048197817     0.00000259482012
   33     0.00000173182285     0.00000038867479     0.00000028450257     0.00000041646528     0.00000129830310
   34     0.00001414345886     0.00000157915864     0.00000170351361     0.00000292090037     0.00000812063909
   35     0.00010124351105     0.00003022418866     0.00002534401867     0.00003094871856     0.00013558707046
   36     0.00000281506788     0.00000351482467     0.00001776965291     0.00016405250894     0.00005351477477
   37     0.00000391170911     0.00001124865883     0.00005005533983     0.00005593794990     0.00000459333781
   38     0.84229555240497     0.05682279995911     0.00961837403089     0.00271978105594     0.00789786042572
   39     0.05349905421342     0.82974948837950     0.05234685217430     0.00960308958769     0.00126873365373
   40     0.00207091621489     0.00817646561075     0.04935299804989     0.80883061564193     0.06236628857854
   41     0.05484492073125     0.00968556410895     0.00259184556339     0.01283744389017     0.06467929627826
   42     0.00070886246526     0.01029183406306     0.01107688325200     0.00057117861712     0.00016273927317
   43     0.00003745565715     0.00020596770908     0.00109747558284     0.00026242716394     0.00006340306021
   44     0.00001381961062     0.00005061760073     0.00023721343015     0.00004426588844     0.00000606569814
   45     0.00000070296408     0.00000190049670     0.00000909303950     0.00001949616252     0.00000212038688
   46     0.00000134005851     0.00000228896730     0.00000696202913     0.00002215036697     0.00000775987405
   47     0.00006105954722     0.00007476486605     0.00138521356469     0.00528916753230     0.00026666966630
   48     0.00004136766309     0.00002848110774     0.00010739353153     0.00125103639524     0.00031588622223
   49     0.00025095675313     0.00008288168169     0.00016154760165     0.00411044048280     0.00980708777974
   50     0.00002715454038     0.00001890031373     0.00003773973636     0.00012148492519     0.00118277141150
   51     0.00000196975500     0.00000094262565     0.00000311910135     0.00001887882587     0.00002648039476
   52     0.00000210082313     0.00000108928970     0.00000304047383     0.00000821529731     0.00004004216092
   53     0.00000060716958     0.00000039289923     0.00000074760581     0.00000450539932     0.00001638022379
   54     0.00000085239177     0.00000022226703     0.00000051767669     0.00000718067090     0.00000499703458
   55     0.00000052224943     0.00000008078057     0.00000034738585     0.00000024672995     0.00000161030877
   56     0.00000026955632     0.00000013218527     0.00000014773490     0.00000019954573     0.00000090595441
   57     0.00000035879339     0.00000003678865     0.00000006987723     0.00000011503191     0.00000087389246
   58     0.00000118518129     0.00000029311564     0.00000018438977     0.00000024881595     0.00000160963561
   59     0.00000050852410     0.00000006051563     0.00000002571844     0.00000008037457     0.00000026458401
   60     0.00000028108710     0.00000002451748     0.00000002203933     0.00000004051038     0.00000010834344
   61     0.00000014179164     0.00000006149068     0.00000006228261     0.00000005154366     0.00000026010179
   62     0.00000015626562     0.00000006885440     0.00000007921120     0.00000008259980     0.00000026907692
   63     0.00001108593474     0.00000064376334     0.00000062506545     0.00000086439170     0.00000286335463
   64     0.00001459365775     0.00000147286019     0.00000159438409     0.00000195689367     0.00000628988240
   65     0.00000322596901     0.00000054174567     0.00000050544540     0.00000093650203     0.00000491505125
   66     0.00000079499452     0.00000153894416     0.00001099530535     0.00000881516595     0.00000068393835
   67     0.00000069357045     0.00000145530084     0.00000604667160     0.00000941792104     0.00000049640851
   68     0.00000034099592     0.00000072120125     0.00000401578588     0.00000901394297     0.00000044309070

                 6                   7                   8                   9                  10

    1     1.51103398621255     0.01550685567457     0.00396957448560     0.00044754097344     0.00045278590603
    2     0.14353555466610     0.10580555720548     0.04547459101659     0.00510096503879     0.00555650286991
    3     0.13993225721275     1.02712245823721     0.10049470282150     0.01544634550806     0.00601660687497
    4     0.15769525877519     0.10691332398830     0.02478535948430     0.00432625748540     0.00621963166098
    5     1.64684611325038     0.01454792316561     0.00236523477960     0.00073362824075     0.00035013604503
    6     0.00000000000000     0.01024750937470     0.00724204709639     0.00128279106644     0.00342487146035
    7     0.01024750937470     0.00000000000000     1.40873564368222     0.15004481204102     0.11288821761288
    8     0.00724204709639     1.40873564368222     0.00000000000000     1.47563194015195     0.13562718267572
    9     0.00128279106644     0.15004481204102     1.47563194015195     0.00000000000000     1.68136791394014
   10     0.00342487146035     0.11288821761288     0.13562718267572     1.68136791394014     0.00000000000000
   11     0.00092351881938     0.14260848965414     0.11670340706338     0.15498649625657     1.51549885354063
   12     0.00635742698177     1.53662800253068     0.12951388481534     0.11388672093235     0.11142842352752
   13     0.00008930993714     0.02006447400289     0.02227632421796     0.02519386607275     0.16504997697775
   14     0.00006215993802     0.00323064194914     0.00264918966751     0.00343815420077     0.01741995858139
   15     0.00000963981095     0.00057054887041     0.00153039609851     0.00100129508496     0.00332166822971
   16     0.00000638649133     0.00020478710857     0.00021394709374     0.00018705005110     0.00053147976059
   17     0.00000877193413     0.00028724807512     0.00135397337483     0.00046169636837     0.00130971734454
   18     0.00006092492980     0.00063878211704     0.00029755133022     0.00017093061086     0.00047169616746
   19     0.00024911786009     0.00643913898410     0.00339608743123     0.00169710421255     0.00460987390318
   20     0.00008719430717     0.00014697156899     0.00003509091660     0.00002379267150     0.00006927398482
   21     0.00003857050752     0.00002781450535     0.00001117347178     0.00000772430681     0.00001983314880
   22     0.00020071500841     0.00001233856857     0.00000503207211     0.00000255010913     0.00000470669233
   23     0.00266196602074     0.00008853066963     0.00002585618401     0.00000804813990     0.00000520862782
   24     0.00285685208307     0.00003710000335     0.00002367722635     0.00000395775633     0.00000380059741
   25     0.00025120593034     0.00000457408651     0.00000286413642     0.00000055863684     0.00000069692463
   26     0.00015535722126     0.00000304179867     0.00000095905335     0.00000039824044     0.00000054365932
   27     0.00014223339145     0.00000493329256     0.00000199028356     0.00000084340406     0.00000138189198
   28     0.00006691103199     0.00000143407960     0.00000052774864     0.00000012706672     0.00000012068263
   29     0.00022154587751     0.00000120799403     0.00000065386511     0.00000007081647     0.00000007647989
   30     0.00003427583924     0.00000046733656     0.00000030712238     0.00000003588284     0.00000008094082
   31     0.00002596394265     0.00000018125155     0.00000007251767     0.00000001809702     0.00000001238482
   32     0.00003924168722     0.00000024071673     0.00000006245222     0.00000001591701     0.00000000724422
   33     0.00002517284223     0.00000013555394     0.00000003457936     0.00000000782854     0.00000000538753
   34     0.00026268692397     0.00000109759191     0.00000039802183     0.00000007502592     0.00000004108628
   35     0.00069968467801     0.00000656186437     0.00000270083879     0.00000044348448     0.00000110811607
   36     0.00001159992165     0.00001490700928     0.00000918039208     0.00000545353457     0.00001278450170
   37     0.00000336896358     0.00018629307417     0.00017296830852     0.00016472641856     0.00085211266395
   38     0.05964383211714     0.00092640866556     0.00017220038455     0.00003391480542     0.00001775602038
   39     0.00970680594156     0.01305761946415     0.01078714870529     0.00073848285311     0.00018721243232
   40     0.01188626097721     0.01220579192667     0.00075425028319     0.00020295630582     0.00022925348876
   41     0.83960308630168     0.00033768219971     0.00007912417270     0.00002598127578     0.00001159720501
   42     0.00020561058636     0.05553506690573     0.82766620611902     0.05774750662134     0.00715039319534
   43     0.00003555318966     0.00944526788068     0.05381065894658     0.83813323023132     0.06622556590796
   44     0.00000446989728     0.00115594490650     0.00062197392976     0.00197188471145     0.01808202515455
   45     0.00000070347372     0.00001905180652     0.00000925063972     0.00002432800200     0.00005332951148
   46     0.00000163557232     0.00001793411201     0.00000644358535     0.00000531169335     0.00001287257375
   47     0.00008091753678     0.00279508758717     0.00041472097818     0.00023939398799     0.00021830150718
   48     0.00003016059507     0.00004377416178     0.00000973078108     0.00000276784986     0.00001134785621
   49     0.00103989536264     0.00002247109647     0.00000732546399     0.00000177176948     0.00000135191453
   50     0.00107294707774     0.00000392470914     0.00000217898537     0.00000036613098     0.00000041622237
   51     0.00000468898940     0.00000036001006     0.00000018374862     0.00000004660047     0.00000004672583
   52     0.00001401582386     0.00000114597100     0.00000024770461     0.00000009556773     0.00000014286548
   53     0.00000394088882     0.00000034345988     0.00000010505373     0.00000001748506     0.00000001243642
   54     0.00000322433585     0.00000009195417     0.00000006721566     0.00000002054710     0.00000001508058
   55     0.00000245408680     0.00000015823346     0.00000001341532     0.00000000303533     0.00000000150517
   56     0.00000189882048     0.00000002535782     0.00000004123343     0.00000000246397     0.00000000485380
   57     0.00000464757502     0.00000004966334     0.00000001393987     0.00000000439256     0.00000000165322
   58     0.00002012698225     0.00000005021723     0.00000001609163     0.00000000458685     0.00000000314522
   59     0.00000758273429     0.00000001050678     0.00000000757591     0.00000000158340     0.00000000136633
   60     0.00000451980858     0.00000002601778     0.00000001192379     0.00000000264793     0.00000000039117
   61     0.00000293225777     0.00000001523444     0.00000000169513     0.00000000042776     0.00000000043522
   62     0.00000333159876     0.00000002962342     0.00000001123718     0.00000000340649     0.00000000219660
   63     0.00019147717797     0.00000074168320     0.00000017069337     0.00000002700860     0.00000000754366
   64     0.00036656807979     0.00000110859946     0.00000023424168     0.00000006733047     0.00000004263205
   65     0.00002110940912     0.00000018632750     0.00000006042807     0.00000000828535     0.00000001377595
   66     0.00000031855776     0.00003531360807     0.00005783751157     0.00001870204144     0.00010400172396
   67     0.00000038127371     0.00002600201979     0.00009451715337     0.00001643639422     0.00015231605521
   68     0.00000021661307     0.00001459763345     0.00000558403793     0.00000351991558     0.00003258117042

                11                  12                  13                  14                  15

    1     0.00094891400292     0.00303377845599     0.00018129325680     0.00004509633982     0.00001384462544
    2     0.00354470208096     0.02278198707209     0.00054043969912     0.00012639180835     0.00003214052589
    3     0.01848421234307     0.12156924108803     0.00173435860837     0.00067343681556     0.00009608914593
    4     0.00747903527293     0.06555205871266     0.00099525560064     0.00166311809605     0.00019445264238
    5     0.00050431233923     0.00437842949717     0.00009726911970     0.00013474948786     0.00002150309966
    6     0.00092351881938     0.00635742698177     0.00008930993714     0.00006215993802     0.00000963981095
    7     0.14260848965414     1.53662800253068     0.02006447400289     0.00323064194914     0.00057054887041
    8     0.11670340706338     0.12951388481534     0.02227632421796     0.00264918966751     0.00153039609851
    9     0.15498649625657     0.11388672093235     0.02519386607275     0.00343815420077     0.00100129508496
   10     1.51549885354063     0.11142842352752     0.16504997697775     0.01741995858139     0.00332166822971
   11     0.00000000000000     1.53672495242682     1.30310680666427     0.08556875929365     0.01848412889116
   12     1.53672495242682     0.00000000000000     0.14533911564987     0.03148544311915     0.00382081410489
   13     1.30310680666427     0.14533911564987     0.00000000000000     1.14743904163871     0.10865903084838
   14     0.08556875929365     0.03148544311915     1.14743904163871     0.00000000000000     1.32749718974861
   15     0.01848412889116     0.00382081410489     0.10865903084838     1.32749718974861     0.00000000000000
   16     0.00257429561802     0.00135667756929     0.01507463244627     0.12892246441476     1.46699372033952
   17     0.00435562478980     0.00262254586482     0.01270459313059     0.12400881180917     0.12848081145644
   18     0.00271589727957     0.00540509982778     0.01372583807119     0.12567819234785     0.12149539123805
   19     0.03052722271571     0.05909462508337     0.11390041648301     1.42770264527655     0.12210387143988
   20     0.00039328504674     0.00111170341420     0.00140090589521     0.01593984425746     0.01206459603421
   21     0.00008181791667     0.00014804781786     0.00033741580225     0.00292366401933     0.00580178120529
   22     0.00001754263532     0.00002554421203     0.00006695138661     0.00041198147342     0.00034610369314
   23     0.00001818626409     0.00010427402209     0.00001847862599     0.00013870613876     0.00037977321100
   24     0.00000389600703     0.00001598722533     0.00000449543984     0.00001782826108     0.00004021292741
   25     0.00000126704298     0.00000306030032     0.00000239963546     0.00002744376273     0.00017900432547
   26     0.00000121334549     0.00000142621223     0.00000320145135     0.00002370104964     0.00003935631788
   27     0.00000529921437     0.00000617740652     0.00001641721252     0.00011937138339     0.00035571206066
   28     0.00000028841177     0.00000069028090     0.00000038820141     0.00000311131318     0.00001213889751
   29     0.00000021067460     0.00000040284415     0.00000014365436     0.00000141141448     0.00000520220922
   30     0.00000008502041     0.00000014012967     0.00000006959877     0.00000047965015     0.00000163768309
   31     0.00000003479004     0.00000006192887     0.00000003190170     0.00000016938729     0.00000020774568
   32     0.00000003723730     0.00000004055798     0.00000000924556     0.00000003918799     0.00000008317026
   33     0.00000001061932     0.00000002735017     0.00000000701360     0.00000002701100     0.00000003765628
   34     0.00000005437682     0.00000011664705     0.00000006211017     0.00000022686262     0.00000047443260
   35     0.00000029291076     0.00000121907928     0.00000018724238     0.00000050587522     0.00000094053068
   36     0.00005226021530     0.00007006796080     0.00017060937504     0.00109435927263     0.00346033070685
   37     0.00432099798314     0.00097056162228     0.04281713154272     0.10147684818780     1.11509759556001
   38     0.00007187127342     0.00024975642165     0.00001175273613     0.00000802703651     0.00000092395602
   39     0.00014719286243     0.00037688524361     0.00005212302066     0.00002294752934     0.00000466550040
   40     0.00185283832177     0.01793799219607     0.00023078803039     0.00083441570210     0.00007837619956
   41     0.00002616541947     0.00009286133121     0.00000433564559     0.00000381561128     0.00000072985218
   42     0.00286312113651     0.00761446960230     0.00030645166020     0.00004590419983     0.00001448102373
   43     0.01302816769086     0.00139491953615     0.00080430530981     0.00029505191874     0.00004467893903
   44     0.04497093568099     0.00623439489554     0.79228657521418     0.03745963904776     0.00967792661215
   45     0.00033147336924     0.00004250468763     0.00088569899150     0.00939436106594     0.05414957642647
   46     0.00003963745638     0.00009541139929     0.00014237846877     0.00216068752565     0.00828228209866
   47     0.00718504097780     0.02486961009321     0.01187607290220     0.05061419191231     0.00744893363228
   48     0.00006392646713     0.00044046413941     0.00007646480516     0.00121996495301     0.00033437386179
   49     0.00000300213888     0.00002381450571     0.00000276367227     0.00001391900796     0.00007620559541
   50     0.00000054756059     0.00000189829645     0.00000029129533     0.00000154489185     0.00000066010179
   51     0.00000016355333     0.00000009258401     0.00000058191526     0.00000331272836     0.00000279955013
   52     0.00000060640197     0.00000058750994     0.00000129954074     0.00001176651502     0.00000789570083
   53     0.00000005452251     0.00000008952142     0.00000008196938     0.00000105910972     0.00000822192589
   54     0.00000004377762     0.00000005258132     0.00000005668252     0.00000040531953     0.00000097000159
   55     0.00000002506272     0.00000001813261     0.00000000788272     0.00000004830951     0.00000022648541
   56     0.00000000566445     0.00000000808019     0.00000000342347     0.00000003435308     0.00000019326934
   57     0.00000000220532     0.00000000560083     0.00000000211339     0.00000003129340     0.00000003201937
   58     0.00000000743319     0.00000001301513     0.00000000502408     0.00000004054275     0.00000003829496
   59     0.00000000153309     0.00000000247919     0.00000000114518     0.00000000348511     0.00000001129230
   60     0.00000000131188     0.00000000229480     0.00000000066032     0.00000000326487     0.00000000272938
   61     0.00000000104090     0.00000000470842     0.00000000081404     0.00000000449774     0.00000001016197
   62     0.00000000177344     0.00000000362572     0.00000000220022     0.00000001894182     0.00000004871316
   63     0.00000003075599     0.00000006526874     0.00000000851589     0.00000004683869     0.00000010541087
   64     0.00000004487233     0.00000009286848     0.00000000916997     0.00000001807640     0.00000003336992
   65     0.00000001716461     0.00000005478268     0.00000001109775     0.00000005921102     0.00000005998815
   66     0.00067283195573     0.00019401492404     0.00747041448775     0.01393165671879     0.04142870719900
   67     0.00077431725863     0.00021399153126     0.00768989403992     0.01377943000506     0.04198563978947
   68     0.00019335074022     0.00006107439168     0.00163436597502     0.00681037019199     0.04513763033642

                16                  17                  18                  19                  20

    1     0.00000395499082     0.00001432116633     0.00004444035868     0.00023107682294     0.00008436830578
    2     0.00001031207069     0.00002435348212     0.00007566303259     0.00030730521048     0.00008829373528
    3     0.00006438666918     0.00007648805326     0.00036645357808     0.00241022746978     0.00039267130466
    4     0.00035226443637     0.00034216886154     0.00239101370432     0.01220863594533     0.00375971363454
    5     0.00001756252091     0.00005145858991     0.00025045413257     0.00066566449307     0.00067087370254
    6     0.00000638649133     0.00000877193413     0.00006092492980     0.00024911786009     0.00008719430717
    7     0.00020478710857     0.00028724807512     0.00063878211704     0.00643913898410     0.00014697156899
    8     0.00021394709374     0.00135397337483     0.00029755133022     0.00339608743123     0.00003509091660
    9     0.00018705005110     0.00046169636837     0.00017093061086     0.00169710421255     0.00002379267150
   10     0.00053147976059     0.00130971734454     0.00047169616746     0.00460987390318     0.00006927398482
   11     0.00257429561802     0.00435562478980     0.00271589727957     0.03052722271571     0.00039328504674
   12     0.00135667756929     0.00262254586482     0.00540509982778     0.05909462508337     0.00111170341420
   13     0.01507463244627     0.01270459313059     0.01372583807119     0.11390041648301     0.00140090589521
   14     0.12892246441476     0.12400881180917     0.12567819234785     1.42770264527655     0.01593984425746
   15     1.46699372033952     0.12848081145644     0.12149539123805     0.12210387143988     0.01206459603421
   16     0.00000000000000     1.49035201139981     0.13683946858859     0.13245005881524     0.01458879715433
   17     1.49035201139981     0.00000000000000     1.42345157298131     0.12548467663146     0.10812549966742
   18     0.13683946858859     1.42345157298131     0.00000000000000     1.38823116286144     1.15159771195038
   19     0.13245005881524     0.12548467663146     1.38823116286144     0.00000000000000     0.13100619391148
   20     0.01458879715433     0.10812549966742     1.15159771195038     0.13100619391148     0.00000000000000
   21     0.00303451272725     0.03301909336060     0.08866180690196     0.02355365234255     1.34126339481428
   22     0.00041444251235     0.00353946307208     0.01521455834766     0.00231491470341     0.10629649210507
   23     0.00018733582699     0.00138103949554     0.00437254931223     0.00144693778181     0.04626720807672
   24     0.00003088204078     0.00020517323622     0.00047461882401     0.00015506554115     0.00396573530915
   25     0.00003195324496     0.00030073521345     0.00044885187203     0.00026261333346     0.00371145954971
   26     0.00002900773253     0.00016890761357     0.00056950145604     0.00012828929091     0.00277238339342
   27     0.00012918833152     0.00103508466452     0.00247706437066     0.00078926876576     0.01880808116345
   28     0.00000429010869     0.00002903739181     0.00004952551130     0.00002287251225     0.00030547852897
   29     0.00000165801111     0.00001102216144     0.00001885529300     0.00000914660790     0.00011199067889
   30     0.00000057323597     0.00000362108536     0.00000593273095     0.00000294650822     0.00003502513746
   31     0.00000012790467     0.00000079360131     0.00000209890141     0.00000079942910     0.00000621242465
   32     0.00000004196572     0.00000029367190     0.00000064559537     0.00000027761697     0.00000206505179
   33     0.00000009990317     0.00000024370277     0.00000026899007     0.00000015207920     0.00000060192221
   34     0.00000025254611     0.00000124882244     0.00000228810129     0.00000117816644     0.00000820498568
   35     0.00000060677359     0.00000331599676     0.00000699870188     0.00000276086663     0.00003092624116
   36     0.00372070586334     0.05153102882400     0.03261712556610     0.00552495673314     0.19639700100230
   37     0.12235023176361     0.01589345174098     0.00766591870228     0.01537412382704     0.00082056082372
   38     0.00000055952671     0.00000099127806     0.00000767158068     0.00002482360318     0.00000670721916
   39     0.00000191514503     0.00000231580938     0.00000500670814     0.00002902512589     0.00000640427619
   40     0.00018682150517     0.00014937105353     0.00147559393417     0.00604328729868     0.00142336912322
   41     0.00000066865895     0.00000132591737     0.00000314979441     0.00001267322071     0.00000568466489
   42     0.00000621463192     0.00000561662759     0.00002475770978     0.00012600231684     0.00000807641342
   43     0.00001135092223     0.00000549966365     0.00001325713955     0.00007338419211     0.00000123067108
   44     0.00066430479511     0.00029804394720     0.00076110960705     0.00655197448477     0.00018421506966
   45     0.83159381283078     0.05595652442702     0.00975489584065     0.00228951711570     0.00072461484405
   46     0.05506467256038     0.81121423620487     0.05432148981935     0.00891191946549     0.01064262729328
   47     0.00222716481942     0.00808454297741     0.05136766235787     0.79016413098983     0.01933143332341
   48     0.00072721680495     0.00602573286960     0.03911629834184     0.01512916801156     0.79768769313337
   49     0.00002823361616     0.00023699503490     0.00114851362336     0.00042724062250     0.01250664049469
   50     0.00000161551124     0.00000976951713     0.00002071072248     0.00000619451375     0.00010435765603
   51     0.00000189000190     0.00001681013212     0.00005674357332     0.00001689196871     0.00023982471562
   52     0.00001991585408     0.00010531705602     0.00012916806368     0.00004514545494     0.00055988015141
   53     0.00000110857944     0.00001224838276     0.00001452896873     0.00001026785539     0.00011158841296
   54     0.00000075066002     0.00000308508621     0.00001197613983     0.00000307845871     0.00006355313366
   55     0.00000010200378     0.00000055110907     0.00000032401983     0.00000025255330     0.00000300940882
   56     0.00000002734996     0.00000028783208     0.00000033099112     0.00000023560066     0.00000286966578
   57     0.00000000530816     0.00000005028692     0.00000008786376     0.00000007424283     0.00000044003312
   58     0.00000004852111     0.00000012701804     0.00000062043512     0.00000015305908     0.00000092548427
   59     0.00000003931080     0.00000006145524     0.00000002311909     0.00000003804199     0.00000015904732
   60     0.00000001292885     0.00000001154154     0.00000004386732     0.00000003322609     0.00000006940460
   61     0.00000001400236     0.00000003278390     0.00000001928108     0.00000002939058     0.00000012601622
   62     0.00000002429778     0.00000010357090     0.00000007606596     0.00000007565820     0.00000051945846
   63     0.00000002140671     0.00000031377518     0.00000044263773     0.00000024965222     0.00000123608964
   64     0.00000001669147     0.00000013363926     0.00000017349619     0.00000012984143     0.00000062302789
   65     0.00000008832911     0.00000047232932     0.00000109618542     0.00000027801328     0.00000432957296
   66     0.01268751192509     0.00085347106067     0.00280046632198     0.00080119239188     0.00036798464091
   67     0.01280573756785     0.00082404152240     0.00273226855296     0.00086306433798     0.00033877551114
   68     0.01947415547824     0.00141980198294     0.00033584602082     0.00072955512378     0.00006819997009

                21                  22                  23                  24                  25

    1     0.00001997318135     0.00006574886052     0.00060452777012     0.00025065165190     0.00002100651236
    2     0.00001996230736     0.00004782576888     0.00040993902191     0.00025928274719     0.00001645243252
    3     0.00006615435074     0.00006248642959     0.00054448268294     0.00032610750851     0.00002303496955
    4     0.00050704774752     0.00069447511514     0.00785113290849     0.00140710160097     0.00014018136462
    5     0.00026178371402     0.00182474217269     0.02601873900651     0.01081537974077     0.00056786821900
    6     0.00003857050752     0.00020071500841     0.00266196602074     0.00285685208307     0.00025120593034
    7     0.00002781450535     0.00001233856857     0.00008853066963     0.00003710000335     0.00000457408651
    8     0.00001117347178     0.00000503207211     0.00002585618401     0.00002367722635     0.00000286413642
    9     0.00000772430681     0.00000255010913     0.00000804813990     0.00000395775633     0.00000055863684
   10     0.00001983314880     0.00000470669233     0.00000520862782     0.00000380059741     0.00000069692463
   11     0.00008181791667     0.00001754263532     0.00001818626409     0.00000389600703     0.00000126704298
   12     0.00014804781786     0.00002554421203     0.00010427402209     0.00001598722533     0.00000306030032
   13     0.00033741580225     0.00006695138661     0.00001847862599     0.00000449543984     0.00000239963546
   14     0.00292366401933     0.00041198147342     0.00013870613876     0.00001782826108     0.00002744376273
   15     0.00580178120529     0.00034610369314     0.00037977321100     0.00004021292741     0.00017900432547
   16     0.00303451272725     0.00041444251235     0.00018733582699     0.00003088204078     0.00003195324496
   17     0.03301909336060     0.00353946307208     0.00138103949554     0.00020517323622     0.00030073521345
   18     0.08866180690196     0.01521455834766     0.00437254931223     0.00047461882401     0.00044885187203
   19     0.02355365234255     0.00231491470341     0.00144693778181     0.00015506554115     0.00026261333346
   20     1.34126339481428     0.10629649210507     0.04626720807672     0.00396573530915     0.00371145954971
   21     0.00000000000000     0.98433371976301     0.10684945455986     0.01544050609042     0.01197051195660
   22     0.98433371976301     0.00000000000000     1.41951600659582     0.13207139506498     0.12545914323202
   23     0.10684945455986     1.41951600659582     0.00000000000000     1.51564427859803     0.13085720045368
   24     0.01544050609042     0.13207139506498     1.51564427859803     0.00000000000000     1.42578393764771
   25     0.01197051195660     0.12545914323202     0.13085720045368     1.42578393764771     0.00000000000000
   26     0.01585994502952     0.12961530908653     0.13609561488392     0.12946220391630     1.43608619687275
   27     0.11487102537831     1.41230151086855     0.12739494341042     0.13956504195757     0.13117949219651
   28     0.00083519782824     0.00865533456098     0.01556810532431     0.10668109261238     1.05918035496343
   29     0.00029201738836     0.00267263436785     0.00426594672265     0.04179531361208     0.09669005268700
   30     0.00008830251375     0.00081272201318     0.00068928021879     0.00780625964962     0.02228809304825
   31     0.00001867032753     0.00009660864150     0.00019012028876     0.00134986662820     0.00403199881190
   32     0.00000551915978     0.00003035901767     0.00006774345239     0.00066967071594     0.00105099951747
   33     0.00000251415686     0.00001614137331     0.00002729832808     0.00017059330987     0.00031510352453
   34     0.00002619972161     0.00017702286372     0.00020216812273     0.00198970482361     0.00370997846977
   35     0.00009195163744     0.00056257434936     0.00122600299985     0.01739879670928     0.01801614047032
   36     2.17535868452479     0.13779718219809     0.02587227395810     0.00347099801196     0.00667623960920
   37     0.00034039623524     0.00004731477462     0.00003118290533     0.00000400153595     0.00000959000635
   38     0.00000262830829     0.00000508993303     0.00003068919006     0.00001015907984     0.00000121655287
   39     0.00000135519472     0.00000259790318     0.00002160101321     0.00001361128748     0.00000173279621
   40     0.00020102813092     0.00010152265687     0.00081821681511     0.00006591025054     0.00001690382883
   41     0.00000145842584     0.00000860637871     0.00008585384642     0.00019885245054     0.00001126806916
   42     0.00000196191691     0.00000083397365     0.00000728365953     0.00000218125821     0.00000016066877
   43     0.00000089646956     0.00000031318447     0.00000186478072     0.00000088436911     0.00000003393656
   44     0.00004582430760     0.00001156226817     0.00000342752399     0.00000075441219     0.00000062020397
   45     0.00017244658573     0.00004310887887     0.00003774303307     0.00000522121778     0.00000195540352
   46     0.00707467354590     0.00040846454520     0.00010718007763     0.00003486290920     0.00001861193641
   47     0.00164422181055     0.00017525932080     0.00020726475660     0.00001209003044     0.00000795344217
   48     0.04558770722215     0.01114405529703     0.01017318728077     0.00099540032594     0.00035505832656
   49     0.01297696609653     0.05339515282982     0.81284693307290     0.05382095072872     0.00852849203032
   50     0.00092313364148     0.00905566110324     0.05552626375881     0.81716333267717     0.05272669956762
   51     0.00092970866930     0.00932972714141     0.00232217699208     0.00984306312561     0.05458970903890
   52     0.01589239397492     0.05261517871087     0.00907336154467     0.00210582309836     0.00882376653180
   53     0.00032303152447     0.00304104604361     0.00077219846874     0.01376434729960     0.03796208390049
   54     0.00013514890470     0.00083531695641     0.00084397806998     0.00674663424573     0.04214718923454
   55     0.00000444061873     0.00004594254417     0.00006142158449     0.00087141461052     0.00601621983159
   56     0.00000650966466     0.00007685177453     0.00002866497119     0.00040608054888     0.00056135371768
   57     0.00000144049621     0.00001214217079     0.00001251281750     0.00006688270862     0.00018477733652
   58     0.00000373885180     0.00002110977892     0.00005295944549     0.00022959425839     0.00059185857744
   59     0.00000041209748     0.00000338427491     0.00000441826447     0.00003163729637     0.00002468644800
   60     0.00000041410953     0.00000182263887     0.00000259048506     0.00003103509299     0.00001909295956
   61     0.00000026033456     0.00000168544173     0.00000258522458     0.00001763664314     0.00002249089445
[...]
   15     0.00000019326934     0.00000003201937     0.00000003829496     0.00000001129230     0.00000000272938
   16     0.00000002734996     0.00000000530816     0.00000004852111     0.00000003931080     0.00000001292885
   17     0.00000028783208     0.00000005028692     0.00000012701804     0.00000006145524     0.00000001154154
   18     0.00000033099112     0.00000008786376     0.00000062043512     0.00000002311909     0.00000004386732
   19     0.00000023560066     0.00000007424283     0.00000015305908     0.00000003804199     0.00000003322609
   20     0.00000286966578     0.00000044003312     0.00000092548427     0.00000015904732     0.00000006940460
   21     0.00000650966466     0.00000144049621     0.00000373885180     0.00000041209748     0.00000041410953
   22     0.00007685177453     0.00001214217079     0.00002110977892     0.00000338427491     0.00000182263887
   23     0.00002866497119     0.00001251281750     0.00005295944549     0.00000441826447     0.00000259048506
   24     0.00040608054888     0.00006688270862     0.00022959425839     0.00003163729637     0.00003103509299
   25     0.00056135371768     0.00018477733652     0.00059185857744     0.00002468644800     0.00001909295956
   26     0.00017002880167     0.00004103228530     0.00006339526048     0.00001788382910     0.00000755707005
   27     0.00002197757793     0.00000999315972     0.00001304723574     0.00000232857225     0.00000134893244
   28     0.01135007343238     0.00081765210759     0.01222851850962     0.00022482939497     0.00008150461534
   29     0.05674513055816     0.00861269015258     0.01280940234556     0.00110607834143     0.00012000591652
   30     0.79734837899738     0.04390575457930     0.04270461603177     0.00803245037463     0.00227940568738
   31     0.04015661821541     0.84996962254341     0.79010190470805     0.01313061262367     0.01431802034254
   32     0.01080336460797     0.04356189467883     0.05690570384269     0.04893804894925     0.04790267722772
   33     0.01112008800742     0.01634367954913     0.01211940944645     0.89170904465721     0.90314689020428
   34     0.00654647302157     0.01084920321522     0.01984017019422     0.01308899550355     0.01052897320961
   35     0.01774123922549     0.00126802730053     0.00710699239918     0.00810678130942     0.00096149908655
   36     0.00000514568293     0.00000095681682     0.00000092696723     0.00000027466125     0.00000013849969
   37     0.00000001142991     0.00000000192781     0.00000002237207     0.00000000229586     0.00000000104925
   38     0.00000002571314     0.00000000115164     0.00000000964756     0.00000003347875     0.00000000805929
   39     0.00000002538325     0.00000001212587     0.00000002064414     0.00000000855988     0.00000000948337
   40     0.00000002039910     0.00000000727902     0.00000002257210     0.00000000122657     0.00000000409247
   41     0.00000011282585     0.00000024768339     0.00000011543960     0.00000015023334     0.00000006200077
   42     0.00000000059306     0.00000000015666     0.00000000036495     0.00000000079590     0.00000000014788
   43     0.00000000037399     0.00000000017160     0.00000000015222     0.00000000003454     0.00000000009610
   44     0.00000000086214     0.00000000007612     0.00000000162545     0.00000000013616     0.00000000001705
   45     0.00000000081179     0.00000000122205     0.00000000121031     0.00000000029129     0.00000000024522
   46     0.00000000926948     0.00000000142624     0.00000000056129     0.00000000142018     0.00000000233275
   47     0.00000000233099     0.00000000416951     0.00000000296032     0.00000000073005     0.00000000195787
   48     0.00000010332868     0.00000002160964     0.00000011914898     0.00000000806102     0.00000001177238
   49     0.00000154795372     0.00000017560782     0.00000158930569     0.00000003094771     0.00000007491924
   50     0.00002281985785     0.00000976858189     0.00005834235808     0.00001188638121     0.00000362316491
   51     0.00001645350743     0.00000208952578     0.00000284684997     0.00000076789611     0.00000020262014
   52     0.00000152466756     0.00000056872346     0.00000080707472     0.00000002469389     0.00000010337674
   53     0.00054705379031     0.00007596660337     0.00053464616641     0.00003210703927     0.00000569397012
   54     0.00024539945515     0.00023280837378     0.00074255450379     0.00002702796904     0.00001993649420
   55     0.00723860269276     0.00162063118736     0.00450711804108     0.00010940213378     0.00004000500749
   56     0.00000000000000     0.00325736782080     0.01915571934974     0.00133657563869     0.00021019159960
   57     0.00325736782080     0.00000000000000     0.00653921496345     0.00090537073349     0.00169448955428
   58     0.01915571934974     0.00653921496345     0.00000000000000     0.00010538091041     0.00080982032599
   59     0.00133657563869     0.00090537073349     0.00010538091041     0.00000000000000     0.00743766177265
   60     0.00021019159960     0.00169448955428     0.00080982032599     0.00743766177265     0.00000000000000
   61     0.00007433854704     0.00053674170959     0.00017261541256     0.00744607243979     0.00939889547024
   62     0.00003691512594     0.00038372554497     0.00042721307887     0.00090466236267     0.00053162813120
   63     0.00011466508152     0.00042792247465     0.00107675504137     0.00011118576212     0.00016920050756
   64     0.00091872672509     0.00003472624603     0.00011442098003     0.00139956954701     0.00007759373312
   65     0.00072532583232     0.00051448372841     0.00006887392787     0.00010508614368     0.00022721258791
   66     0.00000000876973     0.00000000070034     0.00000000279390     0.00000000014660     0.00000000010917
   67     0.00000000744391     0.00000000097869     0.00000000117618     0.00000000059265     0.00000000031600
   68     0.00000000041086     0.00000000012456     0.00000000097889     0.00000000002603     0.00000000016290

                61                  62                  63                  64                  65

    1     0.00000014179164     0.00000015626562     0.00001108593474     0.00001459365775     0.00000322596901
    2     0.00000006149068     0.00000006885440     0.00000064376334     0.00000147286019     0.00000054174567
    3     0.00000006228261     0.00000007921120     0.00000062506545     0.00000159438409     0.00000050544540
    4     0.00000005154366     0.00000008259980     0.00000086439170     0.00000195689367     0.00000093650203
    5     0.00000026010179     0.00000026907692     0.00000286335463     0.00000628988240     0.00000491505125
    6     0.00000293225777     0.00000333159876     0.00019147717797     0.00036656807979     0.00002110940912
    7     0.00000001523444     0.00000002962342     0.00000074168320     0.00000110859946     0.00000018632750
    8     0.00000000169513     0.00000001123718     0.00000017069337     0.00000023424168     0.00000006042807
    9     0.00000000042776     0.00000000340649     0.00000002700860     0.00000006733047     0.00000000828535
   10     0.00000000043522     0.00000000219660     0.00000000754366     0.00000004263205     0.00000001377595
   11     0.00000000104090     0.00000000177344     0.00000003075599     0.00000004487233     0.00000001716461
   12     0.00000000470842     0.00000000362572     0.00000006526874     0.00000009286848     0.00000005478268
   13     0.00000000081404     0.00000000220022     0.00000000851589     0.00000000916997     0.00000001109775
   14     0.00000000449774     0.00000001894182     0.00000004683869     0.00000001807640     0.00000005921102
   15     0.00000001016197     0.00000004871316     0.00000010541087     0.00000003336992     0.00000005998815
   16     0.00000001400236     0.00000002429778     0.00000002140671     0.00000001669147     0.00000008832911
   17     0.00000003278390     0.00000010357090     0.00000031377518     0.00000013363926     0.00000047232932
   18     0.00000001928108     0.00000007606596     0.00000044263773     0.00000017349619     0.00000109618542
   19     0.00000002939058     0.00000007565820     0.00000024965222     0.00000012984143     0.00000027801328
   20     0.00000012601622     0.00000051945846     0.00000123608964     0.00000062302789     0.00000432957296
   21     0.00000026033456     0.00000184770581     0.00000396275193     0.00000182642592     0.00001749084395
   22     0.00000168544173     0.00001681218611     0.00004512090829     0.00001467079331     0.00005160579492
   23     0.00000258522458     0.00001058933617     0.00003843127994     0.00001797644440     0.00017593766094
   24     0.00001763664314     0.00006367281896     0.00027464242741     0.00046820076521     0.00504964629732
   25     0.00002249089445     0.00017944883764     0.00048210033137     0.00048031565191     0.00416956057007
   26     0.00000929557431     0.00005129943918     0.00007805348743     0.00013867448155     0.00029636722423
   27     0.00000162537157     0.00001516592358     0.00004113676211     0.00003699688552     0.00008127849915
   28     0.00008163099498     0.00079481295376     0.01200240653854     0.01162567018919     0.02110919987586
   29     0.00011759786931     0.00874823218448     0.01271823689603     0.05782460879206     0.04622206798352
   30     0.00094062628181     0.00126790234245     0.00714185481036     0.01798692821568     0.01275073094804
   31     0.01050405227831     0.01082046664725     0.01981970745658     0.00673506954614     0.00107242712567
   32     0.04794170188707     0.04361285935749     0.05693110079197     0.01095546802058     0.01177210969366
   33     0.90331530457837     0.01628581803239     0.01210060603167     0.01164791461815     0.00095456860637
   34     0.01433769979292     0.85008948357825     0.78805373310558     0.04086432628591     0.04687790579968
   35     0.00224878469174     0.04408936582064     0.04324431306230     0.79248570862684     0.81506024239577
   36     0.00000013864012     0.00000138759055     0.00000254748989     0.00000100787068     0.00000367337293
   37     0.00000000064395     0.00000000498184     0.00000002173978     0.00000000762030     0.00000001219478
   38     0.00000001118685     0.00000000885151     0.00000019460785     0.00000010503401     0.00000012317409
   39     0.00000000503620     0.00000000838857     0.00000019458095     0.00000063975602     0.00000015563336
   40     0.00000000538606     0.00000000613484     0.00000010704256     0.00000018765687     0.00000002095545
   41     0.00000011690995     0.00000018613184     0.00000545318789     0.00000907971450     0.00000485276682
   42     0.00000000029687     0.00000000135423     0.00000000146894     0.00000001519895     0.00000001076613
   43     0.00000000006994     0.00000000011043     0.00000000273700     0.00000000264537     0.00000000176985
   44     0.00000000018577     0.00000000009404     0.00000000045832     0.00000000140144     0.00000000047694
   45     0.00000000048486     0.00000000199797     0.00000000594439     0.00000000575497     0.00000000938569
   46     0.00000000079446     0.00000000193461     0.00000000430250     0.00000000921535     0.00000007562096
   47     0.00000000169776     0.00000000363941     0.00000000509179     0.00000001709285     0.00000000555249
   48     0.00000003227517     0.00000003323692     0.00000009281735     0.00000011326871     0.00000085856881
   49     0.00000004342768     0.00000016877270     0.00000063359451     0.00000105408864     0.00000197612659
   50     0.00000229633832     0.00002718347333     0.00002217648805     0.00012408692813     0.00043805269422
   51     0.00000020769387     0.00000204424194     0.00000991583879     0.00002873170552     0.00004602279432
   52     0.00000006783348     0.00000030642883     0.00000145446517     0.00000295162005     0.00000343652848
   53     0.00001831453387     0.00018332485911     0.00060687695133     0.00036335918324     0.00228790432848
   54     0.00000467601695     0.00003845789188     0.00060901295451     0.00077743022928     0.00013381294730
   55     0.00022151885824     0.00050814676595     0.00005980405333     0.00070823414007     0.00098104989382
   56     0.00007433854704     0.00003691512594     0.00011466508152     0.00091872672509     0.00072532583232
   57     0.00053674170959     0.00038372554497     0.00042792247465     0.00003472624603     0.00051448372841
   58     0.00017261541256     0.00042721307887     0.00107675504137     0.00011442098003     0.00006887392787
   59     0.00744607243979     0.00090466236267     0.00011118576212     0.00139956954701     0.00010508614368
   60     0.00939889547024     0.00053162813120     0.00016920050756     0.00007759373312     0.00022721258791
   61     0.00000000000000     0.00168120318162     0.00080696231540     0.00022088198735     0.00003899637651
   62     0.00168120318162     0.00000000000000     0.00652976939676     0.00321174080468     0.00159740354855
   63     0.00080696231540     0.00652976939676     0.00000000000000     0.02031767254819     0.00438369085170
   64     0.00022088198735     0.00321174080468     0.02031767254819     0.00000000000000     0.00783387436890
   65     0.00003899637651     0.00159740354855     0.00438369085170     0.00783387436890     0.00000000000000
   66     0.00000000024774     0.00000000114445     0.00000000547853     0.00000000040719     0.00000000139213
   67     0.00000000033513     0.00000000236395     0.00000000668328     0.00000000086860     0.00000000302667
   68     0.00000000004632     0.00000000003983     0.00000000031329     0.00000000083339     0.00000000145185

                66                  67                  68

    1     0.00000079499452     0.00000069357045     0.00000034099592
    2     0.00000153894416     0.00000145530084     0.00000072120125
    3     0.00001099530535     0.00000604667160     0.00000401578588
    4     0.00000881516595     0.00000941792104     0.00000901394297
    5     0.00000068393835     0.00000049640851     0.00000044309070
    6     0.00000031855776     0.00000038127371     0.00000021661307
    7     0.00003531360807     0.00002600201979     0.00001459763345
    8     0.00005783751157     0.00009451715337     0.00000558403793
    9     0.00001870204144     0.00001643639422     0.00000351991558
   10     0.00010400172396     0.00015231605521     0.00003258117042
   11     0.00067283195573     0.00077431725863     0.00019335074022
   12     0.00019401492404     0.00021399153126     0.00006107439168
   13     0.00747041448775     0.00768989403992     0.00163436597502
   14     0.01393165671879     0.01377943000506     0.00681037019199
   15     0.04142870719900     0.04198563978947     0.04513763033642
   16     0.01268751192509     0.01280573756785     0.01947415547824
   17     0.00085347106067     0.00082404152240     0.00141980198294
   18     0.00280046632198     0.00273226855296     0.00033584602082
   19     0.00080119239188     0.00086306433798     0.00072955512378
   20     0.00036798464091     0.00033877551114     0.00006819997009
   21     0.00020845712815     0.00019811767895     0.00002701918299
   22     0.00000986994185     0.00001445826454     0.00000734225364
   23     0.00001491161288     0.00001424123803     0.00000306425300
   24     0.00000140973384     0.00000179678001     0.00000038294860
   25     0.00000751208967     0.00000724321382     0.00000031258629
   26     0.00000140449311     0.00000149932159     0.00000038182164
   27     0.00001278076223     0.00001416347138     0.00000169762806
   28     0.00000046695387     0.00000044295260     0.00000006974475
   29     0.00000019843281     0.00000021793205     0.00000001831443
   30     0.00000004589317     0.00000008289536     0.00000001049846
   31     0.00000000707393     0.00000001058640     0.00000000580072
   32     0.00000000383276     0.00000000198790     0.00000000130567
   33     0.00000000137744     0.00000000154059     0.00000000063824
   34     0.00000001451283     0.00000002437275     0.00000000312433
   35     0.00000002823349     0.00000005612621     0.00000000848078
   36     0.00012049107292     0.00012266636376     0.00001352319288
   37     0.89907490420377     0.89803362346116     0.90357252908291
   38     0.00000007973541     0.00000008058787     0.00000001728810
   39     0.00000014460227     0.00000002992706     0.00000006213101
   40     0.00000118278459     0.00000681853820     0.00000293709029
   41     0.00000005270341     0.00000000791395     0.00000005339792
   42     0.00000025311549     0.00000090155434     0.00000008878162
   43     0.00000069168996     0.00000071271595     0.00000021438484
   44     0.00145916165709     0.00104549809846     0.00042588825824
   45     0.00011239533371     0.00009220214306     0.00218233754127
   46     0.00013465112914     0.00013787919605     0.00003020159226
   47     0.00006999496019     0.00007180300563     0.00025867907783
   48     0.00000649162334     0.00000977478629     0.00001747249502
   49     0.00000333542922     0.00000152535161     0.00000015293895
   50     0.00000003704934     0.00000003836706     0.00000003896797
   51     0.00000019650272     0.00000003643351     0.00000004573910
   52     0.00000060643827     0.00000014403267     0.00000019810044
   53     0.00000029877122     0.00000036479229     0.00000000959477
   54     0.00000004918824     0.00000002564163     0.00000001105301
   55     0.00000000337714     0.00000001087530     0.00000000050505
   56     0.00000000876973     0.00000000744391     0.00000000041086
   57     0.00000000070034     0.00000000097869     0.00000000012456
   58     0.00000000279390     0.00000000117618     0.00000000097889
   59     0.00000000014660     0.00000000059265     0.00000000002603
   60     0.00000000010917     0.00000000031600     0.00000000016290
   61     0.00000000024774     0.00000000033513     0.00000000004632
   62     0.00000000114445     0.00000000236395     0.00000000003983
   63     0.00000000547853     0.00000000668328     0.00000000031329
   64     0.00000000040719     0.00000000086860     0.00000000083339
   65     0.00000000139213     0.00000000302667     0.00000000145185
   66     0.00000000000000     0.00692417065048     0.00910274665328
   67     0.00692417065048     0.00000000000000     0.00918663838480
   68     0.00910274665328     0.00918663838480     0.00000000000000



  Atomic Valences: 

 #  #
 Irrep: 1
      1:  4.4068766
      2:  4.4403190
      3:  4.6230931
      4:  4.5965904
      5:  3.9211930
      6:  4.5607575
      7:  4.7586685
      8:  4.3770549
      9:  4.5347912
     10:  3.8650079
     11:  5.0228618
     12:  3.9632839
     13:  3.9644877
     14:  4.6865379
     15:  4.6507982
     16:  4.4561862
     17:  4.4158678
     18:  4.6906012
     19:  4.4445651
     20:  4.0067868
     21:  5.0125804
     22:  4.6262299
     23:  4.4703501
     24:  4.4724996
     25:  4.6972427
     26:  4.4467259
     27:  4.4400732
     28:  4.5667615
     29:  4.3123877
     30:  4.6000485
     31:  4.6089677
     32:  4.2550890
     33:  4.2911149
     34:  4.6124386
     35:  4.6142255
     36:  2.7506862
     37:  4.1581818
     38:  0.9889720
     39:  0.9887392
     40:  0.9902575
     41:  0.9893529
     42:  0.9879556
     43:  0.9888544
     44:  0.9342041
     45:  0.9904639
     46:  0.9825877
     47:  0.9926009
     48:  0.9457087
     49:  0.9925527
     50:  0.9860378
     51:  0.9897712
     52:  0.9829902
     53:  0.9896574
     54:  0.9947576
     55:  0.9831250
     56:  0.9869992
     57:  0.9919015
     58:  0.9891373
     59:  1.0043638
     60:  1.0000346
     61:  1.0001709
     62:  0.9921182
     63:  0.9884428
     64:  0.9878258
     65:  0.9850961
     66:  0.9987163
     67:  0.9982023
     68:  1.0007696


    Psi4 stopped on: Sunday, 26 April 2020 12:28PM
    Psi4 wall time for execution: 0:15:20.15

*** Psi4 exiting successfully. Buy a developer a beer!
