 Entering Gaussian System, Link 0=g09
 Input=MOLECULE0-opt-15-14-13-11-247.com
 Output=MOLECULE0-opt-15-14-13-11-247.log
 Initial command:
 /opt/g09gh/gaussian/g09/l1.exe /scratch/bdw2292/Gau-MOLECULE0/Gau-20223.inp -scrdir=/scratch/bdw2292/Gau-MOLECULE0/
 Entering Link 1 = /opt/g09gh/gaussian/g09/l1.exe PID=     20224.
  
 Copyright (c) 1988,1990,1992,1993,1995,1998,2003,2009, Gaussian, Inc.
                  All Rights Reserved.
  
 This is part of the Gaussian(R) 09 program.  It is based on
 the Gaussian(R) 03 system (copyright 2003, Gaussian, Inc.),
 the Gaussian(R) 98 system (copyright 1998, Gaussian, Inc.),
 the Gaussian(R) 94 system (copyright 1995, Gaussian, Inc.),
 the Gaussian 92(TM) system (copyright 1992, Gaussian, Inc.),
 the Gaussian 90(TM) system (copyright 1990, Gaussian, Inc.),
 the Gaussian 88(TM) system (copyright 1988, Gaussian, Inc.),
 the Gaussian 86(TM) system (copyright 1986, Carnegie Mellon
 University), and the Gaussian 82(TM) system (copyright 1983,
 Carnegie Mellon University). Gaussian is a federally registered
 trademark of Gaussian, Inc.
  
 This software contains proprietary and confidential information,
 including trade secrets, belonging to Gaussian, Inc.
  
 This software is provided under written license and may be
 used, copied, transmitted, or stored only in accord with that
 written license.
  
 The following legend is applicable only to US Government
 contracts under FAR:
  
                    RESTRICTED RIGHTS LEGEND
  
 Use, reproduction and disclosure by the US Government is
 subject to restrictions as set forth in subparagraphs (a)
 and (c) of the Commercial Computer Software - Restricted
 Rights clause in FAR 52.227-19.
  
 Gaussian, Inc.
 340 Quinnipiac St., Bldg. 40, Wallingford CT 06492
  
  
 ---------------------------------------------------------------
 Warning -- This program may not be used in any manner that
 competes with the business of Gaussian, Inc. or will provide
 assistance to any competitor of Gaussian, Inc.  The licensee
 of this program is prohibited from giving any competitor of
 Gaussian, Inc. access to this program.  By using this program,
 the user acknowledges that Gaussian, Inc. is engaged in the
 business of creating and licensing software in the field of
 computational chemistry and represents and warrants to the
 licensee that it is not a competitor of Gaussian, Inc. and that
 it will not use this program in any manner prohibited above.
 ---------------------------------------------------------------
  

 Cite this work as:
 Gaussian 09, Revision A.02,
 M. J. Frisch, G. W. Trucks, H. B. Schlegel, G. E. Scuseria, 
 M. A. Robb, J. R. Cheeseman, G. Scalmani, V. Barone, B. Mennucci, 
 G. A. Petersson, H. Nakatsuji, M. Caricato, X. Li, H. P. Hratchian, 
 A. F. Izmaylov, J. Bloino, G. Zheng, J. L. Sonnenberg, M. Hada, 
 M. Ehara, K. Toyota, R. Fukuda, J. Hasegawa, M. Ishida, T. Nakajima, 
 Y. Honda, O. Kitao, H. Nakai, T. Vreven, J. A. Montgomery, Jr., 
 J. E. Peralta, F. Ogliaro, M. Bearpark, J. J. Heyd, E. Brothers, 
 K. N. Kudin, V. N. Staroverov, R. Kobayashi, J. Normand, 
 K. Raghavachari, A. Rendell, J. C. Burant, S. S. Iyengar, J. Tomasi, 
 M. Cossi, N. Rega, J. M. Millam, M. Klene, J. E. Knox, J. B. Cross, 
 V. Bakken, C. Adamo, J. Jaramillo, R. Gomperts, R. E. Stratmann, 
 O. Yazyev, A. J. Austin, R. Cammi, C. Pomelli, J. W. Ochterski, 
 R. L. Martin, K. Morokuma, V. G. Zakrzewski, G. A. Voth, 
 P. Salvador, J. J. Dannenberg, S. Dapprich, A. D. Daniels, 
 O. Farkas, J. B. Foresman, J. V. Ortiz, J. Cioslowski, 
 and D. J. Fox, Gaussian, Inc., Wallingford CT, 2009.
 
 ******************************************
 Gaussian 09:  EM64L-G09RevA.02 11-Jun-2009
                 3-Mar-2020 
 ******************************************
 %RWF=/scratch/bdw2292/Gau-MOLECULE0/,100GB
 %Nosave
 %Chk=MOLECULE0-opt-15-14-13-11-247.chk
 %Mem=20GB
 %Nproc=6
 Will use up to    6 processors via shared memory.
 --------------------------------------------------
 #P opt=(,maxcycle=400) wB97XD/6-31G* MaxDisk=100GB
 --------------------------------------------------
 1/6=400,14=-1,18=20,19=15,26=3,38=1/1,3;
 2/9=110,12=2,17=6,18=5,40=1/2;
 3/5=1,6=6,7=1,11=2,16=1,25=1,30=1,71=1,74=-58/1,2,3;
 4//1;
 5/5=2,38=5/2;
 6/7=2,8=2,9=2,10=2,28=1/1;
 7//1,2,3,16;
 1/6=400,14=-1,18=20,19=15/3(2);
 2/9=110/2;
 99//99;
 2/9=110/2;
 3/5=1,6=6,7=1,11=2,16=1,25=1,30=1,71=1,74=-58/1,2,3;
 4/5=5,16=3/1;
 5/5=2,38=5/2;
 7//1,2,3,16;
 1/6=400,14=-1,18=20,19=15/3(-5);
 2/9=110/2;
 6/7=2,8=2,9=2,10=2,19=2,28=1/1;
 99/9=1/99;
 Leave Link    1 at Tue Mar  3 10:17:58 2020, MaxMem= 2684354560 cpu:       0.3
 (Enter /opt/g09gh/gaussian/g09/l101.exe)
 --------------------------------------------------------------
 MOLECULE0 Rotatable Bond Optimization on node37.bme.utexas.edu
 --------------------------------------------------------------
 Symbolic Z-matrix:
 Charge =  0 Multiplicity = 1
 C                     2.82285   1.27978   7.16374 
 C                     3.64134   1.72876   6.11903 
 C                     3.76583   0.96328   4.94195 
 C                     3.02825  -0.24683   4.90836 
 N                     2.2427   -0.68947   5.89923 
 C                     2.14702   0.06574   7.00279 
 C                     4.61698   1.37752   3.76817 
 C                     5.3857    2.55193   3.69332 
 C                     6.09303   2.74453   2.50092 
 N                     6.07109   1.9048    1.46979 
 C                     5.30384   0.80854   1.63445 
 N                     4.59383   0.5249    2.72609 
 N                     5.27287  -0.06896   0.57833 
 C                     4.52147  -1.25804   0.38651 
 C                     5.204    -2.50671   0.34124 
 C                     4.41729  -3.65214   0.14736 
 C                     3.02444  -3.62162   0.01135 
 C                     2.37133  -2.38425   0.07543 
 C                     3.13053  -1.21287   0.24447 
 N                     0.95777  -2.18705  -0.0415 
 C                    -0.04846  -3.06266  -0.37874 
 C                    -1.4198   -2.48678  -0.67039 
 C                    -1.61622  -1.2497   -1.30516 
 C                    -2.90748  -0.76471  -1.52378 
 C                    -4.04339  -1.49925  -1.13411 
 C                    -3.83145  -2.74323  -0.50949 
 C                    -2.54403  -3.23838  -0.29085 
 C                    -5.45406  -0.9413   -1.32944 
 N                    -6.00374  -0.01204  -0.3266 
 C                    -5.5143    1.384    -0.29746 
 C                    -4.3594    1.63657   0.70558 
 N                    -4.65435   1.19952   2.08999 
 C                    -5.44336   2.11908   2.91849 
 C                    -5.1018   -0.21473   2.06378 
 C                    -6.23867  -0.50758   1.0494 
 O                     0.12015  -4.27064  -0.42254 
 C                     6.70956  -2.62693   0.49885 
 H                     2.70916   1.85483   8.07789 
 H                     4.16347   2.67394   6.24719 
 H                     3.08033  -0.8868    4.03152 
 H                     1.50078  -0.32195   7.7885 
 H                     5.45125   3.28552   4.48733 
 H                     6.71283   3.63069   2.36682 
 H                     5.81315   0.25799  -0.20972 
 H                     4.9001   -4.62747   0.10453 
 H                     2.45533  -4.53239  -0.13076 
 H                     2.66016  -0.24048   0.29889 
 H                     0.66142  -1.22892   0.08055 
 H                    -0.75425  -0.67112  -1.62775 
 H                    -3.02732   0.20451  -2.00801 
 H                    -4.68178  -3.3388   -0.17816 
 H                    -2.38907  -4.2006    0.1907 
 H                    -5.49346  -0.43038  -2.30252 
 H                    -6.15597  -1.78544  -1.39631 
 H                    -5.28999   1.72558  -1.27385 
 H                    -6.71133   2.27046   0.21693 
 H                    -4.10674   3.11784   0.71936 
 H                    -3.38824   1.11505   0.36694 
 H                    -6.46005   2.23026   2.5251 
 H                    -4.96571   3.10493   2.94912 
 H                    -5.50257   1.74368   3.94652 
 H                    -5.37684  -0.5369    3.09193 
 H                    -3.90853  -1.03774   1.63897 
 H                    -7.50108   0.26384   1.6061 
 H                    -6.50734  -1.60242   1.03327 
 H                     7.07734  -2.0482    1.35764 
 H                     7.23499  -2.25766  -0.39314 
 H                     7.03917  -3.66304   0.65736 
 
 NAtoms=     68 NQM=     68 NQMF=      0 NMic=      0 NMicF=      0 NTot=     68.
                    Isotopes and Nuclear Properties:
 (Nuclear quadrupole moments (NQMom) in fm**2, nuclear magnetic moments (NMagM)
  in nuclear magnetons)

  Atom         1           2           3           4           5           6           7           8           9          10
 IAtWgt=          12          12          12          12          14          12          12          12          12          14
 AtmWgt=  12.0000000  12.0000000  12.0000000  12.0000000  14.0030740  12.0000000  12.0000000  12.0000000  12.0000000  14.0030740
 NucSpn=           0           0           0           0           2           0           0           0           0           2
 AtZEff=   0.0000000   0.0000000   0.0000000   0.0000000   0.0000000   0.0000000   0.0000000   0.0000000   0.0000000   0.0000000
 NQMom=    0.0000000   0.0000000   0.0000000   0.0000000   2.0440000   0.0000000   0.0000000   0.0000000   0.0000000   2.0440000
 NMagM=    0.0000000   0.0000000   0.0000000   0.0000000   0.4037610   0.0000000   0.0000000   0.0000000   0.0000000   0.4037610

  Atom        11          12          13          14          15          16          17          18          19          20
 IAtWgt=          12          14          14          12          12          12          12          12          12          14
 AtmWgt=  12.0000000  14.0030740  14.0030740  12.0000000  12.0000000  12.0000000  12.0000000  12.0000000  12.0000000  14.0030740
 NucSpn=           0           2           2           0           0           0           0           0           0           2
 AtZEff=   0.0000000   0.0000000   0.0000000   0.0000000   0.0000000   0.0000000   0.0000000   0.0000000   0.0000000   0.0000000
 NQMom=    0.0000000   2.0440000   2.0440000   0.0000000   0.0000000   0.0000000   0.0000000   0.0000000   0.0000000   2.0440000
 NMagM=    0.0000000   0.4037610   0.4037610   0.0000000   0.0000000   0.0000000   0.0000000   0.0000000   0.0000000   0.4037610

  Atom        21          22          23          24          25          26          27          28          29          30
 IAtWgt=          12          12          12          12          12          12          12          12          14          12
 AtmWgt=  12.0000000  12.0000000  12.0000000  12.0000000  12.0000000  12.0000000  12.0000000  12.0000000  14.0030740  12.0000000
 NucSpn=           0           0           0           0           0           0           0           0           2           0
 AtZEff=   0.0000000   0.0000000   0.0000000   0.0000000   0.0000000   0.0000000   0.0000000   0.0000000   0.0000000   0.0000000
 NQMom=    0.0000000   0.0000000   0.0000000   0.0000000   0.0000000   0.0000000   0.0000000   0.0000000   2.0440000   0.0000000
 NMagM=    0.0000000   0.0000000   0.0000000   0.0000000   0.0000000   0.0000000   0.0000000   0.0000000   0.4037610   0.0000000

  Atom        31          32          33          34          35          36          37          38          39          40
 IAtWgt=          12          14          12          12          12          16          12           1           1           1
 AtmWgt=  12.0000000  14.0030740  12.0000000  12.0000000  12.0000000  15.9949146  12.0000000   1.0078250   1.0078250   1.0078250
 NucSpn=           0           2           0           0           0           0           0           1           1           1
 AtZEff=   0.0000000   0.0000000   0.0000000   0.0000000   0.0000000   0.0000000   0.0000000   0.0000000   0.0000000   0.0000000
 NQMom=    0.0000000   2.0440000   0.0000000   0.0000000   0.0000000   0.0000000   0.0000000   0.0000000   0.0000000   0.0000000
 NMagM=    0.0000000   0.4037610   0.0000000   0.0000000   0.0000000   0.0000000   0.0000000   2.7928460   2.7928460   2.7928460

  Atom        41          42          43          44          45          46          47          48          49          50
 IAtWgt=           1           1           1           1           1           1           1           1           1           1
 AtmWgt=   1.0078250   1.0078250   1.0078250   1.0078250   1.0078250   1.0078250   1.0078250   1.0078250   1.0078250   1.0078250
 NucSpn=           1           1           1           1           1           1           1           1           1           1
 AtZEff=   0.0000000   0.0000000   0.0000000   0.0000000   0.0000000   0.0000000   0.0000000   0.0000000   0.0000000   0.0000000
 NQMom=    0.0000000   0.0000000   0.0000000   0.0000000   0.0000000   0.0000000   0.0000000   0.0000000   0.0000000   0.0000000
 NMagM=    2.7928460   2.7928460   2.7928460   2.7928460   2.7928460   2.7928460   2.7928460   2.7928460   2.7928460   2.7928460

  Atom        51          52          53          54          55          56          57          58          59          60
 IAtWgt=           1           1           1           1           1           1           1           1           1           1
 AtmWgt=   1.0078250   1.0078250   1.0078250   1.0078250   1.0078250   1.0078250   1.0078250   1.0078250   1.0078250   1.0078250
 NucSpn=           1           1           1           1           1           1           1           1           1           1
 AtZEff=   0.0000000   0.0000000   0.0000000   0.0000000   0.0000000   0.0000000   0.0000000   0.0000000   0.0000000   0.0000000
 NQMom=    0.0000000   0.0000000   0.0000000   0.0000000   0.0000000   0.0000000   0.0000000   0.0000000   0.0000000   0.0000000
 NMagM=    2.7928460   2.7928460   2.7928460   2.7928460   2.7928460   2.7928460   2.7928460   2.7928460   2.7928460   2.7928460

  Atom        61          62          63          64          65          66          67          68
 IAtWgt=           1           1           1           1           1           1           1           1
 AtmWgt=   1.0078250   1.0078250   1.0078250   1.0078250   1.0078250   1.0078250   1.0078250   1.0078250
 NucSpn=           1           1           1           1           1           1           1           1
 AtZEff=   0.0000000   0.0000000   0.0000000   0.0000000   0.0000000   0.0000000   0.0000000   0.0000000
 NQMom=    0.0000000   0.0000000   0.0000000   0.0000000   0.0000000   0.0000000   0.0000000   0.0000000
 NMagM=    2.7928460   2.7928460   2.7928460   2.7928460   2.7928460   2.7928460   2.7928460   2.7928460
 Leave Link  101 at Tue Mar  3 10:17:58 2020, MaxMem= 2684354560 cpu:       0.6
 (Enter /opt/g09gh/gaussian/g09/l103.exe)

 GradGradGradGradGradGradGradGradGradGradGradGradGradGradGradGradGradGrad
 Berny optimization.
 Initialization pass.
                           ----------------------------
                           !    Initial Parameters    !
                           ! (Angstroms and Degrees)  !
 --------------------------                            --------------------------
 ! Name  Definition              Value          Derivative Info.                !
 --------------------------------------------------------------------------------
 ! R1    R(1,2)                  1.401          estimate D2E/DX2                !
 ! R2    R(1,6)                  1.3988         estimate D2E/DX2                !
 ! R3    R(1,38)                 1.0859         estimate D2E/DX2                !
 ! R4    R(2,3)                  1.4096         estimate D2E/DX2                !
 ! R5    R(2,39)                 1.0874         estimate D2E/DX2                !
 ! R6    R(3,4)                  1.4176         estimate D2E/DX2                !
 ! R7    R(3,7)                  1.5079         estimate D2E/DX2                !
 ! R8    R(4,5)                  1.3397         estimate D2E/DX2                !
 ! R9    R(4,40)                 1.0868         estimate D2E/DX2                !
 ! R10   R(5,6)                  1.3406         estimate D2E/DX2                !
 ! R11   R(6,41)                 1.0887         estimate D2E/DX2                !
 ! R12   R(7,8)                  1.4056         estimate D2E/DX2                !
 ! R13   R(7,12)                 1.3466         estimate D2E/DX2                !
 ! R14   R(8,9)                  1.3997         estimate D2E/DX2                !
 ! R15   R(8,42)                 1.083          estimate D2E/DX2                !
 ! R16   R(9,10)                 1.33           estimate D2E/DX2                !
 ! R17   R(9,43)                 1.0897         estimate D2E/DX2                !
 ! R18   R(10,11)                1.3482         estimate D2E/DX2                !
 ! R19   R(11,12)                1.3328         estimate D2E/DX2                !
 ! R20   R(11,13)                1.3734         estimate D2E/DX2                !
 ! R21   R(13,14)                1.4196         estimate D2E/DX2                !
 ! R22   R(13,44)                1.0099         estimate D2E/DX2                !
 ! R23   R(14,15)                1.4238         estimate D2E/DX2                !
 ! R24   R(14,19)                1.3989         estimate D2E/DX2                !
 ! R25   R(15,16)                1.403          estimate D2E/DX2                !
 ! R26   R(15,37)                1.5185         estimate D2E/DX2                !
 ! R27   R(16,17)                1.3998         estimate D2E/DX2                !
 ! R28   R(16,45)                1.0891         estimate D2E/DX2                !
 ! R29   R(17,18)                1.4006         estimate D2E/DX2                !
 ! R30   R(17,46)                1.0833         estimate D2E/DX2                !
 ! R31   R(18,19)                1.4061         estimate D2E/DX2                !
 ! R32   R(18,20)                1.432          estimate D2E/DX2                !
 ! R33   R(19,47)                1.0815         estimate D2E/DX2                !
 ! R34   R(20,21)                1.3758         estimate D2E/DX2                !
 ! R35   R(20,48)                1.0103         estimate D2E/DX2                !
 ! R36   R(21,22)                1.5157         estimate D2E/DX2                !
 ! R37   R(21,36)                1.2205         estimate D2E/DX2                !
 ! R38   R(22,23)                1.4042         estimate D2E/DX2                !
 ! R39   R(22,27)                1.4046         estimate D2E/DX2                !
 ! R40   R(23,24)                1.3965         estimate D2E/DX2                !
 ! R41   R(23,49)                1.0871         estimate D2E/DX2                !
 ! R42   R(24,25)                1.4077         estimate D2E/DX2                !
 ! R43   R(24,50)                1.0901         estimate D2E/DX2                !
 ! R44   R(25,26)                1.408          estimate D2E/DX2                !
 ! R45   R(25,28)                1.5295         estimate D2E/DX2                !
 ! R46   R(26,27)                1.3966         estimate D2E/DX2                !
 ! R47   R(26,51)                1.0898         estimate D2E/DX2                !
 ! R48   R(27,52)                1.0871         estimate D2E/DX2                !
 ! R49   R(28,29)                1.4736         estimate D2E/DX2                !
 ! R50   R(28,53)                1.0998         estimate D2E/DX2                !
 ! R51   R(28,54)                1.0999         estimate D2E/DX2                !
 ! R52   R(29,30)                1.4796         estimate D2E/DX2                !
 ! R53   R(29,35)                1.4813         estimate D2E/DX2                !
 ! R54   R(30,31)                1.5504         estimate D2E/DX2                !
 ! R55   R(30,55)                1.0585         estimate D2E/DX2                !
 ! R56   R(30,56)                1.5758         estimate D2E/DX2                !
 ! R57   R(31,32)                1.4814         estimate D2E/DX2                !
 ! R58   R(31,57)                1.5027         estimate D2E/DX2                !
 ! R59   R(31,58)                1.1532         estimate D2E/DX2                !
 ! R60   R(32,33)                1.4678         estimate D2E/DX2                !
 ! R61   R(32,34)                1.4836         estimate D2E/DX2                !
 ! R62   R(33,59)                1.0958         estimate D2E/DX2                !
 ! R63   R(33,60)                1.0959         estimate D2E/DX2                !
 ! R64   R(33,61)                1.096          estimate D2E/DX2                !
 ! R65   R(34,35)                1.5515         estimate D2E/DX2                !
 ! R66   R(34,62)                1.112          estimate D2E/DX2                !
 ! R67   R(34,63)                1.5105         estimate D2E/DX2                !
 ! R68   R(35,64)                1.5807         estimate D2E/DX2                !
 ! R69   R(35,65)                1.1274         estimate D2E/DX2                !
 ! R70   R(37,66)                1.099          estimate D2E/DX2                !
 ! R71   R(37,67)                1.0991         estimate D2E/DX2                !
 ! R72   R(37,68)                1.0988         estimate D2E/DX2                !
 ! A1    A(2,1,6)              118.3334         estimate D2E/DX2                !
 ! A2    A(2,1,38)             121.2767         estimate D2E/DX2                !
 ! A3    A(6,1,38)             120.3898         estimate D2E/DX2                !
 ! A4    A(1,2,3)              120.0158         estimate D2E/DX2                !
 ! A5    A(1,2,39)             118.1106         estimate D2E/DX2                !
 ! A6    A(3,2,39)             121.8731         estimate D2E/DX2                !
 ! A7    A(2,3,4)              115.9383         estimate D2E/DX2                !
 ! A8    A(2,3,7)              123.4141         estimate D2E/DX2                !
 ! A9    A(4,3,7)              120.6471         estimate D2E/DX2                !
 ! A10   A(3,4,5)              124.7228         estimate D2E/DX2                !
 ! A11   A(3,4,40)             119.7927         estimate D2E/DX2                !
 ! A12   A(5,4,40)             115.4845         estimate D2E/DX2                !
 ! A13   A(4,5,6)              117.6806         estimate D2E/DX2                !
 ! A14   A(1,6,5)              123.309          estimate D2E/DX2                !
 ! A15   A(1,6,41)             120.8525         estimate D2E/DX2                !
 ! A16   A(5,6,41)             115.8385         estimate D2E/DX2                !
 ! A17   A(3,7,8)              125.4271         estimate D2E/DX2                !
 ! A18   A(3,7,12)             114.7549         estimate D2E/DX2                !
 ! A19   A(8,7,12)             119.8143         estimate D2E/DX2                !
 ! A20   A(7,8,9)              115.8929         estimate D2E/DX2                !
 ! A21   A(7,8,42)             124.0562         estimate D2E/DX2                !
 ! A22   A(9,8,42)             120.0508         estimate D2E/DX2                !
 ! A23   A(8,9,10)             124.4195         estimate D2E/DX2                !
 ! A24   A(8,9,43)             120.2756         estimate D2E/DX2                !
 ! A25   A(10,9,43)            115.3046         estimate D2E/DX2                !
 ! A26   A(9,10,11)            115.3471         estimate D2E/DX2                !
 ! A27   A(10,11,12)           125.1892         estimate D2E/DX2                !
 ! A28   A(10,11,13)           116.0039         estimate D2E/DX2                !
 ! A29   A(12,11,13)           118.8068         estimate D2E/DX2                !
 ! A30   A(7,12,11)            119.3365         estimate D2E/DX2                !
 ! A31   A(11,13,14)           130.6163         estimate D2E/DX2                !
 ! A32   A(11,13,44)           112.4054         estimate D2E/DX2                !
 ! A33   A(14,13,44)           116.6731         estimate D2E/DX2                !
 ! A34   A(13,14,15)           119.0231         estimate D2E/DX2                !
 ! A35   A(13,14,19)           120.861          estimate D2E/DX2                !
 ! A36   A(15,14,19)           120.1158         estimate D2E/DX2                !
 ! A37   A(14,15,16)           116.8455         estimate D2E/DX2                !
 ! A38   A(14,15,37)           122.7801         estimate D2E/DX2                !
 ! A39   A(16,15,37)           120.3738         estimate D2E/DX2                !
 ! A40   A(15,16,17)           123.6119         estimate D2E/DX2                !
 ! A41   A(15,16,45)           119.2061         estimate D2E/DX2                !
 ! A42   A(17,16,45)           117.1807         estimate D2E/DX2                !
 ! A43   A(16,17,18)           118.607          estimate D2E/DX2                !
 ! A44   A(16,17,46)           121.1409         estimate D2E/DX2                !
 ! A45   A(18,17,46)           120.2493         estimate D2E/DX2                !
 ! A46   A(17,18,19)           119.3209         estimate D2E/DX2                !
 ! A47   A(17,18,20)           125.3246         estimate D2E/DX2                !
 ! A48   A(19,18,20)           115.345          estimate D2E/DX2                !
 ! A49   A(14,19,18)           121.478          estimate D2E/DX2                !
 ! A50   A(14,19,47)           117.1519         estimate D2E/DX2                !
 ! A51   A(18,19,47)           121.347          estimate D2E/DX2                !
 ! A52   A(18,20,21)           130.8664         estimate D2E/DX2                !
 ! A53   A(18,20,48)           114.222          estimate D2E/DX2                !
 ! A54   A(21,20,48)           114.7486         estimate D2E/DX2                !
 ! A55   A(20,21,22)           117.844          estimate D2E/DX2                !
 ! A56   A(20,21,36)           122.5249         estimate D2E/DX2                !
 ! A57   A(22,21,36)           119.6138         estimate D2E/DX2                !
 ! A58   A(21,22,23)           123.2479         estimate D2E/DX2                !
 ! A59   A(21,22,27)           117.961          estimate D2E/DX2                !
 ! A60   A(23,22,27)           118.7899         estimate D2E/DX2                !
 ! A61   A(22,23,24)           120.4            estimate D2E/DX2                !
 ! A62   A(22,23,49)           119.4781         estimate D2E/DX2                !
 ! A63   A(24,23,49)           120.1218         estimate D2E/DX2                !
 ! A64   A(23,24,25)           121.4353         estimate D2E/DX2                !
 ! A65   A(23,24,50)           118.6836         estimate D2E/DX2                !
 ! A66   A(25,24,50)           119.8811         estimate D2E/DX2                !
 ! A67   A(24,25,26)           117.5377         estimate D2E/DX2                !
 ! A68   A(24,25,28)           121.2328         estimate D2E/DX2                !
 ! A69   A(26,25,28)           121.1824         estimate D2E/DX2                !
 ! A70   A(25,26,27)           121.4297         estimate D2E/DX2                !
 ! A71   A(25,26,51)           120.0178         estimate D2E/DX2                !
 ! A72   A(27,26,51)           118.5509         estimate D2E/DX2                !
 ! A73   A(22,27,26)           120.3854         estimate D2E/DX2                !
 ! A74   A(22,27,52)           118.6359         estimate D2E/DX2                !
 ! A75   A(26,27,52)           120.9694         estimate D2E/DX2                !
 ! A76   A(25,28,29)           119.1549         estimate D2E/DX2                !
 ! A77   A(25,28,53)           108.3914         estimate D2E/DX2                !
 ! A78   A(25,28,54)           108.4438         estimate D2E/DX2                !
 ! A79   A(29,28,53)           107.2075         estimate D2E/DX2                !
 ! A80   A(29,28,54)           106.6975         estimate D2E/DX2                !
 ! A81   A(53,28,54)           106.2541         estimate D2E/DX2                !
 ! A82   A(28,29,30)           119.0126         estimate D2E/DX2                !
 ! A83   A(28,29,35)           118.7113         estimate D2E/DX2                !
 ! A84   A(30,29,35)           110.4753         estimate D2E/DX2                !
 ! A85   A(29,30,31)           114.3842         estimate D2E/DX2                !
 ! A86   A(29,30,55)           110.8806         estimate D2E/DX2                !
 ! A87   A(29,30,56)           106.6133         estimate D2E/DX2                !
 ! A88   A(31,30,55)           112.7282         estimate D2E/DX2                !
 ! A89   A(31,30,56)           105.2492         estimate D2E/DX2                !
 ! A90   A(55,30,56)           106.2933         estimate D2E/DX2                !
 ! A91   A(30,31,32)           114.0931         estimate D2E/DX2                !
 ! A92   A(30,31,57)           106.9635         estimate D2E/DX2                !
 ! A93   A(30,31,58)           111.3258         estimate D2E/DX2                !
 ! A94   A(32,31,57)           108.4041         estimate D2E/DX2                !
 ! A95   A(32,31,58)           107.9797         estimate D2E/DX2                !
 ! A96   A(57,31,58)           107.8724         estimate D2E/DX2                !
 ! A97   A(31,32,33)           116.7229         estimate D2E/DX2                !
 ! A98   A(31,32,34)           108.9517         estimate D2E/DX2                !
 ! A99   A(33,32,34)           116.4267         estimate D2E/DX2                !
 ! A100  A(32,33,59)           111.079          estimate D2E/DX2                !
 ! A101  A(32,33,60)           110.185          estimate D2E/DX2                !
 ! A102  A(32,33,61)           110.1139         estimate D2E/DX2                !
 ! A103  A(59,33,60)           108.8539         estimate D2E/DX2                !
 ! A104  A(59,33,61)           108.7446         estimate D2E/DX2                !
 ! A105  A(60,33,61)           107.7851         estimate D2E/DX2                !
 ! A106  A(32,34,35)           114.361          estimate D2E/DX2                !
 ! A107  A(32,34,62)           109.5386         estimate D2E/DX2                !
 ! A108  A(32,34,63)           106.6247         estimate D2E/DX2                !
 ! A109  A(35,34,62)           111.6281         estimate D2E/DX2                !
 ! A110  A(35,34,63)           106.9862         estimate D2E/DX2                !
 ! A111  A(62,34,63)           107.3107         estimate D2E/DX2                !
 ! A112  A(29,35,34)           115.3397         estimate D2E/DX2                !
 ! A113  A(29,35,64)           106.891          estimate D2E/DX2                !
 ! A114  A(29,35,65)           110.4482         estimate D2E/DX2                !
 ! A115  A(34,35,64)           105.2381         estimate D2E/DX2                !
 ! A116  A(34,35,65)           111.5474         estimate D2E/DX2                !
 ! A117  A(64,35,65)           106.7759         estimate D2E/DX2                !
 ! A118  A(15,37,66)           111.7906         estimate D2E/DX2                !
 ! A119  A(15,37,67)           111.2925         estimate D2E/DX2                !
 ! A120  A(15,37,68)           112.7704         estimate D2E/DX2                !
 ! A121  A(66,37,67)           107.2943         estimate D2E/DX2                !
 ! A122  A(66,37,68)           106.4668         estimate D2E/DX2                !
 ! A123  A(67,37,68)           106.8861         estimate D2E/DX2                !
 ! D1    D(6,1,2,3)              0.1166         estimate D2E/DX2                !
 ! D2    D(6,1,2,39)           179.8816         estimate D2E/DX2                !
 ! D3    D(38,1,2,3)          -179.7702         estimate D2E/DX2                !
 ! D4    D(38,1,2,39)           -0.0052         estimate D2E/DX2                !
 ! D5    D(2,1,6,5)             -0.0229         estimate D2E/DX2                !
 ! D6    D(2,1,6,41)           179.9718         estimate D2E/DX2                !
 ! D7    D(38,1,6,5)           179.865          estimate D2E/DX2                !
 ! D8    D(38,1,6,41)           -0.1403         estimate D2E/DX2                !
 ! D9    D(1,2,3,4)             -0.155          estimate D2E/DX2                !
 ! D10   D(1,2,3,7)            179.5808         estimate D2E/DX2                !
 ! D11   D(39,2,3,4)          -179.911          estimate D2E/DX2                !
 ! D12   D(39,2,3,7)            -0.1751         estimate D2E/DX2                !
 ! D13   D(2,3,4,5)              0.1118         estimate D2E/DX2                !
 ! D14   D(2,3,4,40)          -179.8657         estimate D2E/DX2                !
 ! D15   D(7,3,4,5)           -179.6319         estimate D2E/DX2                !
 ! D16   D(7,3,4,40)             0.3906         estimate D2E/DX2                !
 ! D17   D(2,3,7,8)              0.2224         estimate D2E/DX2                !
 ! D18   D(2,3,7,12)          -179.0714         estimate D2E/DX2                !
 ! D19   D(4,3,7,8)            179.9464         estimate D2E/DX2                !
 ! D20   D(4,3,7,12)             0.6526         estimate D2E/DX2                !
 ! D21   D(3,4,5,6)             -0.0227         estimate D2E/DX2                !
 ! D22   D(40,4,5,6)           179.9557         estimate D2E/DX2                !
 ! D23   D(4,5,6,1)             -0.0247         estimate D2E/DX2                !
 ! D24   D(4,5,6,41)           179.9804         estimate D2E/DX2                !
 ! D25   D(3,7,8,9)           -179.4566         estimate D2E/DX2                !
 ! D26   D(3,7,8,42)             0.5174         estimate D2E/DX2                !
 ! D27   D(12,7,8,9)            -0.1958         estimate D2E/DX2                !
 ! D28   D(12,7,8,42)          179.7782         estimate D2E/DX2                !
 ! D29   D(3,7,12,11)          179.3587         estimate D2E/DX2                !
 ! D30   D(8,7,12,11)            0.0219         estimate D2E/DX2                !
 ! D31   D(7,8,9,10)             0.2668         estimate D2E/DX2                !
 ! D32   D(7,8,9,43)          -179.9275         estimate D2E/DX2                !
 ! D33   D(42,8,9,10)         -179.7083         estimate D2E/DX2                !
 ! D34   D(42,8,9,43)            0.0974         estimate D2E/DX2                !
 ! D35   D(8,9,10,11)           -0.1447         estimate D2E/DX2                !
 ! D36   D(43,9,10,11)        -179.9591         estimate D2E/DX2                !
 ! D37   D(9,10,11,12)          -0.0563         estimate D2E/DX2                !
 ! D38   D(9,10,11,13)        -179.912          estimate D2E/DX2                !
 ! D39   D(10,11,12,7)           0.116          estimate D2E/DX2                !
 ! D40   D(13,11,12,7)         179.968          estimate D2E/DX2                !
 ! D41   D(10,11,13,14)       -175.7925         estimate D2E/DX2                !
 ! D42   D(10,11,13,44)         -2.4648         estimate D2E/DX2                !
 ! D43   D(12,11,13,14)          4.342          estimate D2E/DX2                !
 ! D44   D(12,11,13,44)        177.6698         estimate D2E/DX2                !
 ! D45   D(11,13,14,15)       -112.8862         estimate D2E/DX2                !
 ! D46   D(11,13,14,19)         67.0511         estimate D2E/DX2                !
 ! D47   D(44,13,14,15)         74.0181         estimate D2E/DX2                !
 ! D48   D(44,13,14,19)       -106.0446         estimate D2E/DX2                !
 ! D49   D(13,14,15,16)       -179.8905         estimate D2E/DX2                !
 ! D50   D(13,14,15,37)          0.4069         estimate D2E/DX2                !
 ! D51   D(19,14,15,16)          0.1718         estimate D2E/DX2                !
 ! D52   D(19,14,15,37)       -179.5308         estimate D2E/DX2                !
 ! D53   D(13,14,19,18)       -178.9627         estimate D2E/DX2                !
 ! D54   D(13,14,19,47)         -0.6875         estimate D2E/DX2                !
 ! D55   D(15,14,19,18)          0.9738         estimate D2E/DX2                !
 ! D56   D(15,14,19,47)        179.2491         estimate D2E/DX2                !
 ! D57   D(14,15,16,17)         -0.5491         estimate D2E/DX2                !
 ! D58   D(14,15,16,45)        179.8774         estimate D2E/DX2                !
 ! D59   D(37,15,16,17)        179.1611         estimate D2E/DX2                !
 ! D60   D(37,15,16,45)         -0.4124         estimate D2E/DX2                !
 ! D61   D(14,15,37,66)         47.5168         estimate D2E/DX2                !
 ! D62   D(14,15,37,67)        -72.4448         estimate D2E/DX2                !
 ! D63   D(14,15,37,68)        167.4431         estimate D2E/DX2                !
 ! D64   D(16,15,37,66)       -132.1756         estimate D2E/DX2                !
 ! D65   D(16,15,37,67)        107.8628         estimate D2E/DX2                !
 ! D66   D(16,15,37,68)        -12.2493         estimate D2E/DX2                !
 ! D67   D(15,16,17,18)         -0.2176         estimate D2E/DX2                !
 ! D68   D(15,16,17,46)       -179.6073         estimate D2E/DX2                !
 ! D69   D(45,16,17,18)        179.364          estimate D2E/DX2                !
 ! D70   D(45,16,17,46)         -0.0258         estimate D2E/DX2                !
 ! D71   D(16,17,18,19)          1.3544         estimate D2E/DX2                !
 ! D72   D(16,17,18,20)       -179.8191         estimate D2E/DX2                !
 ! D73   D(46,17,18,19)       -179.2502         estimate D2E/DX2                !
 ! D74   D(46,17,18,20)         -0.4237         estimate D2E/DX2                !
 ! D75   D(17,18,19,14)         -1.7546         estimate D2E/DX2                !
 ! D76   D(17,18,19,47)       -179.9576         estimate D2E/DX2                !
 ! D77   D(20,18,19,14)        179.3048         estimate D2E/DX2                !
 ! D78   D(20,18,19,47)          1.1017         estimate D2E/DX2                !
 ! D79   D(17,18,20,21)         -8.1692         estimate D2E/DX2                !
 ! D80   D(17,18,20,48)        176.7899         estimate D2E/DX2                !
 ! D81   D(19,18,20,21)        170.6987         estimate D2E/DX2                !
 ! D82   D(19,18,20,48)         -4.3422         estimate D2E/DX2                !
 ! D83   D(18,20,21,22)       -168.6195         estimate D2E/DX2                !
 ! D84   D(18,20,21,36)         12.9012         estimate D2E/DX2                !
 ! D85   D(48,20,21,22)          6.4005         estimate D2E/DX2                !
 ! D86   D(48,20,21,36)       -172.0788         estimate D2E/DX2                !
 ! D87   D(20,21,22,23)         35.2838         estimate D2E/DX2                !
 ! D88   D(20,21,22,27)       -145.1213         estimate D2E/DX2                !
 ! D89   D(36,21,22,23)       -146.1911         estimate D2E/DX2                !
 ! D90   D(36,21,22,27)         33.4038         estimate D2E/DX2                !
 ! D91   D(21,22,23,24)       -178.8747         estimate D2E/DX2                !
 ! D92   D(21,22,23,49)          1.23           estimate D2E/DX2                !
 ! D93   D(27,22,23,24)          1.5336         estimate D2E/DX2                !
 ! D94   D(27,22,23,49)       -178.3618         estimate D2E/DX2                !
 ! D95   D(21,22,27,26)        178.6348         estimate D2E/DX2                !
 ! D96   D(21,22,27,52)         -0.2656         estimate D2E/DX2                !
 ! D97   D(23,22,27,26)         -1.7518         estimate D2E/DX2                !
 ! D98   D(23,22,27,52)        179.3478         estimate D2E/DX2                !
 ! D99   D(22,23,24,25)         -0.7808         estimate D2E/DX2                !
 ! D100  D(22,23,24,50)        179.2581         estimate D2E/DX2                !
 ! D101  D(49,23,24,25)        179.1139         estimate D2E/DX2                !
 ! D102  D(49,23,24,50)         -0.8473         estimate D2E/DX2                !
 ! D103  D(23,24,25,26)          0.2108         estimate D2E/DX2                !
 ! D104  D(23,24,25,28)        177.7443         estimate D2E/DX2                !
 ! D105  D(50,24,25,26)       -179.8285         estimate D2E/DX2                !
 ! D106  D(50,24,25,28)         -2.295          estimate D2E/DX2                !
 ! D107  D(24,25,26,27)         -0.4325         estimate D2E/DX2                !
 ! D108  D(24,25,26,51)        179.1027         estimate D2E/DX2                !
 ! D109  D(28,25,26,27)       -177.9673         estimate D2E/DX2                !
 ! D110  D(28,25,26,51)          1.5679         estimate D2E/DX2                !
 ! D111  D(24,25,28,29)        -82.9022         estimate D2E/DX2                !
 ! D112  D(24,25,28,53)         39.9493         estimate D2E/DX2                !
 ! D113  D(24,25,28,54)        154.8989         estimate D2E/DX2                !
 ! D114  D(26,25,28,29)         94.5414         estimate D2E/DX2                !
 ! D115  D(26,25,28,53)       -142.6072         estimate D2E/DX2                !
 ! D116  D(26,25,28,54)        -27.6576         estimate D2E/DX2                !
 ! D117  D(25,26,27,22)          1.2252         estimate D2E/DX2                !
 ! D118  D(25,26,27,52)       -179.9004         estimate D2E/DX2                !
 ! D119  D(51,26,27,22)       -178.3167         estimate D2E/DX2                !
 ! D120  D(51,26,27,52)          0.5577         estimate D2E/DX2                !
 ! D121  D(25,28,29,30)         74.842          estimate D2E/DX2                !
 ! D122  D(25,28,29,35)        -64.6087         estimate D2E/DX2                !
 ! D123  D(53,28,29,30)        -48.5916         estimate D2E/DX2                !
 ! D124  D(53,28,29,35)        171.9577         estimate D2E/DX2                !
 ! D125  D(54,28,29,30)       -162.0954         estimate D2E/DX2                !
 ! D126  D(54,28,29,35)         58.4539         estimate D2E/DX2                !
 ! D127  D(28,29,30,31)        -94.6754         estimate D2E/DX2                !
 ! D128  D(28,29,30,55)         34.149          estimate D2E/DX2                !
 ! D129  D(28,29,30,56)        149.4373         estimate D2E/DX2                !
 ! D130  D(35,29,30,31)         47.8345         estimate D2E/DX2                !
 ! D131  D(35,29,30,55)        176.6589         estimate D2E/DX2                !
 ! D132  D(35,29,30,56)        -68.0528         estimate D2E/DX2                !
 ! D133  D(28,29,35,34)         96.1587         estimate D2E/DX2                !
 ! D134  D(28,29,35,64)       -147.2441         estimate D2E/DX2                !
 ! D135  D(28,29,35,65)        -31.4496         estimate D2E/DX2                !
 ! D136  D(30,29,35,34)        -46.4783         estimate D2E/DX2                !
 ! D137  D(30,29,35,64)         70.1189         estimate D2E/DX2                !
 ! D138  D(30,29,35,65)       -174.0867         estimate D2E/DX2                !
 ! D139  D(29,30,31,32)        -53.5188         estimate D2E/DX2                !
 ! D140  D(29,30,31,57)       -173.3853         estimate D2E/DX2                !
 ! D141  D(29,30,31,58)         68.9997         estimate D2E/DX2                !
 ! D142  D(55,30,31,32)        178.5909         estimate D2E/DX2                !
 ! D143  D(55,30,31,57)         58.7244         estimate D2E/DX2                !
 ! D144  D(55,30,31,58)        -58.8906         estimate D2E/DX2                !
 ! D145  D(56,30,31,32)         63.157          estimate D2E/DX2                !
 ! D146  D(56,30,31,57)        -56.7095         estimate D2E/DX2                !
 ! D147  D(56,30,31,58)       -174.3245         estimate D2E/DX2                !
 ! D148  D(30,31,32,33)        -81.7677         estimate D2E/DX2                !
 ! D149  D(30,31,32,34)         52.6357         estimate D2E/DX2                !
 ! D150  D(57,31,32,33)         37.2857         estimate D2E/DX2                !
 ! D151  D(57,31,32,34)        171.689          estimate D2E/DX2                !
 ! D152  D(58,31,32,33)        153.9029         estimate D2E/DX2                !
 ! D153  D(58,31,32,34)        -71.6938         estimate D2E/DX2                !
 ! D154  D(31,32,33,59)         65.741          estimate D2E/DX2                !
 ! D155  D(31,32,33,60)        -54.9691         estimate D2E/DX2                !
 ! D156  D(31,32,33,61)       -173.7333         estimate D2E/DX2                !
 ! D157  D(34,32,33,59)        -65.2728         estimate D2E/DX2                !
 ! D158  D(34,32,33,60)        174.0171         estimate D2E/DX2                !
 ! D159  D(34,32,33,61)         55.2528         estimate D2E/DX2                !
 ! D160  D(31,32,34,35)        -50.9009         estimate D2E/DX2                !
 ! D161  D(31,32,34,62)       -177.059          estimate D2E/DX2                !
 ! D162  D(31,32,34,63)         67.1259         estimate D2E/DX2                !
 ! D163  D(33,32,34,35)         83.6534         estimate D2E/DX2                !
 ! D164  D(33,32,34,62)        -42.5047         estimate D2E/DX2                !
 ! D165  D(33,32,34,63)       -158.3198         estimate D2E/DX2                !
 ! D166  D(32,34,35,29)         50.2142         estimate D2E/DX2                !
 ! D167  D(32,34,35,64)        -67.3146         estimate D2E/DX2                !
 ! D168  D(32,34,35,65)        177.2694         estimate D2E/DX2                !
 ! D169  D(62,34,35,29)        175.2766         estimate D2E/DX2                !
 ! D170  D(62,34,35,64)         57.7478         estimate D2E/DX2                !
 ! D171  D(62,34,35,65)        -57.6682         estimate D2E/DX2                !
 ! D172  D(63,34,35,29)        -67.6066         estimate D2E/DX2                !
 ! D173  D(63,34,35,64)        174.8646         estimate D2E/DX2                !
 ! D174  D(63,34,35,65)         59.4486         estimate D2E/DX2                !
 --------------------------------------------------------------------------------
 Trust Radius=3.00D-01 FncErr=1.00D-07 GrdErr=1.00D-06
 Number of steps in this run= 400 maximum allowed number of steps= 408.
 GradGradGradGradGradGradGradGradGradGradGradGradGradGradGradGradGradGrad

 Leave Link  103 at Tue Mar  3 10:17:58 2020, MaxMem= 2684354560 cpu:       0.1
 (Enter /opt/g09gh/gaussian/g09/l202.exe)
 Stoichiometry    C29H31N7O
 Framework group  C1[X(C29H31N7O)]
 Deg. of freedom   198
 Full point group                 C1      NOp   1
 Largest Abelian subgroup         C1      NOp   1
 Largest concise Abelian subgroup C1      NOp   1
                         Standard orientation:                         
 ---------------------------------------------------------------------
 Center     Atomic      Atomic             Coordinates (Angstroms)
 Number     Number       Type             X           Y           Z
 ---------------------------------------------------------------------
      1          6           0        3.756485    4.841787    1.831325
      2          6           0        4.295498    4.162079    0.731151
      3          6           0        4.072513    2.778614    0.578665
      4          6           0        3.294389    2.160821    1.589794
      5          7           0        2.773432    2.797035    2.647474
      6          6           0        3.004583    4.112916    2.758660
      7          6           0        4.607770    1.973846   -0.578768
      8          6           0        5.385992    2.481603   -1.633445
      9          6           0        5.767067    1.556471   -2.612292
     10          7           0        5.437278    0.268104   -2.598026
     11          6           0        4.687596   -0.124172   -1.548418
     12          7           0        4.273346    0.669519   -0.561153
     13          7           0        4.340789   -1.452785   -1.519225
     14          6           0        3.509175   -2.171305   -0.620634
     15          6           0        4.095656   -3.150464    0.230461
     16          6           0        3.231546   -3.834791    1.098519
     17          6           0        1.854422   -3.594178    1.169779
     18          6           0        1.300661   -2.615020    0.335306
     19          6           0        2.133022   -1.926346   -0.564695
     20          7           0       -0.083473   -2.250321    0.291977
     21          6           0       -1.183624   -2.819828    0.890525
     22          6           0       -2.554334   -2.355373    0.440282
     23          6           0       -2.849549   -1.999567   -0.885664
     24          6           0       -4.128384   -1.556889   -1.230579
     25          6           0       -5.157669   -1.469057   -0.274255
     26          6           0       -4.850461   -1.840330    1.048740
     27          6           0       -3.575809   -2.288512    1.402036
     28          6           0       -6.542108   -0.935488   -0.645881
     29          7           0       -6.766628    0.520596   -0.673476
     30          6           0       -6.220036    1.309773   -1.799422
     31          6           0       -4.833158    1.944907   -1.522147
     32          7           0       -4.778328    2.762651   -0.288091
     33          6           0       -5.279479    4.138849   -0.385403
     34          6           0       -5.284543    1.954435    0.848365
     35          6           0       -6.658901    1.281335    0.592937
     36          8           0       -1.090409   -3.653384    1.777111
     37          6           0        5.582788   -3.457738    0.227542
     38          1           0        3.912340    5.907895    1.966998
     39          1           0        4.877751    4.732590    0.011474
     40          1           0        3.085720    1.095630    1.535440
     41          1           0        2.567228    4.599647    3.628756
     42          1           0        5.691036    3.517312   -1.718038
     43          1           0        6.372413    1.872923   -3.461301
     44          1           0        4.672437   -1.955076   -2.330111
     45          1           0        3.639184   -4.593515    1.765143
     46          1           0        1.224898   -4.142435    1.860212
     47          1           0        1.740256   -1.163781   -1.223467
     48          1           0       -0.291506   -1.486901   -0.336234
     49          1           0       -2.074469   -2.072764   -1.644419
     50          1           0       -4.323435   -1.276299   -2.265692
     51          1           0       -5.612854   -1.774064    1.824578
     52          1           0       -3.347252   -2.574798    2.425547
     53          1           0       -6.808787   -1.324681   -1.639297
     54          1           0       -7.276921   -1.355284    0.056649
     55          1           0       -6.241396    0.750310   -2.697681
     56          1           0       -7.197987    2.526814   -2.013224
     57          1           0       -4.514817    2.831240   -2.693151
     58          1           0       -4.009778    1.140501   -1.453005
     59          1           0       -6.356963    4.152756   -0.584440
     60          1           0       -4.763558    4.673060   -1.191268
     61          1           0       -5.087091    4.677045    0.549801
     62          1           0       -5.297697    2.576212    1.770189
     63          1           0       -4.283850    0.844638    1.069021
     64          1           0       -7.694421    2.472240    0.502839
     65          1           0       -6.974757    0.640762    1.465307
     66          1           0        6.188712   -2.541649    0.264131
     67          1           0        5.875104   -4.006861   -0.678594
     68          1           0        5.892164   -4.070272    1.085680
 ---------------------------------------------------------------------
 Rotational constants (GHZ):      0.1195147      0.0484971      0.0394075
 Leave Link  202 at Tue Mar  3 10:17:58 2020, MaxMem= 2684354560 cpu:       0.1
 (Enter /opt/g09gh/gaussian/g09/l301.exe)
 Standard basis: 6-31G(d) (6D, 7F)
 Ernie: Thresh=  0.10000D-02 Tol=  0.10000D-05 Strict=F.
 There are   617 symmetry adapted basis functions of A   symmetry.
 Integral buffers will be    131072 words long.
 Raffenetti 2 integral format.
 Two-electron integral symmetry is turned on.
   617 basis functions,  1160 primitive gaussians,   617 cartesian basis functions
   131 alpha electrons      131 beta electrons
       nuclear repulsion energy      3638.2619354423 Hartrees.
 IExCor= 4639 DFT=T Ex+Corr=wB97XD ExCW=0 ScaHFX=  1.000000
 ScaDFX=  1.000000  1.000000  1.000000  1.000000 ScalE2=  1.000000  1.000000
 IRadAn=      0 IRanWt=     -1 IRanGd=            0 ICorTp=0
  HFx wShort=  0.000000 wLong=  0.200000 cFull=  0.222036 cShort=  0.000000 cLong=  0.777964
  DFx wShort=  0.000000 wLong=  0.200000 cFull=  0.000000 cShort=  0.000000 cLong=  1.000000
 NAtoms=   68 NActive=   68 NUniq=   68 SFac= 7.50D-01 NAtFMM=   80 NAOKFM=F Big=T
 R6Disp: Dispersion energy =        -0.0549227246 Hartrees.
 Nuclear repulsion after empirical dispersion term =     3638.2070127177 Hartrees.
 Leave Link  301 at Tue Mar  3 10:17:58 2020, MaxMem= 2684354560 cpu:       0.4
 (Enter /opt/g09gh/gaussian/g09/l302.exe)
 NPDir=0 NMtPBC=     1 NCelOv=     1 NCel=       1 NClECP=     1 NCelD=      1
         NCelK=      1 NCelE2=     1 NClLst=     1 CellRange=     0.0.
 One-electron integrals computed using PRISM.
 NBasis=   617 RedAO= T  NBF=   617
 NBsUse=   617 1.00D-06 NBFU=   617
 Precomputing XC quadrature grid using
 IXCGrd= 2 IRadAn=           0 IRanWt=          -1 IRanGd=           0 AccXCQ= 1.00D-10.
 NRdTot=    4384 NPtTot=      560400 NUsed=      591985 NTot=      592017
 NSgBfM=   596   596   596   596   596 NAtAll=    68    68.
 Leave Link  302 at Tue Mar  3 10:18:00 2020, MaxMem= 2684354560 cpu:      12.9
 (Enter /opt/g09gh/gaussian/g09/l303.exe)
 DipDrv:  MaxL=1.
 Leave Link  303 at Tue Mar  3 10:18:01 2020, MaxMem= 2684354560 cpu:       0.7
 (Enter /opt/g09gh/gaussian/g09/l401.exe)
 Harris functional with IExCor= 4639 diagonalized for initial guess.
 ExpMin= 1.61D-01 ExpMax= 5.48D+03 ExpMxC= 8.25D+02 IAcc=1 IRadAn=         1 AccDes= 0.00D+00
 HarFok:  IExCor= 4639 AccDes= 0.00D+00 IRadAn=         1 IDoV= 1
 ScaDFX=  1.000000  1.000000  1.000000  1.000000
 FoFCou: FMM=F IPFlag=           0 FMFlag=      100000 FMFlg1=           1
         NFxFlg=           0 DoJE=T BraDBF=F KetDBF=T FulRan=T
         Omega=  0.000000  0.000000  1.000000  0.000000  0.000000 ICntrl=     500 IOpCl=  0
         NMat0=    1 NMatS0=    1 NMatT0=    0 NMatD0=    1 NMtDS0=    0 NMtDT0=    0
         I1Cent=           4 NGrid=           0.
 Petite list used in FoFCou.
 Harris En= -1512.38418067441    
 Initial guess orbital symmetries:
       Occupied  (A) (A) (A) (A) (A) (A) (A) (A) (A) (A) (A) (A)
                 (A) (A) (A) (A) (A) (A) (A) (A) (A) (A) (A) (A)
                 (A) (A) (A) (A) (A) (A) (A) (A) (A) (A) (A) (A)
                 (A) (A) (A) (A) (A) (A) (A) (A) (A) (A) (A) (A)
                 (A) (A) (A) (A) (A) (A) (A) (A) (A) (A) (A) (A)
                 (A) (A) (A) (A) (A) (A) (A) (A) (A) (A) (A) (A)
                 (A) (A) (A) (A) (A) (A) (A) (A) (A) (A) (A) (A)
                 (A) (A) (A) (A) (A) (A) (A) (A) (A) (A) (A) (A)
                 (A) (A) (A) (A) (A) (A) (A) (A) (A) (A) (A) (A)
                 (A) (A) (A) (A) (A) (A) (A) (A) (A) (A) (A) (A)
                 (A) (A) (A) (A) (A) (A) (A) (A) (A) (A) (A)
       Virtual   (A) (A) (A) (A) (A) (A) (A) (A) (A) (A) (A) (A)
                 (A) (A) (A) (A) (A) (A) (A) (A) (A) (A) (A) (A)
                 (A) (A) (A) (A) (A) (A) (A) (A) (A) (A) (A) (A)
                 (A) (A) (A) (A) (A) (A) (A) (A) (A) (A) (A) (A)
                 (A) (A) (A) (A) (A) (A) (A) (A) (A) (A) (A) (A)
                 (A) (A) (A) (A) (A) (A) (A) (A) (A) (A) (A) (A)
                 (A) (A) (A) (A) (A) (A) (A) (A) (A) (A) (A) (A)
                 (A) (A) (A) (A) (A) (A) (A) (A) (A) (A) (A) (A)
                 (A) (A) (A) (A) (A) (A) (A) (A) (A) (A) (A) (A)
                 (A) (A) (A) (A) (A) (A) (A) (A) (A) (A) (A) (A)
                 (A) (A) (A) (A) (A) (A) (A) (A) (A) (A) (A) (A)
                 (A) (A) (A) (A) (A) (A) (A) (A) (A) (A) (A) (A)
                 (A) (A) (A) (A) (A) (A) (A) (A) (A) (A) (A) (A)
                 (A) (A) (A) (A) (A) (A) (A) (A) (A) (A) (A) (A)
                 (A) (A) (A) (A) (A) (A) (A) (A) (A) (A) (A) (A)
                 (A) (A) (A) (A) (A) (A) (A) (A) (A) (A) (A) (A)
                 (A) (A) (A) (A) (A) (A) (A) (A) (A) (A) (A) (A)
                 (A) (A) (A) (A) (A) (A) (A) (A) (A) (A) (A) (A)
                 (A) (A) (A) (A) (A) (A) (A) (A) (A) (A) (A) (A)
                 (A) (A) (A) (A) (A) (A) (A) (A) (A) (A) (A) (A)
                 (A) (A) (A) (A) (A) (A) (A) (A) (A) (A) (A) (A)
                 (A) (A) (A) (A) (A) (A) (A) (A) (A) (A) (A) (A)
                 (A) (A) (A) (A) (A) (A) (A) (A) (A) (A) (A) (A)
                 (A) (A) (A) (A) (A) (A) (A) (A) (A) (A) (A) (A)
                 (A) (A) (A) (A) (A) (A) (A) (A) (A) (A) (A) (A)
                 (A) (A) (A) (A) (A) (A) (A) (A) (A) (A) (A) (A)
                 (A) (A) (A) (A) (A) (A) (A) (A) (A) (A) (A) (A)
                 (A) (A) (A) (A) (A) (A) (A) (A) (A) (A) (A) (A)
                 (A) (A) (A) (A) (A) (A) (A) (A) (A) (A) (A) (A)
                 (A) (A) (A) (A) (A) (A) (A) (A) (A) (A) (A) (A)
                 (A) (A) (A) (A) (A) (A) (A) (A) (A) (A) (A) (A)
                 (A) (A) (A) (A) (A) (A) (A) (A) (A) (A) (A) (A)
                 (A) (A) (A) (A) (A) (A) (A) (A) (A) (A) (A) (A)
                 (A) (A) (A) (A) (A) (A) (A) (A) (A) (A) (A) (A)
                 (A) (A) (A) (A) (A) (A) (A) (A) (A) (A) (A) (A)
                 (A) (A) (A) (A) (A) (A) (A) (A) (A) (A) (A) (A)
                 (A) (A) (A) (A) (A) (A) (A) (A) (A) (A) (A) (A)
                 (A) (A) (A) (A) (A) (A) (A) (A) (A) (A) (A) (A)
                 (A) (A) (A) (A) (A) (A) (A) (A) (A) (A) (A) (A)
                 (A) (A) (A) (A) (A) (A) (A) (A) (A) (A) (A) (A)
                 (A) (A) (A) (A) (A) (A)
 The electronic state of the initial guess is 1-A.
 Leave Link  401 at Tue Mar  3 10:18:05 2020, MaxMem= 2684354560 cpu:      26.0
 (Enter /opt/g09gh/gaussian/g09/l502.exe)
 Closed shell SCF:
 Requested convergence on RMS density matrix=1.00D-08 within 128 cycles.
 Requested convergence on MAX density matrix=1.00D-06.
 Requested convergence on             energy=1.00D-06.
 No special actions if energy rises.
 Using DIIS extrapolation, IDIIS=  1040.
 Integral symmetry usage will be decided dynamically.
       591360 words used for storage of precomputed grid.
 IEnd=     1759940 IEndB=     1759940 NGot=  2684354560 MDV=  2682992567
 LenX=  2682992567 LenY=  2682611261
 Fock matrices will be formed incrementally for  20 cycles.
 Integral accuracy reduced to 1.0D-05 until final iterations.

 Cycle   1  Pass 0  IDiag  1:
 FoFJK:  IHMeth= 1 ICntrl=     0 DoSepK=T KAlg= 1 I1Cent= 0 FoldK=F
 FoFCou: FMM=T IPFlag=           0 FMFlag=      100000 FMFlg1=           1
         NFxFlg=           0 DoJE=T BraDBF=F KetDBF=F FulRan=T
         Omega=  0.000000  0.000000  1.000000  0.000000  0.000000 ICntrl=     500 IOpCl=  0
         NMat0=    1 NMatS0=    1 NMatT0=    0 NMatD0=    1 NMtDS0=    0 NMtDT0=    0
         I1Cent=           0 NGrid=           0.
 Symmetry not used in FoFCou.
 FMM levels:  10  Number of levels for PrismC:   9
 E= -1581.16627867571    
 DIIS: error= 7.13D-02 at cycle   1 NSaved=   1.
 NSaved= 1 IEnMin= 1 EnMin= -1581.16627867571     IErMin= 1 ErrMin= 7.13D-02
 ErrMax= 7.13D-02 EMaxC= 1.00D-01 BMatC= 1.44D+00 BMatP= 1.44D+00
 IDIUse=3 WtCom= 2.87D-01 WtEn= 7.13D-01
 Coeff-Com:  0.100D+01
 Coeff-En:   0.100D+01
 Coeff:      0.100D+01
 Gap=     0.295 Goal=   None    Shift=    0.000
 GapD=    0.295 DampG=1.000 DampE=0.500 DampFc=0.5000 IDamp=-1.
 Damping current iteration by 5.00D-01
 RMSDP=1.83D-03 MaxDP=8.84D-02              OVMax= 1.21D-01

 Cycle   2  Pass 0  IDiag  1:
 RMSU=  6.47D-04    CP:  1.00D+00
 FoFJK:  IHMeth= 1 ICntrl=     0 DoSepK=T KAlg= 1 I1Cent= 0 FoldK=F
 E= -1581.33711108756     Delta-E=       -0.170832411852 Rises=F Damp=T
 DIIS: error= 3.63D-02 at cycle   2 NSaved=   2.
 NSaved= 2 IEnMin= 2 EnMin= -1581.33711108756     IErMin= 2 ErrMin= 3.63D-02
 ErrMax= 3.63D-02 EMaxC= 1.00D-01 BMatC= 3.22D-01 BMatP= 1.44D+00
 IDIUse=3 WtCom= 6.37D-01 WtEn= 3.63D-01
 Coeff-Com: -0.683D+00 0.168D+01
 Coeff-En:   0.000D+00 0.100D+01
 Coeff:     -0.435D+00 0.143D+01
 Gap=     0.306 Goal=   None    Shift=    0.000
 RMSDP=8.46D-04 MaxDP=3.95D-02 DE=-1.71D-01 OVMax= 9.36D-02

 Cycle   3  Pass 0  IDiag  1:
 RMSU=  5.23D-04    CP:  1.00D+00  1.45D+00
 FoFJK:  IHMeth= 1 ICntrl=     0 DoSepK=T KAlg= 1 I1Cent= 0 FoldK=F
 E= -1581.47383237967     Delta-E=       -0.136721292112 Rises=F Damp=F
 DIIS: error= 7.55D-03 at cycle   3 NSaved=   3.
 NSaved= 3 IEnMin= 3 EnMin= -1581.47383237967     IErMin= 3 ErrMin= 7.55D-03
 ErrMax= 7.55D-03 EMaxC= 1.00D-01 BMatC= 4.68D-02 BMatP= 3.22D-01
 IDIUse=3 WtCom= 9.24D-01 WtEn= 7.55D-02
 Coeff-Com: -0.347D+00 0.717D+00 0.630D+00
 Coeff-En:   0.000D+00 0.000D+00 0.100D+01
 Coeff:     -0.320D+00 0.663D+00 0.658D+00
 Gap=     0.276 Goal=   None    Shift=    0.000
 RMSDP=4.09D-04 MaxDP=2.71D-02 DE=-1.37D-01 OVMax= 4.85D-02

 Cycle   4  Pass 0  IDiag  1:
 RMSU=  1.36D-04    CP:  1.00D+00  1.70D+00  6.22D-01
 FoFJK:  IHMeth= 1 ICntrl=     0 DoSepK=T KAlg= 1 I1Cent= 0 FoldK=F
 E= -1581.51465898469     Delta-E=       -0.040826605018 Rises=F Damp=F
 DIIS: error= 2.70D-03 at cycle   4 NSaved=   4.
 NSaved= 4 IEnMin= 4 EnMin= -1581.51465898469     IErMin= 4 ErrMin= 2.70D-03
 ErrMax= 2.70D-03 EMaxC= 1.00D-01 BMatC= 3.20D-03 BMatP= 4.68D-02
 IDIUse=3 WtCom= 9.73D-01 WtEn= 2.70D-02
 Coeff-Com: -0.153D+00 0.312D+00 0.351D+00 0.490D+00
 Coeff-En:   0.000D+00 0.000D+00 0.000D+00 0.100D+01
 Coeff:     -0.149D+00 0.303D+00 0.341D+00 0.504D+00
 Gap=     0.270 Goal=   None    Shift=    0.000
 RMSDP=9.51D-05 MaxDP=8.27D-03 DE=-4.08D-02 OVMax= 8.12D-03

 Cycle   5  Pass 0  IDiag  1:
 RMSU=  4.43D-05    CP:  1.00D+00  1.69D+00  6.85D-01  7.23D-01
 FoFJK:  IHMeth= 1 ICntrl=     0 DoSepK=T KAlg= 1 I1Cent= 0 FoldK=F
 E= -1581.51734331552     Delta-E=       -0.002684330830 Rises=F Damp=F
 DIIS: error= 4.34D-04 at cycle   5 NSaved=   5.
 NSaved= 5 IEnMin= 5 EnMin= -1581.51734331552     IErMin= 5 ErrMin= 4.34D-04
 ErrMax= 4.34D-04 EMaxC= 1.00D-01 BMatC= 8.99D-05 BMatP= 3.20D-03
 IDIUse=3 WtCom= 9.96D-01 WtEn= 4.34D-03
 Coeff-Com: -0.157D-01 0.311D-01 0.581D-01 0.171D+00 0.755D+00
 Coeff-En:   0.000D+00 0.000D+00 0.000D+00 0.000D+00 0.100D+01
 Coeff:     -0.156D-01 0.310D-01 0.579D-01 0.170D+00 0.756D+00
 Gap=     0.269 Goal=   None    Shift=    0.000
 RMSDP=2.32D-05 MaxDP=2.18D-03 DE=-2.68D-03 OVMax= 2.81D-03

 Cycle   6  Pass 0  IDiag  1:
 RMSU=  1.29D-05    CP:  1.00D+00  1.69D+00  6.92D-01  7.85D-01  9.74D-01
 FoFJK:  IHMeth= 1 ICntrl=     0 DoSepK=T KAlg= 1 I1Cent= 0 FoldK=F
 E= -1581.51742789880     Delta-E=       -0.000084583281 Rises=F Damp=F
 DIIS: error= 3.40D-04 at cycle   6 NSaved=   6.
 NSaved= 6 IEnMin= 6 EnMin= -1581.51742789880     IErMin= 6 ErrMin= 3.40D-04
 ErrMax= 3.40D-04 EMaxC= 1.00D-01 BMatC= 2.30D-05 BMatP= 8.99D-05
 IDIUse=3 WtCom= 9.97D-01 WtEn= 3.40D-03
 Coeff-Com:  0.210D-01-0.434D-01-0.348D-01-0.113D-01 0.373D+00 0.695D+00
 Coeff-En:   0.000D+00 0.000D+00 0.000D+00 0.000D+00 0.000D+00 0.100D+01
 Coeff:      0.209D-01-0.432D-01-0.346D-01-0.113D-01 0.372D+00 0.696D+00
 Gap=     0.269 Goal=   None    Shift=    0.000
 RMSDP=1.24D-05 MaxDP=7.48D-04 DE=-8.46D-05 OVMax= 1.67D-03

 Cycle   7  Pass 0  IDiag  1:
 RMSU=  5.40D-06    CP:  1.00D+00  1.69D+00  6.96D-01  8.13D-01  1.09D+00
                    CP:  9.21D-01
 FoFJK:  IHMeth= 1 ICntrl=     0 DoSepK=T KAlg= 1 I1Cent= 0 FoldK=F
 E= -1581.51745414973     Delta-E=       -0.000026250929 Rises=F Damp=F
 DIIS: error= 5.62D-05 at cycle   7 NSaved=   7.
 NSaved= 7 IEnMin= 7 EnMin= -1581.51745414973     IErMin= 7 ErrMin= 5.62D-05
 ErrMax= 5.62D-05 EMaxC= 1.00D-01 BMatC= 1.60D-06 BMatP= 2.30D-05
 IDIUse=1 WtCom= 1.00D+00 WtEn= 0.00D+00
 Coeff-Com:  0.914D-02-0.187D-01-0.174D-01-0.216D-01 0.585D-01 0.243D+00
 Coeff-Com:  0.747D+00
 Coeff:      0.914D-02-0.187D-01-0.174D-01-0.216D-01 0.585D-01 0.243D+00
 Coeff:      0.747D+00
 Gap=     0.269 Goal=   None    Shift=    0.000
 RMSDP=4.11D-06 MaxDP=1.76D-04 DE=-2.63D-05 OVMax= 5.83D-04

 Initial convergence to 1.0D-05 achieved.  Increase integral accuracy.
 Cycle   8  Pass 1  IDiag  1:
 FoFJK:  IHMeth= 1 ICntrl=     0 DoSepK=T KAlg= 1 I1Cent= 0 FoldK=F
 E= -1581.51647973666     Delta-E=        0.000974413070 Rises=F Damp=F
 DIIS: error= 1.12D-04 at cycle   1 NSaved=   1.
 NSaved= 1 IEnMin= 1 EnMin= -1581.51647973666     IErMin= 1 ErrMin= 1.12D-04
 ErrMax= 1.12D-04 EMaxC= 1.00D-01 BMatC= 1.24D-05 BMatP= 1.24D-05
 IDIUse=3 WtCom= 9.99D-01 WtEn= 1.12D-03
 Coeff-Com:  0.100D+01
 Coeff-En:   0.100D+01
 Coeff:      0.100D+01
 Gap=     0.269 Goal=   None    Shift=    0.000
 RMSDP=4.11D-06 MaxDP=1.76D-04 DE= 9.74D-04 OVMax= 2.99D-04

 Cycle   9  Pass 1  IDiag  1:
 RMSU=  1.57D-05    CP:  1.00D+00
 FoFJK:  IHMeth= 1 ICntrl=     0 DoSepK=T KAlg= 1 I1Cent= 0 FoldK=F
 E= -1581.51648995673     Delta-E=       -0.000010220069 Rises=F Damp=F
 DIIS: error= 2.15D-05 at cycle   2 NSaved=   2.
 NSaved= 2 IEnMin= 2 EnMin= -1581.51648995673     IErMin= 2 ErrMin= 2.15D-05
 ErrMax= 2.15D-05 EMaxC= 1.00D-01 BMatC= 7.07D-07 BMatP= 1.24D-05
 IDIUse=1 WtCom= 1.00D+00 WtEn= 0.00D+00
 Coeff-Com:  0.279D-01 0.972D+00
 Coeff:      0.279D-01 0.972D+00
 Gap=     0.269 Goal=   None    Shift=    0.000
 RMSDP=2.99D-06 MaxDP=1.56D-04 DE=-1.02D-05 OVMax= 2.58D-04

 Cycle  10  Pass 1  IDiag  1:
 RMSU=  1.98D-06    CP:  1.00D+00  1.05D+00
 FoFJK:  IHMeth= 1 ICntrl=     0 DoSepK=T KAlg= 1 I1Cent= 0 FoldK=F
 E= -1581.51649009797     Delta-E=       -0.000000141240 Rises=F Damp=F
 DIIS: error= 3.80D-05 at cycle   3 NSaved=   3.
 NSaved= 3 IEnMin= 3 EnMin= -1581.51649009797     IErMin= 2 ErrMin= 2.15D-05
 ErrMax= 3.80D-05 EMaxC= 1.00D-01 BMatC= 7.57D-07 BMatP= 7.07D-07
 IDIUse=1 WtCom= 1.00D+00 WtEn= 0.00D+00
 Coeff-Com: -0.423D-01 0.525D+00 0.517D+00
 Coeff:     -0.423D-01 0.525D+00 0.517D+00
 Gap=     0.269 Goal=   None    Shift=    0.000
 RMSDP=1.48D-06 MaxDP=9.31D-05 DE=-1.41D-07 OVMax= 1.38D-04

 Cycle  11  Pass 1  IDiag  1:
 RMSU=  6.41D-07    CP:  1.00D+00  1.06D+00  5.93D-01
 FoFJK:  IHMeth= 1 ICntrl=     0 DoSepK=T KAlg= 1 I1Cent= 0 FoldK=F
 E= -1581.51649078725     Delta-E=       -0.000000689279 Rises=F Damp=F
 DIIS: error= 7.92D-06 at cycle   4 NSaved=   4.
 NSaved= 4 IEnMin= 4 EnMin= -1581.51649078725     IErMin= 4 ErrMin= 7.92D-06
 ErrMax= 7.92D-06 EMaxC= 1.00D-01 BMatC= 2.27D-08 BMatP= 7.07D-07
 IDIUse=1 WtCom= 1.00D+00 WtEn= 0.00D+00
 Coeff-Com: -0.173D-01 0.124D+00 0.187D+00 0.706D+00
 Coeff:     -0.173D-01 0.124D+00 0.187D+00 0.706D+00
 Gap=     0.269 Goal=   None    Shift=    0.000
 RMSDP=3.48D-07 MaxDP=2.84D-05 DE=-6.89D-07 OVMax= 4.01D-05

 Cycle  12  Pass 1  IDiag  1:
 RMSU=  2.17D-07    CP:  1.00D+00  1.06D+00  6.51D-01  1.01D+00
 FoFJK:  IHMeth= 1 ICntrl=     0 DoSepK=T KAlg= 1 I1Cent= 0 FoldK=F
 E= -1581.51649080962     Delta-E=       -0.000000022375 Rises=F Damp=F
 DIIS: error= 3.86D-06 at cycle   5 NSaved=   5.
 NSaved= 5 IEnMin= 5 EnMin= -1581.51649080962     IErMin= 5 ErrMin= 3.86D-06
 ErrMax= 3.86D-06 EMaxC= 1.00D-01 BMatC= 4.91D-09 BMatP= 2.27D-08
 IDIUse=1 WtCom= 1.00D+00 WtEn= 0.00D+00
 Coeff-Com:  0.531D-03-0.450D-01-0.137D-01 0.317D+00 0.741D+00
 Coeff:      0.531D-03-0.450D-01-0.137D-01 0.317D+00 0.741D+00
 Gap=     0.269 Goal=   None    Shift=    0.000
 RMSDP=1.88D-07 MaxDP=1.22D-05 DE=-2.24D-08 OVMax= 2.63D-05

 Cycle  13  Pass 1  IDiag  1:
 RMSU=  8.20D-08    CP:  1.00D+00  1.06D+00  6.73D-01  1.16D+00  9.29D-01
 FoFJK:  IHMeth= 1 ICntrl=     0 DoSepK=T KAlg= 1 I1Cent= 0 FoldK=F
 E= -1581.51649081608     Delta-E=       -0.000000006458 Rises=F Damp=F
 DIIS: error= 9.17D-07 at cycle   6 NSaved=   6.
 NSaved= 6 IEnMin= 6 EnMin= -1581.51649081608     IErMin= 6 ErrMin= 9.17D-07
 ErrMax= 9.17D-07 EMaxC= 1.00D-01 BMatC= 5.29D-10 BMatP= 4.91D-09
 IDIUse=1 WtCom= 1.00D+00 WtEn= 0.00D+00
 Coeff-Com:  0.219D-02-0.309D-01-0.267D-01 0.381D-01 0.285D+00 0.733D+00
 Coeff:      0.219D-02-0.309D-01-0.267D-01 0.381D-01 0.285D+00 0.733D+00
 Gap=     0.269 Goal=   None    Shift=    0.000
 RMSDP=7.33D-08 MaxDP=3.35D-06 DE=-6.46D-09 OVMax= 1.07D-05

 Cycle  14  Pass 1  IDiag  1:
 RMSU=  3.27D-08    CP:  1.00D+00  1.06D+00  6.78D-01  1.21D+00  1.05D+00
                    CP:  1.03D+00
 FoFJK:  IHMeth= 1 ICntrl=     0 DoSepK=T KAlg= 1 I1Cent= 0 FoldK=F
 E= -1581.51649081699     Delta-E=       -0.000000000907 Rises=F Damp=F
 DIIS: error= 3.46D-07 at cycle   7 NSaved=   7.
 NSaved= 7 IEnMin= 7 EnMin= -1581.51649081699     IErMin= 7 ErrMin= 3.46D-07
 ErrMax= 3.46D-07 EMaxC= 1.00D-01 BMatC= 9.45D-11 BMatP= 5.29D-10
 IDIUse=1 WtCom= 1.00D+00 WtEn= 0.00D+00
 Coeff-Com:  0.709D-03-0.341D-02-0.823D-02-0.506D-01-0.290D-01 0.281D+00
 Coeff-Com:  0.809D+00
 Coeff:      0.709D-03-0.341D-02-0.823D-02-0.506D-01-0.290D-01 0.281D+00
 Coeff:      0.809D+00
 Gap=     0.269 Goal=   None    Shift=    0.000
 RMSDP=3.90D-08 MaxDP=1.66D-06 DE=-9.07D-10 OVMax= 6.48D-06

 Cycle  15  Pass 1  IDiag  1:
 RMSU=  1.39D-08    CP:  1.00D+00  1.06D+00  6.82D-01  1.22D+00  1.10D+00
                    CP:  1.22D+00  1.05D+00
 FoFJK:  IHMeth= 1 ICntrl=     0 DoSepK=T KAlg= 1 I1Cent= 0 FoldK=F
 E= -1581.51649081719     Delta-E=       -0.000000000204 Rises=F Damp=F
 DIIS: error= 1.25D-07 at cycle   8 NSaved=   8.
 NSaved= 8 IEnMin= 8 EnMin= -1581.51649081719     IErMin= 8 ErrMin= 1.25D-07
 ErrMax= 1.25D-07 EMaxC= 1.00D-01 BMatC= 1.51D-11 BMatP= 9.45D-11
 IDIUse=1 WtCom= 1.00D+00 WtEn= 0.00D+00
 Coeff-Com: -0.661D-04 0.343D-02 0.106D-02-0.249D-01-0.502D-01-0.624D-02
 Coeff-Com:  0.314D+00 0.763D+00
 Coeff:     -0.661D-04 0.343D-02 0.106D-02-0.249D-01-0.502D-01-0.624D-02
 Coeff:      0.314D+00 0.763D+00
 Gap=     0.269 Goal=   None    Shift=    0.000
 RMSDP=1.43D-08 MaxDP=6.50D-07 DE=-2.04D-10 OVMax= 2.73D-06

 Cycle  16  Pass 1  IDiag  1:
 RMSU=  5.28D-09    CP:  1.00D+00  1.06D+00  6.83D-01  1.23D+00  1.11D+00
                    CP:  1.27D+00  1.23D+00  9.95D-01
 FoFJK:  IHMeth= 1 ICntrl=     0 DoSepK=T KAlg= 1 I1Cent= 0 FoldK=F
 E= -1581.51649081722     Delta-E=       -0.000000000027 Rises=F Damp=F
 DIIS: error= 4.73D-08 at cycle   9 NSaved=   9.
 NSaved= 9 IEnMin= 9 EnMin= -1581.51649081722     IErMin= 9 ErrMin= 4.73D-08
 ErrMax= 4.73D-08 EMaxC= 1.00D-01 BMatC= 2.37D-12 BMatP= 1.51D-11
 IDIUse=1 WtCom= 1.00D+00 WtEn= 0.00D+00
 Coeff-Com: -0.151D-03 0.193D-02 0.193D-02-0.751D-03-0.142D-01-0.565D-01
 Coeff-Com: -0.292D-01 0.275D+00 0.822D+00
 Coeff:     -0.151D-03 0.193D-02 0.193D-02-0.751D-03-0.142D-01-0.565D-01
 Coeff:     -0.292D-01 0.275D+00 0.822D+00
 Gap=     0.269 Goal=   None    Shift=    0.000
 RMSDP=6.42D-09 MaxDP=2.92D-07 DE=-2.73D-11 OVMax= 1.14D-06

 SCF Done:  E(RwB97XD) =  -1581.51649082     A.U. after   16 cycles
             Convg  =    0.6418D-08             -V/T =  2.0109
 KE= 1.564508765053D+03 PE=-1.094525157296D+04 EE= 4.161019304374D+03
 Leave Link  502 at Tue Mar  3 10:22:59 2020, MaxMem= 2684354560 cpu:    1761.9
 (Enter /opt/g09gh/gaussian/g09/l601.exe)
 Copying SCF densities to generalized density rwf, IOpCl= 0 IROHF=0.

 **********************************************************************

            Population analysis using the SCF density.

 **********************************************************************

 Orbital symmetries:
       Occupied  (A) (A) (A) (A) (A) (A) (A) (A) (A) (A) (A) (A)
                 (A) (A) (A) (A) (A) (A) (A) (A) (A) (A) (A) (A)
                 (A) (A) (A) (A) (A) (A) (A) (A) (A) (A) (A) (A)
                 (A) (A) (A) (A) (A) (A) (A) (A) (A) (A) (A) (A)
                 (A) (A) (A) (A) (A) (A) (A) (A) (A) (A) (A) (A)
                 (A) (A) (A) (A) (A) (A) (A) (A) (A) (A) (A) (A)
                 (A) (A) (A) (A) (A) (A) (A) (A) (A) (A) (A) (A)
                 (A) (A) (A) (A) (A) (A) (A) (A) (A) (A) (A) (A)
                 (A) (A) (A) (A) (A) (A) (A) (A) (A) (A) (A) (A)
                 (A) (A) (A) (A) (A) (A) (A) (A) (A) (A) (A) (A)
                 (A) (A) (A) (A) (A) (A) (A) (A) (A) (A) (A)
       Virtual   (A) (A) (A) (A) (A) (A) (A) (A) (A) (A) (A) (A)
                 (A) (A) (A) (A) (A) (A) (A) (A) (A) (A) (A) (A)
                 (A) (A) (A) (A) (A) (A) (A) (A) (A) (A) (A) (A)
                 (A) (A) (A) (A) (A) (A) (A) (A) (A) (A) (A) (A)
                 (A) (A) (A) (A) (A) (A) (A) (A) (A) (A) (A) (A)
                 (A) (A) (A) (A) (A) (A) (A) (A) (A) (A) (A) (A)
                 (A) (A) (A) (A) (A) (A) (A) (A) (A) (A) (A) (A)
                 (A) (A) (A) (A) (A) (A) (A) (A) (A) (A) (A) (A)
                 (A) (A) (A) (A) (A) (A) (A) (A) (A) (A) (A) (A)
                 (A) (A) (A) (A) (A) (A) (A) (A) (A) (A) (A) (A)
                 (A) (A) (A) (A) (A) (A) (A) (A) (A) (A) (A) (A)
                 (A) (A) (A) (A) (A) (A) (A) (A) (A) (A) (A) (A)
                 (A) (A) (A) (A) (A) (A) (A) (A) (A) (A) (A) (A)
                 (A) (A) (A) (A) (A) (A) (A) (A) (A) (A) (A) (A)
                 (A) (A) (A) (A) (A) (A) (A) (A) (A) (A) (A) (A)
                 (A) (A) (A) (A) (A) (A) (A) (A) (A) (A) (A) (A)
                 (A) (A) (A) (A) (A) (A) (A) (A) (A) (A) (A) (A)
                 (A) (A) (A) (A) (A) (A) (A) (A) (A) (A) (A) (A)
                 (A) (A) (A) (A) (A) (A) (A) (A) (A) (A) (A) (A)
                 (A) (A) (A) (A) (A) (A) (A) (A) (A) (A) (A) (A)
                 (A) (A) (A) (A) (A) (A) (A) (A) (A) (A) (A) (A)
                 (A) (A) (A) (A) (A) (A) (A) (A) (A) (A) (A) (A)
                 (A) (A) (A) (A) (A) (A) (A) (A) (A) (A) (A) (A)
                 (A) (A) (A) (A) (A) (A) (A) (A) (A) (A) (A) (A)
                 (A) (A) (A) (A) (A) (A) (A) (A) (A) (A) (A) (A)
                 (A) (A) (A) (A) (A) (A) (A) (A) (A) (A) (A) (A)
                 (A) (A) (A) (A) (A) (A) (A) (A) (A) (A) (A) (A)
                 (A) (A) (A) (A) (A) (A) (A) (A) (A) (A) (A) (A)
                 (A) (A) (A) (A) (A) (A) (A) (A) (A) (A) (A) (A)
                 (A) (A) (A) (A) (A) (A) (A) (A) (A) (A) (A) (A)
                 (A) (A) (A) (A) (A) (A) (A) (A) (A) (A) (A) (A)
                 (A) (A) (A) (A) (A) (A) (A) (A) (A) (A) (A) (A)
                 (A) (A) (A) (A) (A) (A) (A) (A) (A) (A) (A) (A)
                 (A) (A) (A) (A) (A) (A) (A) (A) (A) (A) (A) (A)
                 (A) (A) (A) (A) (A) (A) (A) (A) (A) (A) (A) (A)
                 (A) (A) (A) (A) (A) (A) (A) (A) (A) (A) (A) (A)
                 (A) (A) (A) (A) (A) (A) (A) (A) (A) (A) (A) (A)
                 (A) (A) (A) (A) (A) (A) (A) (A) (A) (A) (A) (A)
                 (A) (A) (A) (A) (A) (A) (A) (A) (A) (A) (A) (A)
                 (A) (A) (A) (A) (A) (A) (A) (A) (A) (A) (A) (A)
                 (A) (A) (A) (A) (A) (A)
 The electronic state is 1-A.
 Alpha  occ. eigenvalues --  -19.24139 -14.49666 -14.47972 -14.46960 -14.45077
 Alpha  occ. eigenvalues --  -14.44925 -14.44890 -14.44621 -10.41284 -10.40954
 Alpha  occ. eigenvalues --  -10.37146 -10.36964 -10.36280 -10.36156 -10.36008
 Alpha  occ. eigenvalues --  -10.35658 -10.35506 -10.34840 -10.34671 -10.33910
 Alpha  occ. eigenvalues --  -10.33529 -10.33091 -10.32807 -10.32640 -10.32600
 Alpha  occ. eigenvalues --  -10.32418 -10.31926 -10.31708 -10.31652 -10.31638
 Alpha  occ. eigenvalues --  -10.31478 -10.31150 -10.31147 -10.30983 -10.30390
 Alpha  occ. eigenvalues --  -10.30082 -10.29709  -1.14298  -1.10841  -1.04172
 Alpha  occ. eigenvalues --   -1.04004  -1.03821  -1.02932  -0.99831  -0.99176
 Alpha  occ. eigenvalues --   -0.96843  -0.94687  -0.91291  -0.88793  -0.88193
 Alpha  occ. eigenvalues --   -0.86688  -0.85979  -0.85747  -0.84055  -0.83774
 Alpha  occ. eigenvalues --   -0.82316  -0.79536  -0.78139  -0.76801  -0.75319
 Alpha  occ. eigenvalues --   -0.73205  -0.72368  -0.72219  -0.71275  -0.71264
 Alpha  occ. eigenvalues --   -0.70692  -0.69928  -0.68559  -0.66446  -0.64188
 Alpha  occ. eigenvalues --   -0.63708  -0.62430  -0.61315  -0.60757  -0.59747
 Alpha  occ. eigenvalues --   -0.58807  -0.57529  -0.57152  -0.56547  -0.56297
 Alpha  occ. eigenvalues --   -0.55583  -0.55456  -0.54722  -0.54540  -0.54217
 Alpha  occ. eigenvalues --   -0.53402  -0.53051  -0.52814  -0.52522  -0.51738
 Alpha  occ. eigenvalues --   -0.51613  -0.51244  -0.50879  -0.50491  -0.50277
 Alpha  occ. eigenvalues --   -0.50078  -0.49982  -0.48791  -0.48764  -0.48640
 Alpha  occ. eigenvalues --   -0.47317  -0.47167  -0.46721  -0.46480  -0.45509
 Alpha  occ. eigenvalues --   -0.44913  -0.44743  -0.44526  -0.44275  -0.43965
 Alpha  occ. eigenvalues --   -0.43598  -0.43002  -0.41723  -0.40684  -0.40052
 Alpha  occ. eigenvalues --   -0.39640  -0.38330  -0.37955  -0.36160  -0.36010
 Alpha  occ. eigenvalues --   -0.34555  -0.34233  -0.33812  -0.33558  -0.32746
 Alpha  occ. eigenvalues --   -0.32600  -0.32173  -0.31518  -0.29788  -0.28780
 Alpha  occ. eigenvalues --   -0.26400
 Alpha virt. eigenvalues --    0.00506   0.02193   0.04369   0.05038   0.05764
 Alpha virt. eigenvalues --    0.06919   0.07089   0.07623   0.09677   0.09701
 Alpha virt. eigenvalues --    0.11991   0.12860   0.13557   0.15425   0.16174
 Alpha virt. eigenvalues --    0.16840   0.18024   0.18422   0.18541   0.19451
 Alpha virt. eigenvalues --    0.19994   0.20174   0.20955   0.21425   0.22213
 Alpha virt. eigenvalues --    0.22553   0.22723   0.22798   0.23076   0.23393
 Alpha virt. eigenvalues --    0.23666   0.24328   0.24909   0.25042   0.25452
 Alpha virt. eigenvalues --    0.25518   0.25893   0.26053   0.26334   0.26405
 Alpha virt. eigenvalues --    0.27154   0.27356   0.28146   0.28237   0.28790
 Alpha virt. eigenvalues --    0.29005   0.29274   0.29918   0.30618   0.31263
 Alpha virt. eigenvalues --    0.31383   0.31986   0.32445   0.32820   0.33109
 Alpha virt. eigenvalues --    0.33528   0.34357   0.35229   0.35978   0.37617
 Alpha virt. eigenvalues --    0.37762   0.38045   0.38822   0.39192   0.39362
 Alpha virt. eigenvalues --    0.39682   0.40530   0.41068   0.41113   0.42108
 Alpha virt. eigenvalues --    0.43715   0.44061   0.44750   0.45823   0.46938
 Alpha virt. eigenvalues --    0.48837   0.49945   0.51659   0.52964   0.54153
 Alpha virt. eigenvalues --    0.55317   0.55871   0.56635   0.57805   0.58185
 Alpha virt. eigenvalues --    0.58438   0.58744   0.59261   0.59921   0.60527
 Alpha virt. eigenvalues --    0.60821   0.61008   0.61168   0.61443   0.61646
 Alpha virt. eigenvalues --    0.62255   0.62543   0.62741   0.63576   0.63777
 Alpha virt. eigenvalues --    0.64164   0.64761   0.65153   0.65433   0.65864
 Alpha virt. eigenvalues --    0.66087   0.66222   0.66255   0.66605   0.66956
 Alpha virt. eigenvalues --    0.67236   0.67419   0.67525   0.67835   0.68291
 Alpha virt. eigenvalues --    0.68678   0.68709   0.68992   0.69340   0.69965
 Alpha virt. eigenvalues --    0.70256   0.70934   0.71281   0.71634   0.72105
 Alpha virt. eigenvalues --    0.72294   0.72501   0.72932   0.73179   0.74097
 Alpha virt. eigenvalues --    0.74339   0.74804   0.75308   0.76772   0.77046
 Alpha virt. eigenvalues --    0.77266   0.77811   0.78761   0.78891   0.79134
 Alpha virt. eigenvalues --    0.79777   0.80108   0.80929   0.81580   0.82595
 Alpha virt. eigenvalues --    0.83857   0.84147   0.84643   0.84959   0.85120
 Alpha virt. eigenvalues --    0.86326   0.86790   0.87079   0.87972   0.88144
 Alpha virt. eigenvalues --    0.88711   0.88765   0.89832   0.90220   0.90700
 Alpha virt. eigenvalues --    0.91055   0.91405   0.91788   0.92113   0.92273
 Alpha virt. eigenvalues --    0.92586   0.93056   0.93712   0.93927   0.94330
 Alpha virt. eigenvalues --    0.94558   0.95204   0.95514   0.95679   0.95916
 Alpha virt. eigenvalues --    0.96175   0.96854   0.97413   0.97605   0.97761
 Alpha virt. eigenvalues --    0.98145   0.98772   0.99521   0.99801   0.99983
 Alpha virt. eigenvalues --    1.00250   1.00448   1.00964   1.01038   1.01656
 Alpha virt. eigenvalues --    1.01706   1.03007   1.03668   1.04158   1.04242
[...]
                 (A) (A) (A) (A) (A) (A) (A) (A) (A) (A) (A) (A)
                 (A) (A) (A) (A) (A) (A) (A) (A) (A) (A) (A) (A)
                 (A) (A) (A) (A) (A) (A) (A) (A) (A) (A) (A) (A)
                 (A) (A) (A) (A) (A) (A) (A) (A) (A) (A) (A) (A)
                 (A) (A) (A) (A) (A) (A) (A) (A) (A) (A) (A) (A)
                 (A) (A) (A) (A) (A) (A) (A) (A) (A) (A) (A) (A)
                 (A) (A) (A) (A) (A) (A) (A) (A) (A) (A) (A) (A)
                 (A) (A) (A) (A) (A) (A) (A) (A) (A) (A) (A) (A)
                 (A) (A) (A) (A) (A) (A) (A) (A) (A) (A) (A) (A)
                 (A) (A) (A) (A) (A) (A) (A) (A) (A) (A) (A) (A)
                 (A) (A) (A) (A) (A) (A) (A) (A) (A) (A) (A) (A)
                 (A) (A) (A) (A) (A) (A) (A) (A) (A) (A) (A) (A)
                 (A) (A) (A) (A) (A) (A) (A) (A) (A) (A) (A) (A)
                 (A) (A) (A) (A) (A) (A) (A) (A) (A) (A) (A) (A)
                 (A) (A) (A) (A) (A) (A) (A) (A) (A) (A) (A) (A)
                 (A) (A) (A) (A) (A) (A) (A) (A) (A) (A) (A) (A)
                 (A) (A) (A) (A) (A) (A) (A) (A) (A) (A) (A) (A)
                 (A) (A) (A) (A) (A) (A) (A) (A) (A) (A) (A) (A)
                 (A) (A) (A) (A) (A) (A) (A) (A) (A) (A) (A) (A)
                 (A) (A) (A) (A) (A) (A) (A) (A) (A) (A) (A) (A)
                 (A) (A) (A) (A) (A) (A) (A) (A) (A) (A) (A) (A)
                 (A) (A) (A) (A) (A) (A) (A) (A) (A) (A) (A) (A)
                 (A) (A) (A) (A) (A) (A) (A) (A) (A) (A) (A) (A)
                 (A) (A) (A) (A) (A) (A) (A) (A) (A) (A) (A) (A)
                 (A) (A) (A) (A) (A) (A) (A) (A) (A) (A) (A) (A)
                 (A) (A) (A) (A) (A) (A) (A) (A) (A) (A) (A) (A)
                 (A) (A) (A) (A) (A) (A) (A) (A) (A) (A) (A) (A)
                 (A) (A) (A) (A) (A) (A) (A) (A) (A) (A) (A) (A)
                 (A) (A) (A) (A) (A) (A) (A) (A) (A) (A) (A) (A)
                 (A) (A) (A) (A) (A) (A) (A) (A) (A) (A) (A) (A)
                 (A) (A) (A) (A) (A) (A) (A) (A) (A) (A) (A) (A)
                 (A) (A) (A) (A) (A) (A)
 The electronic state is 1-A.
 Alpha  occ. eigenvalues --  -19.23556 -14.48721 -14.48568 -14.45460 -14.44976
 Alpha  occ. eigenvalues --  -14.44766 -14.44137 -14.43887 -10.41116 -10.40304
 Alpha  occ. eigenvalues --  -10.36857 -10.35717 -10.34349 -10.33983 -10.33482
 Alpha  occ. eigenvalues --  -10.32916 -10.32837 -10.32722 -10.32242 -10.31837
 Alpha  occ. eigenvalues --  -10.31575 -10.31414 -10.31339 -10.31310 -10.31297
 Alpha  occ. eigenvalues --  -10.31274 -10.31169 -10.31106 -10.30973 -10.30727
 Alpha  occ. eigenvalues --  -10.30583 -10.30492 -10.30243 -10.29845 -10.29421
 Alpha  occ. eigenvalues --  -10.28842 -10.28340  -1.13695  -1.11703  -1.04647
 Alpha  occ. eigenvalues --   -1.04394  -1.04049  -1.03464  -1.00138  -1.00023
 Alpha  occ. eigenvalues --   -0.96429  -0.94465  -0.91892  -0.88887  -0.88039
 Alpha  occ. eigenvalues --   -0.86392  -0.86119  -0.85845  -0.85004  -0.83467
 Alpha  occ. eigenvalues --   -0.82347  -0.79696  -0.78120  -0.77203  -0.75695
 Alpha  occ. eigenvalues --   -0.73775  -0.73098  -0.72604  -0.71673  -0.71038
 Alpha  occ. eigenvalues --   -0.70627  -0.69356  -0.68046  -0.66243  -0.64617
 Alpha  occ. eigenvalues --   -0.64071  -0.62983  -0.62089  -0.60746  -0.59869
 Alpha  occ. eigenvalues --   -0.58435  -0.57890  -0.56934  -0.56375  -0.55760
 Alpha  occ. eigenvalues --   -0.55570  -0.55417  -0.54931  -0.54690  -0.54306
 Alpha  occ. eigenvalues --   -0.54048  -0.53542  -0.53294  -0.52910  -0.52323
 Alpha  occ. eigenvalues --   -0.51326  -0.51263  -0.50941  -0.50650  -0.50494
 Alpha  occ. eigenvalues --   -0.50267  -0.49625  -0.49165  -0.48818  -0.48575
 Alpha  occ. eigenvalues --   -0.47282  -0.47189  -0.46797  -0.46459  -0.45868
 Alpha  occ. eigenvalues --   -0.45413  -0.45208  -0.44747  -0.44207  -0.43766
 Alpha  occ. eigenvalues --   -0.43346  -0.42640  -0.42508  -0.41969  -0.41446
 Alpha  occ. eigenvalues --   -0.41368  -0.40931  -0.39491  -0.37746  -0.36534
 Alpha  occ. eigenvalues --   -0.34520  -0.34376  -0.33745  -0.33306  -0.32953
 Alpha  occ. eigenvalues --   -0.32254  -0.32165  -0.31175  -0.28988  -0.27017
 Alpha  occ. eigenvalues --   -0.25578
 Alpha virt. eigenvalues --    0.00605   0.03183   0.04123   0.05507   0.06078
 Alpha virt. eigenvalues --    0.08110   0.08593   0.10657   0.14270   0.15048
 Alpha virt. eigenvalues --    0.16203   0.16663   0.16932   0.18004   0.18857
 Alpha virt. eigenvalues --    0.19193   0.19647   0.20238   0.20553   0.21048
 Alpha virt. eigenvalues --    0.21433   0.21923   0.22410   0.22941   0.23294
 Alpha virt. eigenvalues --    0.23386   0.23794   0.23944   0.24687   0.24964
 Alpha virt. eigenvalues --    0.25321   0.25835   0.26031   0.26208   0.26730
 Alpha virt. eigenvalues --    0.27230   0.27455   0.27859   0.28153   0.28534
 Alpha virt. eigenvalues --    0.28969   0.29034   0.29394   0.29652   0.30328
 Alpha virt. eigenvalues --    0.30957   0.31414   0.31420   0.32043   0.32383
 Alpha virt. eigenvalues --    0.32956   0.33266   0.33370   0.33980   0.34355
 Alpha virt. eigenvalues --    0.35018   0.35334   0.36183   0.37630   0.37731
 Alpha virt. eigenvalues --    0.38467   0.38992   0.39809   0.40264   0.40523
 Alpha virt. eigenvalues --    0.41058   0.41714   0.42264   0.42378   0.42631
 Alpha virt. eigenvalues --    0.44075   0.45196   0.46314   0.47405   0.47826
 Alpha virt. eigenvalues --    0.48863   0.50047   0.51296   0.53098   0.54777
 Alpha virt. eigenvalues --    0.56418   0.57011   0.57590   0.57874   0.58307
 Alpha virt. eigenvalues --    0.59194   0.59593   0.59957   0.60289   0.60764
 Alpha virt. eigenvalues --    0.61194   0.61628   0.61789   0.62469   0.62915
 Alpha virt. eigenvalues --    0.63199   0.63324   0.63847   0.64563   0.64972
 Alpha virt. eigenvalues --    0.65128   0.65420   0.65607   0.65946   0.66336
 Alpha virt. eigenvalues --    0.66656   0.66868   0.66993   0.67131   0.67399
 Alpha virt. eigenvalues --    0.67809   0.68271   0.68992   0.69144   0.69340
 Alpha virt. eigenvalues --    0.69966   0.70336   0.70578   0.70958   0.71205
 Alpha virt. eigenvalues --    0.71781   0.71858   0.72498   0.72606   0.73320
 Alpha virt. eigenvalues --    0.73450   0.73819   0.74292   0.75300   0.75452
 Alpha virt. eigenvalues --    0.76060   0.76628   0.76790   0.77684   0.78340
 Alpha virt. eigenvalues --    0.78765   0.78776   0.80545   0.80704   0.81471
 Alpha virt. eigenvalues --    0.82432   0.82677   0.83321   0.83473   0.84103
 Alpha virt. eigenvalues --    0.85037   0.85477   0.85767   0.86945   0.88504
 Alpha virt. eigenvalues --    0.88699   0.88888   0.89718   0.89993   0.90286
 Alpha virt. eigenvalues --    0.90458   0.90778   0.91236   0.91410   0.92745
 Alpha virt. eigenvalues --    0.93093   0.93119   0.93448   0.93799   0.93995
 Alpha virt. eigenvalues --    0.94246   0.94899   0.95075   0.95218   0.95286
 Alpha virt. eigenvalues --    0.95661   0.96297   0.97130   0.97555   0.98079
 Alpha virt. eigenvalues --    0.98412   0.98696   0.98825   0.99654   1.00072
 Alpha virt. eigenvalues --    1.00549   1.00896   1.01107   1.01679   1.01878
 Alpha virt. eigenvalues --    1.02215   1.03076   1.03861   1.04021   1.04536
 Alpha virt. eigenvalues --    1.05547   1.05704   1.06159   1.06710   1.07496
 Alpha virt. eigenvalues --    1.07720   1.07934   1.08352   1.08750   1.09111
 Alpha virt. eigenvalues --    1.09868   1.10522   1.10798   1.11011   1.11984
 Alpha virt. eigenvalues --    1.12308   1.12662   1.13896   1.14925   1.16049
 Alpha virt. eigenvalues --    1.16276   1.16935   1.17411   1.18187   1.18996
 Alpha virt. eigenvalues --    1.20235   1.21499   1.22386   1.23735   1.23871
 Alpha virt. eigenvalues --    1.25111   1.25633   1.25920   1.26823   1.27819
 Alpha virt. eigenvalues --    1.28856   1.29605   1.30163   1.31168   1.31334
 Alpha virt. eigenvalues --    1.32364   1.33083   1.33305   1.34227   1.34496
 Alpha virt. eigenvalues --    1.36613   1.36991   1.37729   1.38015   1.39602
 Alpha virt. eigenvalues --    1.40260   1.41570   1.42149   1.43932   1.44527
 Alpha virt. eigenvalues --    1.46006   1.47365   1.47544   1.47972   1.48257
 Alpha virt. eigenvalues --    1.49425   1.49934   1.50456   1.50817   1.51502
 Alpha virt. eigenvalues --    1.53472   1.53704   1.54595   1.54667   1.54951
 Alpha virt. eigenvalues --    1.55729   1.55759   1.56171   1.56808   1.57518
 Alpha virt. eigenvalues --    1.57996   1.58423   1.59014   1.59246   1.59349
 Alpha virt. eigenvalues --    1.60131   1.60724   1.61501   1.63047   1.63267
 Alpha virt. eigenvalues --    1.63930   1.64858   1.66055   1.67143   1.67709
 Alpha virt. eigenvalues --    1.68543   1.69545   1.72627   1.74131   1.77167
 Alpha virt. eigenvalues --    1.79389   1.79974   1.81211   1.81620   1.83160
 Alpha virt. eigenvalues --    1.85146   1.85626   1.87039   1.87486   1.88021
 Alpha virt. eigenvalues --    1.88436   1.89337   1.89663   1.90750   1.91145
 Alpha virt. eigenvalues --    1.91619   1.92614   1.92849   1.93495   1.93560
 Alpha virt. eigenvalues --    1.94273   1.94825   1.96135   1.96426   1.98341
 Alpha virt. eigenvalues --    1.98483   1.99535   1.99880   2.00087   2.00714
 Alpha virt. eigenvalues --    2.01729   2.02475   2.03012   2.03698   2.04920
 Alpha virt. eigenvalues --    2.05288   2.06439   2.06907   2.07167   2.07797
 Alpha virt. eigenvalues --    2.08279   2.09082   2.09370   2.09838   2.11276
 Alpha virt. eigenvalues --    2.11740   2.12412   2.13475   2.14326   2.14774
 Alpha virt. eigenvalues --    2.15242   2.16805   2.17093   2.19874   2.20266
 Alpha virt. eigenvalues --    2.20773   2.21371   2.21470   2.22253   2.22452
 Alpha virt. eigenvalues --    2.23453   2.23815   2.24208   2.24723   2.25508
 Alpha virt. eigenvalues --    2.25764   2.26652   2.26894   2.27032   2.27475
 Alpha virt. eigenvalues --    2.28912   2.29625   2.29701   2.32713   2.33831
 Alpha virt. eigenvalues --    2.34999   2.35631   2.35808   2.36277   2.36874
 Alpha virt. eigenvalues --    2.37378   2.38671   2.38805   2.39563   2.40234
 Alpha virt. eigenvalues --    2.40751   2.41680   2.42320   2.43022   2.43380
 Alpha virt. eigenvalues --    2.43825   2.44681   2.45020   2.45550   2.46065
 Alpha virt. eigenvalues --    2.46666   2.47455   2.48329   2.49105   2.49801
 Alpha virt. eigenvalues --    2.50227   2.50755   2.52447   2.53285   2.55002
 Alpha virt. eigenvalues --    2.59507   2.60169   2.60322   2.61902   2.62596
 Alpha virt. eigenvalues --    2.64490   2.65304   2.65993   2.67291   2.67978
 Alpha virt. eigenvalues --    2.69687   2.70807   2.71307   2.72001   2.73036
 Alpha virt. eigenvalues --    2.73751   2.74325   2.74738   2.76602   2.76966
 Alpha virt. eigenvalues --    2.77588   2.77956   2.79555   2.80176   2.82328
 Alpha virt. eigenvalues --    2.82861   2.83377   2.83725   2.85193   2.85612
 Alpha virt. eigenvalues --    2.86621   2.86892   2.87604   2.88483   2.88581
 Alpha virt. eigenvalues --    2.89574   2.91580   2.92106   2.93955   2.94561
 Alpha virt. eigenvalues --    2.95526   2.96118   2.97497   3.00548   3.03158
 Alpha virt. eigenvalues --    3.04294   3.07319   3.08705   3.10575   3.11637
 Alpha virt. eigenvalues --    3.19039   3.26949   3.30032   3.38629   3.41836
 Alpha virt. eigenvalues --    3.45316   3.53293   3.57142   3.57293   4.12234
 Alpha virt. eigenvalues --    4.13651   4.16257   4.18009   4.18790   4.19077
 Alpha virt. eigenvalues --    4.20398   4.21152   4.22372   4.23403   4.25347
 Alpha virt. eigenvalues --    4.25808   4.27490   4.27811   4.30134   4.32359
 Alpha virt. eigenvalues --    4.33222   4.34313   4.37529   4.39874   4.40540
 Alpha virt. eigenvalues --    4.42600   4.44588   4.45744   4.48298   4.49424
 Alpha virt. eigenvalues --    4.50654   4.52709   4.57177   4.60042   4.62062
 Alpha virt. eigenvalues --    4.64338   4.66592   4.68345   4.80315   4.84362
 Alpha virt. eigenvalues --    4.89454
          Condensed to atoms (all electrons):
 Mulliken atomic charges:
              1
     1  C   -0.201455
     2  C   -0.158948
     3  C    0.030057
     4  C   -0.001198
     5  N   -0.435059
     6  C    0.012247
     7  C    0.296486
     8  C   -0.253076
     9  C    0.046126
    10  N   -0.493809
    11  C    0.700640
    12  N   -0.566113
    13  N   -0.790123
    14  C    0.284668
    15  C    0.122441
    16  C   -0.240673
    17  C   -0.186875
    18  C    0.351635
    19  C   -0.258304
    20  N   -0.762727
    21  C    0.589040
    22  C    0.019439
    23  C   -0.202551
    24  C   -0.216598
    25  C    0.158288
    26  C   -0.222863
    27  C   -0.174029
    28  C   -0.267473
    29  N   -0.382147
    30  C   -0.181592
    31  C   -0.184476
    32  N   -0.393826
    33  C   -0.352083
    34  C   -0.184057
    35  C   -0.186853
    36  O   -0.511661
    37  C   -0.604380
    38  H    0.175088
    39  H    0.178087
    40  H    0.197061
    41  H    0.218946
    42  H    0.178677
    43  H    0.186357
    44  H    0.366468
    45  H    0.160428
    46  H    0.212442
    47  H    0.191906
    48  H    0.363599
    49  H    0.174375
    50  H    0.162880
    51  H    0.165265
    52  H    0.199352
    53  H    0.171339
    54  H    0.170826
    55  H    0.154204
    56  H    0.159389
    57  H    0.150154
    58  H    0.175556
    59  H    0.144170
    60  H    0.162076
    61  H    0.171643
    62  H    0.156984
    63  H    0.187076
    64  H    0.159177
    65  H    0.158446
    66  H    0.184450
    67  H    0.176597
    68  H    0.188863
 Sum of Mulliken atomic charges =   0.00000
 Mulliken charges with hydrogens summed into heavy atoms:
              1
     1  C   -0.026367
     2  C    0.019139
     3  C    0.030057
     4  C    0.195863
     5  N   -0.435059
     6  C    0.231194
     7  C    0.296486
     8  C   -0.074399
     9  C    0.232483
    10  N   -0.493809
    11  C    0.700640
    12  N   -0.566113
    13  N   -0.423655
    14  C    0.284668
    15  C    0.122441
    16  C   -0.080245
    17  C    0.025566
    18  C    0.351635
    19  C   -0.066397
    20  N   -0.399128
    21  C    0.589040
    22  C    0.019439
    23  C   -0.028176
    24  C   -0.053718
    25  C    0.158288
    26  C   -0.057598
    27  C    0.025323
    28  C    0.074692
    29  N   -0.382147
    30  C    0.132001
    31  C    0.141234
    32  N   -0.393826
    33  C    0.125806
    34  C    0.160003
    35  C    0.130770
    36  O   -0.511661
    37  C   -0.054470
 Sum of Mulliken charges with hydrogens summed into heavy atoms =   0.00000
 Electronic spatial extent (au):  <R**2>=          21898.7377
 Charge=              0.0000 electrons
 Dipole moment (field-independent basis, Debye):
    X=              0.9895    Y=              5.3058    Z=              1.5258  Tot=              5.6088
 Quadrupole moment (field-independent basis, Debye-Ang):
   XX=           -192.0714   YY=           -207.5130   ZZ=           -213.4596
   XY=              0.0224   XZ=              0.3699   YZ=              1.6118
 Traceless Quadrupole moment (field-independent basis, Debye-Ang):
   XX=             12.2766   YY=             -3.1650   ZZ=             -9.1116
   XY=              0.0224   XZ=              0.3699   YZ=              1.6118
 Octapole moment (field-independent basis, Debye-Ang**2):
  XXX=            -61.3439  YYY=            196.8284  ZZZ=              1.4133  XYY=            -26.3167
  XXY=            -15.8702  XXZ=            -36.0276  XZZ=             40.2989  YZZ=             -7.1349
  YYZ=              6.1000  XYZ=              3.0458
 Hexadecapole moment (field-independent basis, Debye-Ang**3):
 XXXX=         -19811.0093 YYYY=          -8337.1532 ZZZZ=           -885.0778 XXXY=            355.1095
 XXXZ=            -60.9292 YYYX=           -126.6598 YYYZ=             70.9417 ZZZX=              2.1710
 ZZZY=              6.6157 XXYY=          -4351.7878 XXZZ=          -3472.8345 YYZZ=          -1637.6931
 XXYZ=             73.5973 YYXZ=            -14.5361 ZZXY=             -2.4888
 N-N= 3.875154237615D+03 E-N=-1.142242109631D+04  KE= 1.567152139997D+03
 No NMR shielding tensors so no spin-rotation constants.
 Leave Link  601 at Tue Mar  3 17:39:02 2020, MaxMem= 2684354560 cpu:       4.4
 (Enter /opt/g09gh/gaussian/g09/l9999.exe)
 1\1\GINC-NODE37\FOpt\RwB97XD\6-31G(d)\C29H31N7O1\BDW2292\03-Mar-2020\0
 \\#P opt=(,maxcycle=400) wB97XD/6-31G* MaxDisk=100GB\\MOLECULE0 Rotata
 ble Bond Optimization on node37.bme.utexas.edu\\0,1\C,0.2354129629,2.6
 233865522,4.1685165986\C,1.6165948068,2.573520489,4.0279972542\C,2.196
 1252208,1.4427528276,3.4537224571\C,1.3353034061,0.4096635976,3.056788
 7026\N,0.0106837869,0.449746088,3.1746300272\C,-0.5268659218,1.5465187
 685,3.7225257902\C,3.653263358,1.3044419083,3.2159110787\C,4.633233497
 1,2.0450411642,3.8746067809\C,5.9507169191,1.7923264582,3.4986703081\N
 ,6.3020030132,0.8928693611,2.5869895699\C,5.2788415438,0.2161228123,2.
 0308031883\N,3.9876206901,0.397619908,2.2949910141\N,5.6408914836,-0.7
 35410368,1.1137500289\C,4.8369442126,-1.7053490005,0.4843721535\C,5.43
 84887738,-2.9085202628,0.0677173527\C,4.6224264412,-3.8664251828,-0.52
 75275508\C,3.2523096625,-3.6959522293,-0.7078707234\C,2.6803298748,-2.
 4937584669,-0.2973241257\C,3.4789113592,-1.4973605677,0.2631975623\N,1
 .3100002907,-2.1853259902,-0.408798003\C,0.2608902232,-3.0413579871,-0
 .6304842668\C,-1.0865658739,-2.3786309191,-0.5659886344\C,-1.303213920
 2,-1.0564097237,-0.9630112606\C,-2.5775255927,-0.5066549739,-0.9008908
 488\C,-3.65839917,-1.250728931,-0.4245976377\C,-3.4333127402,-2.575074
 4289,-0.0421397775\C,-2.1663695578,-3.1389987758,-0.1191719348\C,-5.05
 25411341,-0.6464777826,-0.3409636956\N,-5.3911242849,0.1454302461,0.82
 74066834\C,-4.8873909978,1.5096355975,0.9085638385\C,-3.6088610165,1.6
 561784865,1.7488416937\N,-3.727949586,1.0413706911,3.0695238083\C,-4.5
 685527448,1.7836225578,3.9942196109\C,-4.1052967282,-0.363955101,2.917
 3885349\C,-5.4024209682,-0.5420507034,2.1125405292\O,0.3820642658,-4.2
 356535761,-0.8462593982\C,6.9102258435,-3.1605780325,0.2747527543\H,-0
 .2480305186,3.4914251029,4.6048589483\H,2.229217911,3.415485295,4.3385
 054534\H,1.7577403796,-0.4949701558,2.6274167502\H,-1.6153989636,1.543
 4260107,3.7864996711\H,4.4023610645,2.7690176543,4.646138043\H,6.76881
 51181,2.3401449616,3.9621061873\H,6.6414100628,-0.8390771808,1.0358708
 064\H,5.0730513245,-4.8020914831,-0.8487829233\H,2.6412205486,-4.47685
 14758,-1.137275849\H,3.0349454356,-0.562160335,0.5721960714\H,1.058078
 3472,-1.2727182849,-0.0569796341\H,-0.4875693617,-0.4627404699,-1.3674
 67763\H,-2.737126258,0.5136141868,-1.2425682247\H,-4.2673504307,-3.178
 8949801,0.3081428771\H,-1.9966088455,-4.1744046004,0.1577884991\H,-5.2
 177396326,-0.0138633775,-1.2214346484\H,-5.7837100371,-1.4628990793,-0
 .4037346921\H,-4.7180075411,1.885466788,-0.1066051262\H,-5.6745139885,
 2.1402652637,1.3494244532\H,-3.3591323126,2.7172921174,1.8736596077\H,
 -2.7646251828,1.1732784621,1.2425547914\H,-5.6272587034,1.881671223,3.
 7010177171\H,-4.1621999857,2.7947919028,4.1117879737\H,-4.5379395489,1
 .2923631634,4.9726516989\H,-4.2136824854,-0.810511052,3.9128825219\H,-
 3.2754914194,-0.8736152255,2.4136635686\H,-6.2488717682,-0.1594199802,
 2.7026851827\H,-5.5955898824,-1.6066574121,1.9418066096\H,7.1929932961
 ,-3.0787108118,1.3317754028\H,7.5349562752,-2.4563691455,-0.291682643\
 H,7.1797627044,-4.1659605924,-0.0587987943\\Version=EM64L-G09RevA.02\S
 tate=1-A\HF=-1581.7640371\RMSD=8.112e-09\RMSF=4.030e-06\Dipole=-0.1663
 371,1.9979087,0.9219931\Quadrupole=8.9378166,-2.887637,-6.0501796,-1.5
 249893,0.3721549,2.0005514\PG=C01 [X(C29H31N7O1)]\\@


 In the beginning the Universe was created.
 This has made a lot of people very angry
 and been widely regarded as a bad move.
                               -D.Adams
 Job cpu time:  1 days 19 hours  8 minutes 29.4 seconds.
 File lengths (MBytes):  RWF=    244 Int=      0 D2E=      0 Chk=     25 Scr=      1
 Normal termination of Gaussian 09 at Tue Mar  3 17:39:03 2020.
