
    -----------------------------------------------------------------------
          Psi4: An Open-Source Ab Initio Electronic Structure Package
                               Psi4 1.3.2 release

                         Git: Rev {HEAD} ecbda83 


    R. M. Parrish, L. A. Burns, D. G. A. Smith, A. C. Simmonett,
    A. E. DePrince III, E. G. Hohenstein, U. Bozkaya, A. Yu. Sokolov,
    R. Di Remigio, R. M. Richard, J. F. Gonthier, A. M. James,
    H. R. McAlexander, A. Kumar, M. Saitow, X. Wang, B. P. Pritchard,
    P. Verma, H. F. Schaefer III, K. Patkowski, R. A. King, E. F. Valeev,
    F. A. Evangelista, J. M. Turney, T. D. Crawford, and C. D. Sherrill,
    J. Chem. Theory Comput. 13(7) pp 3185--3197 (2017).
    (doi: 10.1021/acs.jctc.7b00174)


                         Additional Contributions by
    P. Kraus, H. Kruse, M. H. Lechner, M. C. Schieber, R. A. Shaw,
    A. Alenaizan, R. Galvelis, Z. L. Glick, S. Lehtola, and J. P. Misiewicz

    -----------------------------------------------------------------------


    Psi4 started on: Tuesday, 14 April 2020 08:10PM

    Process ID: 68365
    Host:       node40.bme.utexas.edu
    PSIDATADIR: /home/bdw2292/miniconda3/envs/p4env/share/psi4
    Memory:     500.0 MiB
    Threads:    1
    
  ==> Input File <==

--------------------------------------------------------------------------
molecule { 
0 1
 C    0.392388    4.690443   -1.993276
 C    1.709767    4.512110   -1.549869
 C    2.166701    3.225235   -1.203927
 C    1.230465    2.174676   -1.364239
 N   -0.033130    2.324815   -1.782693
 C   -0.438082    3.567817   -2.086443
 C    3.555768    2.935497   -0.692488
 C    4.597402    3.873629   -0.602424
 C    5.812919    3.390266   -0.104111
 N    6.019498    2.132558    0.279821
 C    4.963229    1.301730    0.167476
 N    3.766901    1.666067   -0.297199
 N    5.191560   -0.000192    0.578056
 C    4.395432   -1.202776    0.565371
 C    5.035721   -2.469370    0.730598
 C    4.224384   -3.615703    0.680856
 C    2.839031   -3.584128    0.485002
 C    2.219509   -2.337276    0.355075
 C    3.004679   -1.174694    0.398063
 N    0.823114   -2.126071    0.145793
 C   -0.109193   -2.881838   -0.526142
 C   -1.456638   -2.242533   -0.801034
 C   -1.618045   -0.879757   -1.103085
 C   -2.893658   -0.342569   -1.289606
 C   -4.048775   -1.142513   -1.205902
 C   -3.868502   -2.514893   -0.944531
 C   -2.596582   -3.061699   -0.757385
 C   -5.446795   -0.534009   -1.332355
 N   -6.079079    0.079893   -0.151686
 C   -5.609905    1.403208    0.319478
 C   -4.526837    1.349896    1.428351
 N   -4.903866    0.517661    2.596597
 C   -5.767705    1.147529    3.602456
 C   -5.318362   -0.822540    2.113589
 C   -6.403369   -0.785502    1.005780
 O    0.114454   -4.029069   -0.878736
 C    6.534106   -2.626661    0.930338
 H    0.017493    5.674391   -2.259092
 H    2.351639    5.385630   -1.465845
 H    1.518571    1.148589   -1.159130
 H   -1.469694    3.652783   -2.425135
 H    4.516646    4.911840   -0.900033
 H    6.687078    4.032416   -0.000725
 H    6.155284   -0.093485    0.861216
 H    4.685900   -4.596773    0.787218
 H    2.251141   -4.490551    0.409738
 H    2.523971   -0.215584    0.301546
 H    0.485264   -1.237918    0.489998
 H   -0.744736   -0.237821   -1.189457
 H   -2.982458    0.724472   -1.492743
 H   -4.736030   -3.169213   -0.864186
 H   -2.471502   -4.122426   -0.553333
 H   -5.418166    0.237429   -2.114564
 H   -6.133421   -1.318836   -1.679960
 H   -5.253031    2.060854   -0.589755
 H   -6.794594    2.098809    0.894486
 H   -4.261714    2.584369    1.850410
 H   -3.473286    0.890158    0.975082
 H   -6.755433    1.373836    3.185254
 H   -5.313928    2.078372    3.961800
 H   -5.892563    0.481442    4.464071
 H   -5.686644   -1.487146    3.049757
 H   -4.132347   -1.456847    1.584948
 H   -7.640987   -0.256925    1.609108
 H   -6.664327   -1.942084    0.617249
 H    6.901128   -2.097591    1.821418
 H    7.087306   -2.235384    0.071823
 H    6.837764   -3.670156    1.048422
}
memory 20GB
set_num_threads(6)
psi4_io.set_default_path("/scratch/bdw2292")
set freeze_core True
E, wfn = energy('mp2/6-311++G**',return_wfn=True)
oeprop(wfn,"WIBERG_LOWDIN_INDICES")
clean()
--------------------------------------------------------------------------

  Memory set to  18.626 GiB by Python driver.
  Threads set to 6 by Python driver.
    SCF Algorithm Type (re)set to DF.

*** tstart() called on node40.bme.utexas.edu
*** at Tue Apr 14 20:10:16 2020

   => Loading Basis Set <=

    Name: 6-311++G**
    Role: ORBITAL
    Keyword: BASIS
    atoms 1-4, 6-9, 11, 14-19, 21-28, 30-31, 33-35, 37 entry C          line   119 file /home/bdw2292/miniconda3/envs/p4env/share/psi4/basis/6-311ppgss.gbs 
    atoms 5, 10, 12-13, 20, 29, 32                     entry N          line   140 file /home/bdw2292/miniconda3/envs/p4env/share/psi4/basis/6-311ppgss.gbs 
    atoms 36                                           entry O          line   161 file /home/bdw2292/miniconda3/envs/p4env/share/psi4/basis/6-311ppgss.gbs 
    atoms 38-68                                        entry H          line    42 file /home/bdw2292/miniconda3/envs/p4env/share/psi4/basis/6-311ppgss.gbs 


         ---------------------------------------------------------
                                   SCF
               by Justin Turney, Rob Parrish, Andy Simmonett
                          and Daniel G. A. Smith
                              RHF Reference
                        6 Threads,  19073 MiB Core
         ---------------------------------------------------------

  ==> Geometry <==

    Molecular point group: c1
    Full point group: C1

    Geometry (in Angstrom), charge = 0, multiplicity = 1:

       Center              X                  Y                   Z               Mass       
    ------------   -----------------  -----------------  -----------------  -----------------
         C            0.259164295199     4.648107993657    -1.910552453451    12.000000000000
         C            1.576543295199     4.469774993657    -1.467145453451    12.000000000000
         C            2.033477295199     3.182899993657    -1.121203453451    12.000000000000
         C            1.097241295199     2.132340993657    -1.281515453451    12.000000000000
         N           -0.166353704801     2.282479993657    -1.699969453451    14.003074004430
         C           -0.571305704801     3.525481993657    -2.003719453451    12.000000000000
         C            3.422544295199     2.893161993657    -0.609764453451    12.000000000000
         C            4.464178295199     3.831293993657    -0.519700453451    12.000000000000
         C            5.679695295199     3.347930993657    -0.021387453451    12.000000000000
         N            5.886274295199     2.090222993657     0.362544546549    14.003074004430
         C            4.830005295199     1.259394993657     0.250199546549    12.000000000000
         N            3.633677295199     1.623731993657    -0.214475453451    14.003074004430
         N            5.058336295199    -0.042527006343     0.660779546549    14.003074004430
         C            4.262208295199    -1.245111006343     0.648094546549    12.000000000000
         C            4.902497295199    -2.511705006343     0.813321546549    12.000000000000
         C            4.091160295199    -3.658038006343     0.763579546549    12.000000000000
         C            2.705807295199    -3.626463006343     0.567725546549    12.000000000000
         C            2.086285295199    -2.379611006343     0.437798546549    12.000000000000
         C            2.871455295199    -1.217029006343     0.480786546549    12.000000000000
         N            0.689890295199    -2.168406006343     0.228516546549    14.003074004430
         C           -0.242416704801    -2.924173006343    -0.443418453451    12.000000000000
         C           -1.589861704801    -2.284868006343    -0.718310453451    12.000000000000
         C           -1.751268704801    -0.922092006343    -1.020361453451    12.000000000000
         C           -3.026881704801    -0.384904006343    -1.206882453451    12.000000000000
         C           -4.181998704801    -1.184848006343    -1.123178453451    12.000000000000
         C           -4.001725704801    -2.557228006343    -0.861807453451    12.000000000000
         C           -2.729805704801    -3.104034006343    -0.674661453451    12.000000000000
         C           -5.580018704801    -0.576344006343    -1.249631453451    12.000000000000
         N           -6.212302704801     0.037557993657    -0.068962453451    14.003074004430
         C           -5.743128704801     1.360872993657     0.402201546549    12.000000000000
         C           -4.660060704801     1.307560993657     1.511074546549    12.000000000000
         N           -5.037089704801     0.475325993657     2.679320546549    14.003074004430
         C           -5.900928704801     1.105193993657     3.685179546549    12.000000000000
         C           -5.451585704801    -0.864875006343     2.196312546549    12.000000000000
         C           -6.536592704801    -0.827837006343     1.088503546549    12.000000000000
         O           -0.018769704801    -4.071404006343    -0.796012453451    15.994914619570
         C            6.400882295199    -2.668996006343     1.013061546549    12.000000000000
         H           -0.115730704801     5.632055993657    -2.176368453451     1.007825032230
         H            2.218415295199     5.343294993657    -1.383121453451     1.007825032230
         H            1.385347295199     1.106253993657    -1.076406453451     1.007825032230
         H           -1.602917704801     3.610447993657    -2.342411453451     1.007825032230
         H            4.383422295199     4.869504993657    -0.817309453451     1.007825032230
         H            6.553854295199     3.990080993657     0.081998546549     1.007825032230
         H            6.022060295199    -0.135820006343     0.943939546549     1.007825032230
         H            4.552676295199    -4.639108006343     0.869941546549     1.007825032230
         H            2.117917295199    -4.532886006343     0.492461546549     1.007825032230
         H            2.390747295199    -0.257919006343     0.384269546549     1.007825032230
         H            0.352040295199    -1.280253006343     0.572721546549     1.007825032230
         H           -0.877959704801    -0.280156006343    -1.106733453451     1.007825032230
         H           -3.115681704801     0.682136993657    -1.410019453451     1.007825032230
         H           -4.869253704801    -3.211548006343    -0.781462453451     1.007825032230
         H           -2.604725704801    -4.164761006343    -0.470609453451     1.007825032230
         H           -5.551389704801     0.195093993657    -2.031840453451     1.007825032230
         H           -6.266644704801    -1.361171006343    -1.597236453451     1.007825032230
         H           -5.386254704801     2.018518993657    -0.507031453451     1.007825032230
         H           -6.927817704801     2.056473993657     0.977209546549     1.007825032230
         H           -4.394937704801     2.542033993657     1.933133546549     1.007825032230
         H           -3.606509704801     0.847822993657     1.057805546549     1.007825032230
         H           -6.888656704801     1.331500993657     3.267977546549     1.007825032230
         H           -5.447151704801     2.036036993657     4.044523546549     1.007825032230
         H           -6.025786704801     0.439106993657     4.546794546549     1.007825032230
         H           -5.819867704801    -1.529481006343     3.132480546549     1.007825032230
         H           -4.265570704801    -1.499182006343     1.667671546549     1.007825032230
         H           -7.774210704801    -0.299260006343     1.691831546549     1.007825032230
         H           -6.797550704801    -1.984419006343     0.699972546549     1.007825032230
         H            6.767904295199    -2.139926006343     1.904141546549     1.007825032230
         H            6.954082295199    -2.277719006343     0.154546546549     1.007825032230
         H            6.704540295199    -3.712491006343     1.131145546549     1.007825032230

  Running in c1 symmetry.

  Rotational constants: A =      0.00442  B =      0.00186  C =      0.00148 [cm^-1]
  Rotational constants: A =    132.48575  B =     55.67410  C =     44.31552 [MHz]
  Nuclear repulsion = 3747.560463706328392

  Charge       = 0
  Multiplicity = 1
  Electrons    = 262
  Nalpha       = 131
  Nbeta        = 131

  ==> Algorithm <==

  SCF Algorithm Type is DF.
  DIIS enabled.
  MOM disabled.
  Fractional occupation disabled.
  Guess Type is SAD.
  Energy threshold   = 1.00e-08
  Density threshold  = 1.00e-08
  Integral threshold = 0.00e+00

  ==> Primary Basis <==

  Basis Set: 6-311++G**
    Blend: 6-311++G**
    Number of shells: 525
    Number of basis function: 1031
    Number of Cartesian functions: 1068
    Spherical Harmonics?: true
    Max angular momentum: 2

   => Loading Basis Set <=

    Name: (6-311++G** AUX)
    Role: JKFIT
    Keyword: DF_BASIS_SCF
    atoms 1-4, 6-9, 11, 14-19, 21-28, 30-31, 33-35, 37 entry C          line   162 file /home/bdw2292/miniconda3/envs/p4env/share/psi4/basis/aug-cc-pvtz-jkfit.gbs 
    atoms 5, 10, 12-13, 20, 29, 32                     entry N          line   224 file /home/bdw2292/miniconda3/envs/p4env/share/psi4/basis/aug-cc-pvtz-jkfit.gbs 
    atoms 36                                           entry O          line   286 file /home/bdw2292/miniconda3/envs/p4env/share/psi4/basis/aug-cc-pvtz-jkfit.gbs 
    atoms 38-68                                        entry H          line    70 file /home/bdw2292/miniconda3/envs/p4env/share/psi4/basis/aug-cc-pvtz-jkfit.gbs 

  ==> Pre-Iterations <==

   -------------------------------------------------------
    Irrep   Nso     Nmo     Nalpha   Nbeta   Ndocc  Nsocc
   -------------------------------------------------------
     A       1031    1031       0       0       0       0
   -------------------------------------------------------
    Total    1031    1031     131     131     131       0
   -------------------------------------------------------

  ==> Integral Setup <==

  ==> DiskDFJK: Density-Fitted J/K Matrices <==

    J tasked:                  Yes
    K tasked:                  Yes
    wK tasked:                  No
    OpenMP threads:              6
    Integrals threads:           6
    Memory [MiB]:            14305
    Algorithm:                Disk
    Integral Cache:           NONE
    Schwarz Cutoff:          1E-12
    Fitting Condition:       1E-10

   => Auxiliary Basis Set <=

  Basis Set: (6-311++G** AUX)
    Blend: AUG-CC-PVTZ-JKFIT
    Number of shells: 1544
    Number of basis function: 5274
    Number of Cartesian functions: 6552
    Spherical Harmonics?: true
    Max angular momentum: 4

  Minimum eigenvalue in the overlap matrix is 1.4013665406E-07.
  Using Symmetric Orthogonalization.

  SCF Guess: Superposition of Atomic Densities via on-the-fly atomic UHF.

  ==> Iterations <==

                           Total Energy        Delta E     RMS |[F,P]|

   @DF-RHF iter SAD: -1571.28231097933440   -1.57128e+03   0.00000e+00 
   @DF-RHF iter   1: -1571.39901205833917   -1.16701e-01   1.21194e-03 DIIS
   @DF-RHF iter   2: -1572.16290390232621   -7.63892e-01   6.35939e-04 DIIS
   @DF-RHF iter   3: -1572.35244635386130   -1.89542e-01   1.64573e-04 DIIS
   @DF-RHF iter   4: -1572.36933235916513   -1.68860e-02   6.51383e-05 DIIS
   @DF-RHF iter   5: -1572.37186364041531   -2.53128e-03   1.34326e-05 DIIS
   @DF-RHF iter   6: -1572.37201459023368   -1.50950e-04   5.92303e-06 DIIS
   @DF-RHF iter   7: -1572.37204913815503   -3.45479e-05   1.94030e-06 DIIS
   @DF-RHF iter   8: -1572.37205460871837   -5.47056e-06   7.84177e-07 DIIS
   @DF-RHF iter   9: -1572.37205553218178   -9.23463e-07   3.26617e-07 DIIS
   @DF-RHF iter  10: -1572.37205571631625   -1.84134e-07   1.44208e-07 DIIS
   @DF-RHF iter  11: -1572.37205575342205   -3.71058e-08   6.63243e-08 DIIS
   @DF-RHF iter  12: -1572.37205576272322   -9.30117e-09   2.71914e-08 DIIS
   @DF-RHF iter  13: -1572.37205576470888   -1.98565e-09   1.14851e-08 DIIS
   @DF-RHF iter  14: -1572.37205576492192   -2.13049e-10   5.60630e-09 DIIS
  Energy and wave function converged.


  ==> Post-Iterations <==

    Orbital Energies [Eh]
    ---------------------

    Doubly Occupied:                                                      

       1A    -20.518796     2A    -15.603708     3A    -15.597558  
       4A    -15.586826     5A    -15.573248     6A    -15.568832  
       7A    -15.568135     8A    -15.553001     9A    -11.374520  
      10A    -11.361981    11A    -11.334573    12A    -11.315035  
      13A    -11.313596    14A    -11.309630    15A    -11.301772  
      16A    -11.301681    17A    -11.301550    18A    -11.300172  
      19A    -11.295708    20A    -11.289722    21A    -11.289407  
      22A    -11.280345    23A    -11.276195    24A    -11.266019  
      25A    -11.255181    26A    -11.254896    27A    -11.252363  
      28A    -11.250849    29A    -11.249165    30A    -11.248051  
      31A    -11.245520    32A    -11.243705    33A    -11.243628  
      34A    -11.239992    35A    -11.234763    36A    -11.231762  
      37A    -11.227079    38A     -1.384233    39A     -1.344967  
      40A     -1.278473    41A     -1.249889    42A     -1.243562  
      43A     -1.240979    44A     -1.209346    45A     -1.197910  
      46A     -1.159800    47A     -1.139710    48A     -1.116148  
      49A     -1.075313    50A     -1.058148    51A     -1.048284  
      52A     -1.037231    53A     -1.021533    54A     -1.008300  
      55A     -0.991275    56A     -0.975563    57A     -0.946612  
      58A     -0.927157    59A     -0.926411    60A     -0.901035  
      61A     -0.872698    62A     -0.864271    63A     -0.857836  
      64A     -0.840331    65A     -0.832772    66A     -0.826129  
      67A     -0.824468    68A     -0.804046    69A     -0.778047  
      70A     -0.753959    71A     -0.738686    72A     -0.730236  
      73A     -0.722949    74A     -0.702606    75A     -0.695948  
      76A     -0.682976    77A     -0.671368    78A     -0.666680  
      79A     -0.657531    80A     -0.653891    81A     -0.652685  
      82A     -0.640281    83A     -0.636905    84A     -0.628242  
      85A     -0.624413    86A     -0.617987    87A     -0.612213  
      88A     -0.606878    89A     -0.606252    90A     -0.604418  
      91A     -0.599153    92A     -0.596802    93A     -0.589588  
      94A     -0.585051    95A     -0.583896    96A     -0.581570  
      97A     -0.578964    98A     -0.572566    99A     -0.563625  
     100A     -0.561675   101A     -0.548050   102A     -0.544504  
     103A     -0.528724   104A     -0.525459   105A     -0.523184  
     106A     -0.521486   107A     -0.514929   108A     -0.508803  
     109A     -0.507640   110A     -0.503933   111A     -0.501382  
     112A     -0.492182   113A     -0.485653   114A     -0.477404  
     115A     -0.457062   116A     -0.451272   117A     -0.442873  
     118A     -0.435335   119A     -0.427188   120A     -0.420658  
     121A     -0.414231   122A     -0.409369   123A     -0.400393  
     124A     -0.380810   125A     -0.373865   126A     -0.346135  
     127A     -0.343810   128A     -0.340403   129A     -0.317004  
     130A     -0.311750   131A     -0.291993  

    Virtual:                                                              

     132A      0.026205   133A      0.034707   134A      0.041231  
     135A      0.041611   136A      0.044349   137A      0.047328  
     138A      0.048465   139A      0.054667   140A      0.057896  
     141A      0.060667   142A      0.062835   143A      0.066739  
     144A      0.068627   145A      0.069923   146A      0.071915  
     147A      0.074400   148A      0.076175   149A      0.081984  
     150A      0.085282   151A      0.085471   152A      0.086373  
     153A      0.089361   154A      0.092190   155A      0.097030  
     156A      0.097801   157A      0.100881   158A      0.102474  
     159A      0.104704   160A      0.107322   161A      0.109105  
     162A      0.112958   163A      0.114702   164A      0.115950  
     165A      0.118122   166A      0.119945   167A      0.121884  
     168A      0.122501   169A      0.126441   170A      0.131494  
     171A      0.134899   172A      0.139174   173A      0.143379  
     174A      0.143782   175A      0.147311   176A      0.148284  
     177A      0.149493   178A      0.150920   179A      0.154604  
     180A      0.155936   181A      0.157972   182A      0.161055  
     183A      0.161649   184A      0.164616   185A      0.166549  
     186A      0.168026   187A      0.169866   188A      0.172643  
     189A      0.175103   190A      0.176428   191A      0.178463  
     192A      0.179746   193A      0.180991   194A      0.182235  
     195A      0.184135   196A      0.185134   197A      0.186902  
     198A      0.189627   199A      0.191232   200A      0.192004  
     201A      0.196355   202A      0.198512   203A      0.201992  
     204A      0.204040   205A      0.205353   206A      0.206528  
     207A      0.208047   208A      0.209660   209A      0.210588  
     210A      0.210860   211A      0.211735   212A      0.212293  
     213A      0.216010   214A      0.219054   215A      0.219370  
     216A      0.219915   217A      0.223616   218A      0.224958  
     219A      0.225990   220A      0.226942   221A      0.228884  
     222A      0.230292   223A      0.233378   224A      0.236002  
     225A      0.236969   226A      0.238976   227A      0.239713  
     228A      0.241690   229A      0.245389   230A      0.247269  
     231A      0.250864   232A      0.254093   233A      0.256304  
     234A      0.258579   235A      0.259977   236A      0.261502  
     237A      0.265172   238A      0.267557   239A      0.270941  
     240A      0.271919   241A      0.273780   242A      0.277182  
     243A      0.277428   244A      0.279416   245A      0.281184  
     246A      0.284403   247A      0.285426   248A      0.286710  
     249A      0.288480   250A      0.289880   251A      0.295543  
     252A      0.297922   253A      0.299893   254A      0.303226  
     255A      0.305477   256A      0.308272   257A      0.310055  
     258A      0.312212   259A      0.313266   260A      0.316407  
     261A      0.318535   262A      0.321945   263A      0.324585  
     264A      0.325961   265A      0.328916   266A      0.330897  
     267A      0.331957   268A      0.336724   269A      0.338029  
     270A      0.340128   271A      0.341037   272A      0.345414  
     273A      0.347504   274A      0.348261   275A      0.350646  
     276A      0.353944   277A      0.355070   278A      0.356150  
     279A      0.356992   280A      0.359869   281A      0.361937  
     282A      0.363487   283A      0.365805   284A      0.368646  
     285A      0.369240   286A      0.373611   287A      0.374829  
     288A      0.375639   289A      0.377278   290A      0.378942  
     291A      0.381073   292A      0.382193   293A      0.383286  
     294A      0.385514   295A      0.387174   296A      0.390658  
     297A      0.391295   298A      0.393942   299A      0.395593  
     300A      0.397930   301A      0.398796   302A      0.399494  
     303A      0.402755   304A      0.403563   305A      0.406742  
     306A      0.408081   307A      0.411225   308A      0.412265  
     309A      0.414100   310A      0.414398   311A      0.416858  
     312A      0.417825   313A      0.418926   314A      0.421325  
     315A      0.422935   316A      0.425052   317A      0.425232  
     318A      0.428167   319A      0.431827   320A      0.432625  
     321A      0.434058   322A      0.438309   323A      0.438613  
     324A      0.440093   325A      0.440853   326A      0.444928  
     327A      0.446383   328A      0.449908   329A      0.451764  
     330A      0.452941   331A      0.455689   332A      0.455998  
     333A      0.457577   334A      0.462622   335A      0.463515  
     336A      0.465105   337A      0.465439   338A      0.471476  
     339A      0.474092   340A      0.477857   341A      0.481407  
     342A      0.483102   343A      0.485844   344A      0.486777  
     345A      0.491250   346A      0.493015   347A      0.496883  
     348A      0.501401   349A      0.503680   350A      0.504860  
     351A      0.507454   352A      0.507641   353A      0.511092  
     354A      0.514690   355A      0.521557   356A      0.523781  
     357A      0.525018   358A      0.527407   359A      0.529956  
     360A      0.532297   361A      0.536444   362A      0.538374  
     363A      0.542594   364A      0.543646   365A      0.546901  
     366A      0.550994   367A      0.552667   368A      0.556928  
     369A      0.561787   370A      0.567812   371A      0.571421  
     372A      0.575493   373A      0.582624   374A      0.584363  
     375A      0.587049   376A      0.590638   377A      0.601261  
     378A      0.604284   379A      0.605743   380A      0.612122  
     381A      0.616545   382A      0.620745   383A      0.623470  
     384A      0.626509   385A      0.628690   386A      0.638589  
     387A      0.646845   388A      0.659073   389A      0.662881  
     390A      0.684227   391A      0.689182   392A      0.692512  
     393A      0.706439   394A      0.709136   395A      0.712077  
     396A      0.713418   397A      0.721747   398A      0.726044  
     399A      0.731552   400A      0.734987   401A      0.739873  
     402A      0.745990   403A      0.748161   404A      0.754723  
     405A      0.757435   406A      0.762955   407A      0.763745  
     408A      0.769006   409A      0.771191   410A      0.777502  
     411A      0.778736   412A      0.783057   413A      0.784764  
     414A      0.792023   415A      0.795485   416A      0.800763  
     417A      0.801435   418A      0.804887   419A      0.807764  
     420A      0.810763   421A      0.814804   422A      0.818490  
     423A      0.821994   424A      0.824299   425A      0.828355  
     426A      0.828991   427A      0.834094   428A      0.836894  
     429A      0.840482   430A      0.843423   431A      0.850989  
     432A      0.852934   433A      0.857909   434A      0.860774  
     435A      0.869404   436A      0.871493   437A      0.872663  
     438A      0.877214   439A      0.879613   440A      0.882754  
     441A      0.885627   442A      0.892095   443A      0.893175  
     444A      0.894420   445A      0.896278   446A      0.897813  
     447A      0.901405   448A      0.902202   449A      0.906897  
     450A      0.910583   451A      0.915842   452A      0.919147  
     453A      0.922739   454A      0.924934   455A      0.928806  
     456A      0.932405   457A      0.933335   458A      0.939468  
     459A      0.939902   460A      0.943230   461A      0.945675  
     462A      0.946183   463A      0.949593   464A      0.951904  
     465A      0.956758   466A      0.962666   467A      0.965271  
     468A      0.967566   469A      0.971492   470A      0.973013  
     471A      0.978494   472A      0.982717   473A      0.983725  
     474A      0.987767   475A      0.990839   476A      0.996350  
     477A      0.999347   478A      1.002026   479A      1.010292  
     480A      1.014628   481A      1.018199   482A      1.019543  
     483A      1.023899   484A      1.029320   485A      1.034905  
     486A      1.037138   487A      1.041270   488A      1.042547  
     489A      1.049959   490A      1.051765   491A      1.055450  
     492A      1.067047   493A      1.068167   494A      1.070840  
     495A      1.074403   496A      1.077413   497A      1.080660  
     498A      1.085049   499A      1.090755   500A      1.091627  
     501A      1.096167   502A      1.102139   503A      1.108928  
     504A      1.114817   505A      1.122492   506A      1.127564  
     507A      1.132085   508A      1.139497   509A      1.142391  
     510A      1.144286   511A      1.146215   512A      1.152617  
     513A      1.155334   514A      1.158441   515A      1.160483  
     516A      1.166261   517A      1.169530   518A      1.171817  
     519A      1.176430   520A      1.182699   521A      1.185079  
     522A      1.187871   523A      1.192331   524A      1.195229  
     525A      1.199158   526A      1.201271   527A      1.209381  
     528A      1.211008   529A      1.215436   530A      1.221237  
     531A      1.224195   532A      1.227361   533A      1.232138  
     534A      1.235593   535A      1.238977   536A      1.244481  
     537A      1.249666   538A      1.251139   539A      1.251860  
     540A      1.255714   541A      1.258718   542A      1.268183  
     543A      1.270792   544A      1.277966   545A      1.282107  
     546A      1.282550   547A      1.287847   548A      1.290605  
     549A      1.294524   550A      1.297830   551A      1.301993  
     552A      1.316535   553A      1.321731   554A      1.322611  
     555A      1.329586   556A      1.337722   557A      1.339646  
     558A      1.347981   559A      1.354713   560A      1.361442  
     561A      1.362734   562A      1.372637   563A      1.378042  
     564A      1.382894   565A      1.389676   566A      1.391093  
     567A      1.396899   568A      1.399857   569A      1.415167  
     570A      1.421948   571A      1.431156   572A      1.433090  
     573A      1.440675   574A      1.444212   575A      1.448789  
     576A      1.455675   577A      1.465338   578A      1.466998  
     579A      1.473664   580A      1.485443   581A      1.497357  
     582A      1.502931   583A      1.509939   584A      1.511512  
     585A      1.519778   586A      1.527605   587A      1.536556  
     588A      1.553688   589A      1.563702   590A      1.572503  
     591A      1.578029   592A      1.586660   593A      1.590010  
     594A      1.605553   595A      1.613575   596A      1.619379  
     597A      1.625125   598A      1.634506   599A      1.640275  
     600A      1.649582   601A      1.654220   602A      1.665349  
     603A      1.677687   604A      1.691645   605A      1.699787  
     606A      1.701931   607A      1.710753   608A      1.716686  
     609A      1.731068   610A      1.733035   611A      1.742602  
     612A      1.744471   613A      1.750891   614A      1.755803  
     615A      1.761463   616A      1.762416   617A      1.769167  
     618A      1.776040   619A      1.778166   620A      1.781845  
     621A      1.789759   622A      1.795165   623A      1.800323  
     624A      1.805689   625A      1.808223   626A      1.814308  
     627A      1.819740   628A      1.822402   629A      1.823601  
     630A      1.826316   631A      1.831042   632A      1.839205  
     633A      1.841798   634A      1.843714   635A      1.846206  
     636A      1.852307   637A      1.854808   638A      1.857148  
     639A      1.862774   640A      1.865603   641A      1.870123  
     642A      1.871837   643A      1.877126   644A      1.883542  
     645A      1.891571   646A      1.894143   647A      1.899622  
     648A      1.903621   649A      1.919469   650A      1.922018  
     651A      1.930690   652A      1.933965   653A      1.935666  
     654A      1.940563   655A      1.947827   656A      1.954807  
     657A      1.961714   658A      1.962558   659A      1.965896  
     660A      1.969851   661A      1.972515   662A      1.974863  
     663A      1.980172   664A      1.982952   665A      1.989581  
     666A      1.994470   667A      1.999059   668A      2.002622  
     669A      2.003110   670A      2.009747   671A      2.011566  
     672A      2.023648   673A      2.025691   674A      2.028930  
     675A      2.032116   676A      2.034992   677A      2.051311  
     678A      2.053765   679A      2.057395   680A      2.058098  
     681A      2.064433   682A      2.069962   683A      2.073965  
     684A      2.080693   685A      2.085300   686A      2.087306  
     687A      2.094484   688A      2.100926   689A      2.104304  
     690A      2.111558   691A      2.117874   692A      2.122829  
     693A      2.126902   694A      2.138630   695A      2.145422  
     696A      2.149902   697A      2.163458   698A      2.171503  
     699A      2.173832   700A      2.178076   701A      2.184178  
     702A      2.190019   703A      2.192609   704A      2.198435  
     705A      2.206541   706A      2.217601   707A      2.222784  
     708A      2.228698   709A      2.232734   710A      2.239982  
     711A      2.246037   712A      2.249146   713A      2.250226  
     714A      2.253944   715A      2.256052   716A      2.263006  
     717A      2.267525   718A      2.271814   719A      2.276104  
     720A      2.279358   721A      2.281353   722A      2.286208  
     723A      2.294088   724A      2.302300   725A      2.308018  
     726A      2.309572   727A      2.315636   728A      2.322315  
     729A      2.330990   730A      2.332479   731A      2.337565  
     732A      2.345281   733A      2.353272   734A      2.358661  
     735A      2.366817   736A      2.371407   737A      2.376388  
     738A      2.382362   739A      2.393512   740A      2.400440  
     741A      2.401812   742A      2.406373   743A      2.412364  
     744A      2.426705   745A      2.432989   746A      2.440466  
     747A      2.446955   748A      2.449367   749A      2.459868  
     750A      2.475685   751A      2.479933   752A      2.486643  
     753A      2.495265   754A      2.505972   755A      2.517717  
     756A      2.520617   757A      2.529191   758A      2.533146  
     759A      2.539700   760A      2.546478   761A      2.549648  
     762A      2.563708   763A      2.576832   764A      2.584730  
     765A      2.592368   766A      2.603617   767A      2.607027  
     768A      2.622994   769A      2.631854   770A      2.651334  
     771A      2.652471   772A      2.664616   773A      2.680265  
     774A      2.686938   775A      2.690682   776A      2.698917  
     777A      2.709294   778A      2.717606   779A      2.721203  
     780A      2.728189   781A      2.738141   782A      2.747808  
     783A      2.767095   784A      2.781045   785A      2.787782  
     786A      2.792802   787A      2.795926   788A      2.800050  
     789A      2.804306   790A      2.814753   791A      2.819380  
     792A      2.828516   793A      2.832309   794A      2.850292  
     795A      2.853093   796A      2.866614   797A      2.870987  
     798A      2.874903   799A      2.876371   800A      2.884597  
     801A      2.890132   802A      2.896602   803A      2.909137  
     804A      2.910945   805A      2.934636   806A      2.937372  
     807A      2.942254   808A      2.947085   809A      2.953212  
     810A      2.964666   811A      2.966914   812A      2.977463  
     813A      2.977939   814A      2.982537   815A      2.987814  
     816A      2.990978   817A      3.000384   818A      3.008097  
     819A      3.015403   820A      3.022777   821A      3.033656  
     822A      3.035112   823A      3.040371   824A      3.047878  
     825A      3.054256   826A      3.056815   827A      3.060595  
     828A      3.070474   829A      3.071464   830A      3.081390  
     831A      3.088487   832A      3.096545   833A      3.098533  
     834A      3.103929   835A      3.109296   836A      3.114071  
     837A      3.117015   838A      3.122353   839A      3.125218  
     840A      3.128055   841A      3.133193   842A      3.140877  
     843A      3.144240   844A      3.148226   845A      3.157486  
     846A      3.162761   847A      3.167694   848A      3.171402  
     849A      3.181794   850A      3.182817   851A      3.200414  
     852A      3.202948   853A      3.211286   854A      3.218950  
     855A      3.224132   856A      3.233290   857A      3.245060  
     858A      3.246169   859A      3.254125   860A      3.258929  
     861A      3.263741   862A      3.271001   863A      3.273114  
     864A      3.286091   865A      3.291129   866A      3.291921  
     867A      3.303054   868A      3.305657   869A      3.311226  
     870A      3.312283   871A      3.323121   872A      3.326442  
     873A      3.332702   874A      3.333360   875A      3.340510  
     876A      3.346254   877A      3.349145   878A      3.355629  
     879A      3.361699   880A      3.368003   881A      3.369612  
     882A      3.385339   883A      3.387220   884A      3.393479  
     885A      3.394286   886A      3.407539   887A      3.412676  
     888A      3.419808   889A      3.433155   890A      3.437854  
     891A      3.451951   892A      3.462077   893A      3.471525  
     894A      3.507962   895A      3.524310   896A      3.542313  
     897A      3.580577   898A      3.592388   899A      3.607105  
     900A      3.613324   901A      3.618397   902A      3.633518  
     903A      3.654458   904A      3.663900   905A      3.667328  
     906A      3.677230   907A      3.682398   908A      3.688761  
     909A      3.764085   910A      3.773871   911A      3.777751  
     912A      3.787039   913A      3.801009   914A      3.813310  
     915A      3.817041   916A      3.857594   917A      3.860089  
     918A      3.870396   919A      3.880790   920A      3.884587  
     921A      3.906782   922A      3.911556   923A      3.926952  
     924A      3.928410   925A      3.938913   926A      3.943908  
     927A      3.955794   928A      3.973584   929A      3.975699  
     930A      3.986131   931A      3.986399   932A      4.005535  
     933A      4.049468   934A      4.054997   935A      4.068780  
     936A      4.080128   937A      4.097686   938A      4.099883  
     939A      4.121820   940A      4.124620   941A      4.137341  
     942A      4.159837   943A      4.171822   944A      4.188587  
     945A      4.197941   946A      4.202829   947A      4.209105  
     948A      4.215716   949A      4.254379   950A      4.302939  
     951A      4.357291   952A      4.369211   953A      4.380504  
     954A      4.383910   955A      4.412741   956A      4.419952  
     957A      4.428317   958A      4.434351   959A      4.440252  
     960A      4.450025   961A      4.459106   962A      4.483816  
     963A      4.519379   964A      4.544181   965A      4.552182  
     966A      4.584558   967A      4.594930   968A      4.608063  
     969A      4.619186   970A      4.673382   971A      4.714818  
     972A      4.769694   973A      4.775525   974A      4.788096  
     975A      4.909585   976A      4.941823   977A      5.005020  
     978A      5.048547   979A      5.221148   980A      5.247919  
     981A      5.264466   982A      5.283028   983A      5.288357  
     984A      5.331763   985A      5.340393   986A      5.385350  
     987A      5.419581   988A      5.591442   989A      5.688826  
     990A      5.719269   991A      5.799469   992A      5.856273  
     993A      5.864271   994A      6.387288   995A     24.777018  
     996A     24.801837   997A     24.814295   998A     24.821886  
     999A     24.842708  1000A     24.850080  1001A     24.938861  
    1002A     24.951965  1003A     25.010368  1004A     25.019479  
    1005A     25.044383  1006A     25.069906  1007A     25.071979  
    1008A     25.092769  1009A     25.101192  1010A     25.118664  
    1011A     25.129225  1012A     25.137967  1013A     25.141352  
    1014A     25.152590  1015A     25.173114  1016A     25.204311  
    1017A     25.215041  1018A     25.235312  1019A     25.246792  
    1020A     25.251257  1021A     25.252121  1022A     25.324063  
    1023A     25.328082  1024A     36.950325  1025A     36.989181  
    1026A     37.022758  1027A     37.069246  1028A     37.077040  
    1029A     37.136825  1030A     37.155033  1031A     51.764481  

    Final Occupation by Irrep:
              A 
    DOCC [   131 ]

  @DF-RHF Final Energy: -1572.37205576492192

   => Energetics <=

    Nuclear Repulsion Energy =           3747.5604637063283917
    One-Electron Energy =               -9593.6472211360887741
    Two-Electron Energy =                4273.7147016648386852
    Total Energy =                      -1572.3720557649221519

Computation Completed


Properties will be evaluated at   0.000000,   0.000000,   0.000000 [a0]

Properties computed using the SCF density matrix

  Nuclear Dipole Moment: [e a0]
     X:   -35.5748      Y:     3.1500      Z:    12.9782

  Electronic Dipole Moment: [e a0]
     X:    36.0631      Y:    -0.5586      Z:   -12.8912

  Dipole Moment: [e a0]
     X:     0.4884      Y:     2.5914      Z:     0.0871     Total:     2.6385

  Dipole Moment: [D]
     X:     1.2413      Y:     6.5867      Z:     0.2213     Total:     6.7063


*** tstop() called on node40.bme.utexas.edu at Tue Apr 14 20:26:53 2020
Module time:
	user time   =    3849.11 seconds =      64.15 minutes
	system time =     126.68 seconds =       2.11 minutes
	total time  =        997 seconds =      16.62 minutes
Total time:
	user time   =    3849.11 seconds =      64.15 minutes
	system time =     126.68 seconds =       2.11 minutes
	total time  =        997 seconds =      16.62 minutes

*** tstart() called on node40.bme.utexas.edu
*** at Tue Apr 14 20:26:53 2020


  //>>>>>>>>>>>>>>>>>>>>>>>>>>>>>>>>>>>//
  //               DFMP2               //
  //<<<<<<<<<<<<<<<<<<<<<<<<<<<<<<<<<<<//

   => Loading Basis Set <=

    Name: (6-311++G** AUX)
    Role: RIFIT
    Keyword: DF_BASIS_MP2
    atoms 1-4, 6-9, 11, 14-19, 21-28, 30-31, 33-35, 37 entry C          line   148 file /home/bdw2292/miniconda3/envs/p4env/share/psi4/basis/aug-cc-pvtz-ri.gbs 
    atoms 5, 10, 12-13, 20, 29, 32                     entry N          line   206 file /home/bdw2292/miniconda3/envs/p4env/share/psi4/basis/aug-cc-pvtz-ri.gbs 
    atoms 36                                           entry O          line   264 file /home/bdw2292/miniconda3/envs/p4env/share/psi4/basis/aug-cc-pvtz-ri.gbs 
    atoms 38-68                                        entry H          line    30 file /home/bdw2292/miniconda3/envs/p4env/share/psi4/basis/aug-cc-pvtz-ri.gbs 

	 --------------------------------------------------------
	                          DF-MP2                         
	      2nd-Order Density-Fitted Moller-Plesset Theory     
	              RMP2 Wavefunction,   6 Threads             
	                                                         
	        Rob Parrish, Justin Turney, Andy Simmonett,      
	           Ed Hohenstein, and C. David Sherrill          
	 --------------------------------------------------------

   => Auxiliary Basis Set <=

  Basis Set: (6-311++G** AUX)
    Blend: AUG-CC-PVTZ-RI
    Number of shells: 1470
    Number of basis function: 5348
    Number of Cartesian functions: 6737
    Spherical Harmonics?: true
    Max angular momentum: 4

	 --------------------------------------------------------
	                 NBF =  1031, NAUX =  5348
	 --------------------------------------------------------
	   CLASS    FOCC     OCC    AOCC    AVIR     VIR    FVIR
	   PAIRS      37     131      94     900     900       0
	 --------------------------------------------------------

	-----------------------------------------------------------
	 ==================> DF-MP2 Energies <==================== 
	-----------------------------------------------------------
	 Reference Energy          =   -1572.3720557649219245 [Eh]
	 Singles Energy            =      -0.0000000000000000 [Eh]
	 Same-Spin Energy          =      -1.4710725842178984 [Eh]
	 Opposite-Spin Energy      =      -4.0473115047573396 [Eh]
	 Correlation Energy        =      -5.5183840889752380 [Eh]
	 Total Energy              =   -1577.8904398538970781 [Eh]
	-----------------------------------------------------------
	 ================> DF-SCS-MP2 Energies <================== 
	-----------------------------------------------------------
	 SCS Same-Spin Scale       =       0.3333333333333333 [-]
	 SCS Opposite-Spin Scale   =       1.2000000000000000 [-]
	 SCS Same-Spin Energy      =      -0.4903575280726328 [Eh]
	 SCS Opposite-Spin Energy  =      -4.8567738057088077 [Eh]
	 SCS Correlation Energy    =      -5.3471313337814408 [Eh]
	 SCS Total Energy          =   -1577.7191870987032871 [Eh]
	-----------------------------------------------------------


*** tstop() called on node40.bme.utexas.edu at Tue Apr 14 20:34:47 2020
Module time:
	user time   =    2625.15 seconds =      43.75 minutes
	system time =      20.71 seconds =       0.35 minutes
	total time  =        474 seconds =       7.90 minutes
Total time:
	user time   =    6474.26 seconds =     107.90 minutes
	system time =     147.39 seconds =       2.46 minutes
	total time  =       1471 seconds =      24.52 minutes


Properties will be evaluated at   0.000000,   0.000000,   0.000000 [a0]
OEProp: No title given, name of density matrix used for the following properties is 'SCF density'


  Wiberg Bond Indices using Orthogonal Lowdin Orbitals:

  Irrep: 1 Size: 68 x 68

                 1                   2                   3                   4                   5

    1     0.00000000000000     1.46419014042639     0.12509557380229     0.14024421087797     0.12383609934728
    2     1.46419014042639     0.00000000000000     1.40090692989859     0.12867210764913     0.12154587986472
    3     0.12509557380229     1.40090692989859     0.00000000000000     1.36193681074603     0.11834520200915
    4     0.14024421087797     0.12867210764913     1.36193681074603     0.00000000000000     1.65828515684369
    5     0.12383609934728     0.12154587986472     0.11834520200915     1.65828515684369     0.00000000000000
    6     1.46560206836099     0.13820381389647     0.13564820417472     0.15320126092088     1.62566118479798
    7     0.01459409494104     0.10271169660945     1.02061050865071     0.10424125212346     0.01387663807739
    8     0.00356802805434     0.04163591201297     0.09831781646582     0.02399406149574     0.00218016850943
    9     0.00036509344854     0.00470228890378     0.01474050459470     0.00412127614340     0.00067839016671
   10     0.00041152373306     0.00538674761539     0.00576742734957     0.00605724365704     0.00031925740712
   11     0.00087093892191     0.00332848839395     0.01798475086869     0.00683287914632     0.00042377016393
   12     0.00278527433270     0.02197917370154     0.11883986670416     0.06178502364064     0.00404685578151
   13     0.00016609005407     0.00047506918284     0.00162187276115     0.00091926935330     0.00008674407505
   14     0.00003081821940     0.00009187272356     0.00054725294079     0.00119878844411     0.00010224681283
   15     0.00001085260784     0.00002285138670     0.00006475571748     0.00014072221187     0.00001525138300
   16     0.00000194163146     0.00000551237462     0.00003698317323     0.00022432198498     0.00001076473927
   17     0.00001221799633     0.00001920119146     0.00005081031156     0.00025661317375     0.00003529595905
   18     0.00002007845174     0.00004576887102     0.00026137819021     0.00156400670591     0.00021226893052
   19     0.00015131501017     0.00023378328200     0.00186452699585     0.01002254308757     0.00062045125562
   20     0.00003997349283     0.00005569469392     0.00028002558990     0.00265290862928     0.00066588492964
   21     0.00001312369733     0.00001715680129     0.00006949901160     0.00048538471135     0.00024092501923
   22     0.00005171825549     0.00003614635628     0.00007220991488     0.00074025482602     0.00172642001610
   23     0.00057940244291     0.00037451448093     0.00056688485628     0.00887508401914     0.02701173936270
   24     0.00024778245709     0.00022939117511     0.00031247240988     0.00160693749323     0.01303784841009
   25     0.00002068836230     0.00001135793616     0.00002034440450     0.00015280818055     0.00065382874446
   26     0.00000843032393     0.00000492778408     0.00000937255463     0.00014192066257     0.00039851456563
   27     0.00000859032072     0.00000464263994     0.00001286671511     0.00018322496910     0.00049678770973
   28     0.00000497622139     0.00000224114386     0.00000346548106     0.00002358965366     0.00008333060829
   29     0.00000271647038     0.00000147384060     0.00000189952281     0.00000597543852     0.00002100799380
   30     0.00002141505621     0.00001318316560     0.00001880650036     0.00002751204983     0.00008752652535
   31     0.00002944517005     0.00006725236278     0.00007234407168     0.00003903590287     0.00016764333492
   32     0.00000611661017     0.00000239092501     0.00000275200039     0.00002252676853     0.00002161380867
   33     0.00000147441598     0.00000044642142     0.00000059897733     0.00000248200257     0.00000385061727
   34     0.00000255862283     0.00000122900828     0.00000114664124     0.00000738273665     0.00001494950819
   35     0.00000154299154     0.00000046954915     0.00000070372666     0.00000350306470     0.00000847012239
   36     0.00000160909623     0.00000256427851     0.00001260915787     0.00012116716223     0.00004407018024
   37     0.00000207973480     0.00000743341718     0.00003274883907     0.00003476014116     0.00000289411793
   38     0.88614500697427     0.07931422634850     0.01177120270941     0.00634887072951     0.01070367341179
   39     0.07744600804784     0.87042585073967     0.07283594318627     0.01179180367228     0.00394730497109
   40     0.00560727952530     0.01049438214096     0.06910230467932     0.84964131327939     0.08656244371204
   41     0.07677438594786     0.01177116253163     0.00603306535250     0.01592329685659     0.08817514409041
   42     0.00106966447203     0.01413246579878     0.01432809279387     0.00136976101726     0.00028551855276
   43     0.00004370337062     0.00027652095151     0.00143288648380     0.00031717738721     0.00007700134257
   44     0.00002469616281     0.00008236240362     0.00034865217336     0.00009083530073     0.00000772417302
   45     0.00000030543227     0.00000100002686     0.00000637597243     0.00001682877001     0.00000124869990
   46     0.00000077627029     0.00000157120281     0.00000713077627     0.00002425153161     0.00000799703668
   47     0.00012163079052     0.00019445476256     0.00188507184727     0.00769523545035     0.00057705608586
   48     0.00006168293001     0.00003648161204     0.00009040424177     0.00120981153166     0.00035599731055
   49     0.00050642310078     0.00021837298390     0.00047311643604     0.00747005480412     0.01739149149070
   50     0.00011213445411     0.00010238666838     0.00015706782663     0.00046601057531     0.00410028783565
   51     0.00000092035673     0.00000060061864     0.00000206465026     0.00001773922418     0.00003277693591
   52     0.00000177795321     0.00000077301344     0.00000192337237     0.00001293915449     0.00004834515566
   53     0.00000370652508     0.00000153441244     0.00000127838994     0.00000375190128     0.00001702779801
   54     0.00000043464973     0.00000008930485     0.00000045017420     0.00000820081736     0.00000755294175
   55     0.00002044119365     0.00000875628104     0.00001591249488     0.00001110758927     0.00004795179792
   56     0.00000058786322     0.00000020191538     0.00000042812225     0.00001010763626     0.00000993038056
   57     0.00000688599058     0.00001459743058     0.00002160719770     0.00000654055157     0.00002251685796
   58     0.00000761798887     0.00003759104165     0.00002405962564     0.00004476060918     0.00026022343654
   59     0.00000033009361     0.00000014705387     0.00000018975384     0.00000037436443     0.00000111629179
   60     0.00000020469926     0.00000008183654     0.00000016511261     0.00000017784950     0.00000047547877
   61     0.00000015246969     0.00000003932589     0.00000004626424     0.00000009030893     0.00000046727523
   62     0.00000011601069     0.00000006100237     0.00000008116691     0.00000072738159     0.00000129333579
   63     0.00000132516649     0.00000066173167     0.00000093164089     0.00000584826776     0.00001545234507
   64     0.00000053201875     0.00000013509516     0.00000014744160     0.00000095994760     0.00000219904278
   65     0.00000019455299     0.00000005830880     0.00000011114319     0.00000132003044     0.00000162360800
   66     0.00000081224149     0.00000209811358     0.00001194738796     0.00000876125746     0.00000052450454
   67     0.00000097655063     0.00000268207934     0.00000953627288     0.00000810538403     0.00000080354726
   68     0.00000022852711     0.00000068447970     0.00000364267311     0.00000787919228     0.00000044475064

                 6                   7                   8                   9                  10

    1     1.46560206836099     0.01459409494104     0.00356802805434     0.00036509344854     0.00041152373306
    2     0.13820381389647     0.10271169660945     0.04163591201297     0.00470228890378     0.00538674761539
    3     0.13564820417472     1.02061050865071     0.09831781646582     0.01474050459470     0.00576742734957
    4     0.15320126092088     0.10424125212346     0.02399406149574     0.00412127614340     0.00605724365704
    5     1.62566118479798     0.01387663807739     0.00218016850943     0.00067839016671     0.00031925740712
    6     0.00000000000000     0.00970460799301     0.00686977448297     0.00120968581748     0.00337190609917
    7     0.00970460799301     0.00000000000000     1.38790080068273     0.14629884318677     0.11227861413227
    8     0.00686977448297     1.38790080068273     0.00000000000000     1.43206295053295     0.13063977236554
    9     0.00120968581748     0.14629884318677     1.43206295053295     0.00000000000000     1.66226787387550
   10     0.00337190609917     0.11227861413227     0.13063977236554     1.66226787387550     0.00000000000000
   11     0.00083981196684     0.14192987268426     0.11316794536217     0.15238743763753     1.50662029386217
   12     0.00601254896801     1.53157109663388     0.12657413142805     0.11096425262550     0.11007690178270
   13     0.00007088571036     0.01929414577552     0.02061158070701     0.02438185676545     0.16085237464967
   14     0.00004050857729     0.00285020751669     0.00248598978190     0.00328304354079     0.01700951498316
   15     0.00000546499701     0.00049507392107     0.00146395237928     0.00094642895354     0.00316027064404
   16     0.00000345377960     0.00015488836837     0.00019261818268     0.00016171683781     0.00047441586085
   17     0.00000604621178     0.00024727420775     0.00131198891111     0.00044609608593     0.00128179278172
   18     0.00004075459141     0.00052078123831     0.00026151211095     0.00014115814349     0.00041040598755
   19     0.00018345447316     0.00544489035224     0.00308705406696     0.00150281990301     0.00427927092593
   20     0.00008022730095     0.00012193729599     0.00003078670284     0.00001830859414     0.00006154998737
   21     0.00003010195665     0.00002442874481     0.00001019049145     0.00000536979271     0.00001832819391
   22     0.00017211794787     0.00001051549047     0.00000297962822     0.00000155271188     0.00000399562605
   23     0.00245206042491     0.00008674352665     0.00001785250676     0.00000493791046     0.00000424194184
   24     0.00265241497923     0.00003459403836     0.00001728168951     0.00000282589205     0.00000286165725
   25     0.00025275391286     0.00000355580016     0.00000173765041     0.00000032435593     0.00000039027493
   26     0.00011374102949     0.00000170826034     0.00000045503534     0.00000019164890     0.00000027195477
   27     0.00009951569324     0.00000283848143     0.00000107407279     0.00000053369944     0.00000137608519
   28     0.00005615086490     0.00000095199308     0.00000025824178     0.00000004132140     0.00000007897091
   29     0.00002244432890     0.00000028314937     0.00000017028325     0.00000002630180     0.00000004563375
   30     0.00008855478953     0.00000148358328     0.00000161831569     0.00000021527243     0.00000084813412
   31     0.00012589530155     0.00000369226078     0.00000536942964     0.00000103344249     0.00000229634162
   32     0.00003884201078     0.00000059593379     0.00000019107433     0.00000004975722     0.00000007715361
   33     0.00000917386258     0.00000018202048     0.00000004638837     0.00000001306446     0.00000001472910
   34     0.00001295427705     0.00000020972462     0.00000009998272     0.00000003444567     0.00000003319427
   35     0.00001449203999     0.00000011263710     0.00000009325375     0.00000001743720     0.00000003613941
   36     0.00000810216420     0.00001086152911     0.00001577206841     0.00000578795860     0.00001885275588
   37     0.00000188216839     0.00014533489019     0.00013942194797     0.00013804381723     0.00077095343019
   38     0.08246939241919     0.00128529711839     0.00024839136807     0.00003894984624     0.00002563437976
   39     0.01171813960100     0.01605283301555     0.01484653227295     0.00115490063807     0.00040002032136
   40     0.01467935764159     0.01568952740281     0.00167453114263     0.00039694918301     0.00061008912024
   41     0.87878631806376     0.00053996135936     0.00026614223372     0.00005260655451     0.00010515604691
   42     0.00047901630003     0.07525372465826     0.87640470334155     0.08084712464235     0.01047647752748
   43     0.00004311914297     0.01168381410183     0.07506185724820     0.87540701374935     0.09032789606210
   44     0.00001163818878     0.00206592907022     0.00203521388066     0.00373413986366     0.03198056735315
   45     0.00000033837950     0.00001816376979     0.00000738166779     0.00002303857661     0.00005157471706
   46     0.00000109824836     0.00002286902999     0.00004226039636     0.00001657845071     0.00005326494961
   47     0.00019209878802     0.00391328754204     0.00087063031812     0.00040330445761     0.00072442292109
   48     0.00004783994063     0.00005015204217     0.00002021585734     0.00000835048681     0.00001679618646
   49     0.00180642091013     0.00007773224729     0.00001628597660     0.00000470766645     0.00000430365441
   50     0.00184191044018     0.00001513889319     0.00000722191442     0.00000129872999     0.00000105528154
   51     0.00000661410238     0.00000016811169     0.00000007139037     0.00000002125757     0.00000002508829
   52     0.00001248043916     0.00000069865521     0.00000018687423     0.00000007833429     0.00000018419499
   53     0.00002237534241     0.00000024375047     0.00000007872632     0.00000001164699     0.00000003936762
   54     0.00000326940058     0.00000007319750     0.00000001778604     0.00000000557866     0.00000001295954
   55     0.00006882878056     0.00000122584628     0.00000155521320     0.00000020564608     0.00000077849495
   56     0.00002178769174     0.00000008618285     0.00000002397752     0.00000000545703     0.00000001391838
   57     0.00002032482412     0.00000093542766     0.00000118951063     0.00000023233346     0.00000040123812
   58     0.00008358757033     0.00000292548804     0.00000127976766     0.00000028972807     0.00000092969161
   59     0.00000338854511     0.00000003670519     0.00000002320492     0.00000000632339     0.00000000674960
   60     0.00000053179333     0.00000004312012     0.00000000812432     0.00000000370425     0.00000000521938
   61     0.00000033411060     0.00000000999566     0.00000000515360     0.00000000182282     0.00000000231186
   62     0.00000054511599     0.00000002827038     0.00000001440088     0.00000000264938     0.00000000445210
   63     0.00000706109762     0.00000023106008     0.00000008059423     0.00000002746409     0.00000005369985
   64     0.00001040559610     0.00000003164909     0.00000004790316     0.00000000213750     0.00000000690752
   65     0.00000098099090     0.00000002388881     0.00000001044608     0.00000000321647     0.00000000354422
   66     0.00000041017778     0.00004608188082     0.00007955844784     0.00004555043917     0.00027868320554
   67     0.00000122006814     0.00004272158646     0.00010408036680     0.00004003429468     0.00029408878781
   68     0.00000015412140     0.00001436948549     0.00000509073697     0.00000422005016     0.00003279049642

                11                  12                  13                  14                  15

    1     0.00087093892191     0.00278527433270     0.00016609005407     0.00003081821940     0.00001085260784
    2     0.00332848839395     0.02197917370154     0.00047506918284     0.00009187272356     0.00002285138670
    3     0.01798475086869     0.11883986670416     0.00162187276115     0.00054725294079     0.00006475571748
    4     0.00683287914632     0.06178502364064     0.00091926935330     0.00119878844411     0.00014072221187
    5     0.00042377016393     0.00404685578151     0.00008674407505     0.00010224681283     0.00001525138300
    6     0.00083981196684     0.00601254896801     0.00007088571036     0.00004050857729     0.00000546499701
    7     0.14192987268426     1.53157109663388     0.01929414577552     0.00285020751669     0.00049507392107
    8     0.11316794536217     0.12657413142805     0.02061158070701     0.00248598978190     0.00146395237928
    9     0.15238743763753     0.11096425262550     0.02438185676545     0.00328304354079     0.00094642895354
   10     1.50662029386217     0.11007690178270     0.16085237464967     0.01700951498316     0.00316027064404
   11     0.00000000000000     1.53501596105908     1.27192625449955     0.08252010745254     0.01793349576923
   12     1.53501596105908     0.00000000000000     0.14200252827146     0.02905750925695     0.00346595294963
   13     1.27192625449955     0.14200252827146     0.00000000000000     1.12575086659148     0.10608036536559
   14     0.08252010745254     0.02905750925695     1.12575086659148     0.00000000000000     1.31761025217252
   15     0.01793349576923     0.00346595294963     0.10608036536559     1.31761025217252     0.00000000000000
   16     0.00238086592961     0.00111616065714     0.01430889941452     0.12514546456861     1.44134407456394
   17     0.00414230450902     0.00248288965943     0.01198030173430     0.12011981896908     0.12383356594752
   18     0.00239437463033     0.00462210748560     0.01311784930184     0.12278505208786     0.12148053114922
   19     0.02809376524719     0.05305149425268     0.11013384888305     1.40117566146880     0.11989776992342
   20     0.00033561457900     0.00104944541024     0.00131068726884     0.01486083171299     0.01063589454966
   21     0.00006465270896     0.00015973887937     0.00031133165368     0.00278043159677     0.00529402634631
   22     0.00001275883702     0.00003806572375     0.00004947364802     0.00034165473763     0.00036078450300
   23     0.00001958526329     0.00015451533448     0.00001768726648     0.00013894052904     0.00025186712700
   24     0.00000283603545     0.00001652670794     0.00000293003359     0.00001487018601     0.00002645935835
   25     0.00000083071400     0.00000359239080     0.00000278578439     0.00002534796439     0.00010723415364
   26     0.00000055066207     0.00000109583571     0.00000192817410     0.00001640931250     0.00003744139570
   27     0.00000308096979     0.00000486511446     0.00001551164935     0.00010430181684     0.00027894379349
   28     0.00000014822644     0.00000063036159     0.00000020714809     0.00000214222445     0.00000738665332
   29     0.00000005396892     0.00000022032053     0.00000014803542     0.00000156837900     0.00000582023047
   30     0.00000017241992     0.00000129230225     0.00000016521039     0.00000044037285     0.00000087933623
   31     0.00000052873386     0.00000351492673     0.00000023751292     0.00000052237989     0.00000042674148
   32     0.00000019406323     0.00000052015172     0.00000006041068     0.00000014843991     0.00000025586357
   33     0.00000004418662     0.00000008049299     0.00000002645310     0.00000010910234     0.00000009136623
   34     0.00000009388048     0.00000031194092     0.00000006285554     0.00000070090285     0.00000094693438
   35     0.00000003502023     0.00000011446402     0.00000004323964     0.00000039155305     0.00000088643801
   36     0.00004759277268     0.00005466342373     0.00018931495458     0.00133803451176     0.00290136353767
   37     0.00362316263165     0.00078667860451     0.03808415126427     0.09637654734712     1.05899488611005
   38     0.00008976556661     0.00031347723223     0.00001600447632     0.00000652369569     0.00000078494807
   39     0.00028810726174     0.00108679764741     0.00006749255068     0.00002503736215     0.00000396620670
   40     0.00274366764997     0.02525807067653     0.00040674795592     0.00110167989200     0.00014880688902
   41     0.00004284356076     0.00025225445693     0.00000549496498     0.00000370917128     0.00000053764444
   42     0.00575306407223     0.01072350392322     0.00104427246331     0.00012001127383     0.00006543885160
   43     0.01584096132235     0.00399936071379     0.00136968987247     0.00038701038321     0.00006265627892
   44     0.07411938642596     0.01155504831287     0.93347059593273     0.05951975166360     0.01502109214789
   45     0.00036691432049     0.00006037865679     0.00115193139243     0.01142741520279     0.07494251809208
   46     0.00014851372919     0.00015161616974     0.00052541798546     0.00525997348230     0.01061503972302
   47     0.00938238293919     0.03519503671421     0.01567320445564     0.07338238602399     0.00977094772171
   48     0.00009211462971     0.00038782574546     0.00017402005149     0.00189998047319     0.00139228859052
   49     0.00001640426692     0.00011619905072     0.00000749069785     0.00004795402506     0.00007714423579
   50     0.00000095696146     0.00000457990935     0.00000044294790     0.00000182207121     0.00000133746863
   51     0.00000006102357     0.00000016747458     0.00000039343083     0.00000251064764     0.00000431113529
   52     0.00000073657131     0.00000087215648     0.00000281802943     0.00001983202787     0.00001720664973
   53     0.00000003247783     0.00000010886729     0.00000008133858     0.00000044341079     0.00000120076017
   54     0.00000001495276     0.00000004191902     0.00000004788925     0.00000030907193     0.00000118580257
   55     0.00000010190911     0.00000074096326     0.00000005925874     0.00000007559406     0.00000010651582
   56     0.00000001096340     0.00000011152186     0.00000000946184     0.00000006376722     0.00000025849425
   57     0.00000007483180     0.00000071184510     0.00000001064531     0.00000004405022     0.00000006179491
   58     0.00000058477028     0.00000076276889     0.00000007285213     0.00000067577957     0.00000208918245
   59     0.00000000973464     0.00000001057228     0.00000000865497     0.00000003704171     0.00000001663400
   60     0.00000000646343     0.00000000897121     0.00000000229869     0.00000000566241     0.00000000840107
   61     0.00000000209014     0.00000000814419     0.00000000194214     0.00000000629674     0.00000000899570
   62     0.00000000903084     0.00000004792716     0.00000000626187     0.00000003275662     0.00000008094454
   63     0.00000007760769     0.00000074414495     0.00000006874832     0.00000077184813     0.00000360853004
   64     0.00000000697048     0.00000003091886     0.00000000822990     0.00000010275190     0.00000027875685
   65     0.00000000493010     0.00000002603701     0.00000001536363     0.00000008923050     0.00000008210358
   66     0.00084023626546     0.00027419444320     0.00988541711712     0.01645482291778     0.05720890810295
   67     0.00086015392745     0.00027981920199     0.00946794621119     0.01654993125968     0.05872218414511
   68     0.00023133738335     0.00006091678763     0.00201479288984     0.00892126210528     0.05972566933521

                16                  17                  18                  19                  20

    1     0.00000194163146     0.00001221799633     0.00002007845174     0.00015131501017     0.00003997349283
    2     0.00000551237462     0.00001920119146     0.00004576887102     0.00023378328200     0.00005569469392
    3     0.00003698317323     0.00005081031156     0.00026137819021     0.00186452699585     0.00028002558990
    4     0.00022432198498     0.00025661317375     0.00156400670591     0.01002254308757     0.00265290862928
    5     0.00001076473927     0.00003529595905     0.00021226893052     0.00062045125562     0.00066588492964
    6     0.00000345377960     0.00000604621178     0.00004075459141     0.00018345447316     0.00008022730095
    7     0.00015488836837     0.00024727420775     0.00052078123831     0.00544489035224     0.00012193729599
    8     0.00019261818268     0.00131198891111     0.00026151211095     0.00308705406696     0.00003078670284
    9     0.00016171683781     0.00044609608593     0.00014115814349     0.00150281990301     0.00001830859414
   10     0.00047441586085     0.00128179278172     0.00041040598755     0.00427927092593     0.00006154998737
   11     0.00238086592961     0.00414230450902     0.00239437463033     0.02809376524719     0.00033561457900
   12     0.00111616065714     0.00248288965943     0.00462210748560     0.05305149425268     0.00104944541024
   13     0.01430889941452     0.01198030173430     0.01311784930184     0.11013384888305     0.00131068726884
   14     0.12514546456861     0.12011981896908     0.12278505208786     1.40117566146880     0.01486083171299
   15     1.44134407456394     0.12383356594752     0.12148053114922     0.11989776992342     0.01063589454966
   16     0.00000000000000     1.44479807034887     0.13310560251166     0.12571817953743     0.01369505376815
   17     1.44479807034887     0.00000000000000     1.40231481448518     0.12247614781263     0.10555106762702
   18     0.13310560251166     1.40231481448518     0.00000000000000     1.36772188863294     1.12339154927670
   19     0.12571817953743     0.12247614781263     1.36772188863294     0.00000000000000     0.12489691795536
   20     0.01369505376815     0.10555106762702     1.12339154927670     0.12489691795536     0.00000000000000
   21     0.00283801519600     0.03048643788741     0.08750986553093     0.02299283582998     1.31250287527820
   22     0.00036691493623     0.00336066480282     0.01466816272754     0.00215383194835     0.10440042932661
   23     0.00014489608592     0.00106759692826     0.00390341814364     0.00143651782684     0.04201350146832
   24     0.00002055838453     0.00015119261484     0.00042316110630     0.00014440282856     0.00364666443641
   25     0.00001952496271     0.00022119159380     0.00045166213898     0.00019715235956     0.00335684757948
   26     0.00002210038982     0.00013678933129     0.00049617143175     0.00010634364752     0.00248443426529
   27     0.00009449193771     0.00086220703550     0.00236290213344     0.00065433369969     0.01787322339923
   28     0.00000188505293     0.00001818570624     0.00004069976136     0.00001708103454     0.00025940270862
   29     0.00000102227283     0.00001008023028     0.00002224796553     0.00000953330714     0.00015570188307
   30     0.00000027462328     0.00000228948487     0.00000468389030     0.00000238774419     0.00002843124985
   31     0.00000030108108     0.00000257854739     0.00000542308951     0.00000402353628     0.00003799457582
   32     0.00000014937999     0.00000090490919     0.00000198338385     0.00000088171147     0.00001132365064
   33     0.00000006031082     0.00000034154027     0.00000073012051     0.00000047906414     0.00000211764448
   34     0.00000041283029     0.00000271661495     0.00000614741929     0.00000301365298     0.00003529577074
   35     0.00000036719216     0.00000283488649     0.00000659761952     0.00000220719656     0.00003634731877
   36     0.00341386347531     0.04286773320773     0.03454549955185     0.00555004419341     0.19378078474047
   37     0.11537839842956     0.01433515245668     0.00743213589604     0.01399734873171     0.00067055436438
   38     0.00000032435403     0.00000064650188     0.00000512628567     0.00002189693992     0.00000567078035
   39     0.00000144846746     0.00000191224419     0.00000577116979     0.00003597592231     0.00000587978219
   40     0.00019814065337     0.00021431845311     0.00155110128326     0.00810637229088     0.00183087456384
   41     0.00000036552168     0.00000055580820     0.00000240719499     0.00001293003988     0.00000559843177
   42     0.00001050923645     0.00004694399821     0.00002835743175     0.00019481760453     0.00000646670499
   43     0.00001571733504     0.00001189543596     0.00001508171184     0.00010511843479     0.00000179277735
   44     0.00152172512286     0.00110366557258     0.00129321456061     0.01040025633644     0.00024254924500
   45     0.87158585581945     0.07910700951537     0.01176756074190     0.00565299925662     0.00105811337820
   46     0.07703579761704     0.86299283775452     0.07565757478117     0.01128013167585     0.01530508134817
   47     0.00568585866181     0.01026666513197     0.07155671354354     0.83940271149910     0.02432779883198
   48     0.00140730251233     0.01093659520992     0.06273184789452     0.02014687565374     0.93727905115330
   49     0.00005430647730     0.00030493472136     0.00140857022363     0.00080653746045     0.01479866540487
   50     0.00000171071879     0.00001275019829     0.00003270236293     0.00001023908856     0.00020181369652
   51     0.00000307420987     0.00001918375988     0.00006546438981     0.00001851541134     0.00028473565092
   52     0.00002248268648     0.00013418396085     0.00026283660438     0.00006926562512     0.00165642510385
   53     0.00000043646185     0.00000386870907     0.00000856802592     0.00000292607831     0.00003728972265
   54     0.00000038982199     0.00000368002368     0.00000778036290     0.00000313708232     0.00004697630653
   55     0.00000007294059     0.00000030060855     0.00000088373989     0.00000028895035     0.00000428160395
   56     0.00000005382859     0.00000045416599     0.00000078992733     0.00000049511731     0.00000588238511
   57     0.00000002410004     0.00000015580106     0.00000028169024     0.00000027437023     0.00000197075175
   58     0.00000075758807     0.00000968690692     0.00001504517852     0.00001016558145     0.00004029797829
   59     0.00000001347472     0.00000005360890     0.00000015940191     0.00000010797225     0.00000039089945
   60     0.00000000426167     0.00000002738992     0.00000009310394     0.00000004808315     0.00000027685428
   61     0.00000001396170     0.00000003183090     0.00000009780619     0.00000002573061     0.00000030270762
   62     0.00000002317571     0.00000015495426     0.00000035817020     0.00000020477454     0.00000220894489
   63     0.00000078385093     0.00000828037678     0.00001432035691     0.00000875207279     0.00005633406190
   64     0.00000009609010     0.00000059656101     0.00000074523720     0.00000078249741     0.00000636006010
   65     0.00000009954733     0.00000054232917     0.00000188778723     0.00000045118789     0.00000939630815
   66     0.01471265298136     0.00124678460573     0.00287604750480     0.00118999667533     0.00033663288302
   67     0.01535984487688     0.00124617183234     0.00294543334332     0.00127075456274     0.00030709312431
   68     0.02382914453209     0.00190728658104     0.00054914306273     0.00109383254412     0.00008503063054

                21                  22                  23                  24                  25

    1     0.00001312369733     0.00005171825549     0.00057940244291     0.00024778245709     0.00002068836230
    2     0.00001715680129     0.00003614635628     0.00037451448093     0.00022939117511     0.00001135793616
    3     0.00006949901160     0.00007220991488     0.00056688485628     0.00031247240988     0.00002034440450
    4     0.00048538471135     0.00074025482602     0.00887508401914     0.00160693749323     0.00015280818055
    5     0.00024092501923     0.00172642001610     0.02701173936270     0.01303784841009     0.00065382874446
    6     0.00003010195665     0.00017211794787     0.00245206042491     0.00265241497923     0.00025275391286
    7     0.00002442874481     0.00001051549047     0.00008674352665     0.00003459403836     0.00000355580016
    8     0.00001019049145     0.00000297962822     0.00001785250676     0.00001728168951     0.00000173765041
    9     0.00000536979271     0.00000155271188     0.00000493791046     0.00000282589205     0.00000032435593
   10     0.00001832819391     0.00000399562605     0.00000424194184     0.00000286165725     0.00000039027493
   11     0.00006465270896     0.00001275883702     0.00001958526329     0.00000283603545     0.00000083071400
   12     0.00015973887937     0.00003806572375     0.00015451533448     0.00001652670794     0.00000359239080
   13     0.00031133165368     0.00004947364802     0.00001768726648     0.00000293003359     0.00000278578439
   14     0.00278043159677     0.00034165473763     0.00013894052904     0.00001487018601     0.00002534796439
   15     0.00529402634631     0.00036078450300     0.00025186712700     0.00002645935835     0.00010723415364
   16     0.00283801519600     0.00036691493623     0.00014489608592     0.00002055838453     0.00001952496271
   17     0.03048643788741     0.00336066480282     0.00106759692826     0.00015119261484     0.00022119159380
   18     0.08750986553093     0.01466816272754     0.00390341814364     0.00042316110630     0.00045166213898
   19     0.02299283582998     0.00215383194835     0.00143651782684     0.00014440282856     0.00019715235956
   20     1.31250287527820     0.10440042932661     0.04201350146832     0.00364666443641     0.00335684757948
   21     0.00000000000000     0.97284054597135     0.10499178802094     0.01448630300651     0.01122362761040
   22     0.97284054597135     0.00000000000000     1.39937959936700     0.12741733276647     0.12388641913221
   23     0.10499178802094     1.39937959936700     0.00000000000000     1.45415722141008     0.12632981661644
   24     0.01448630300651     0.12741733276647     1.45415722141008     0.00000000000000     1.40188287592766
   25     0.01122362761040     0.12388641913221     0.12632981661644     1.40188287592766     0.00000000000000
   26     0.01478676441176     0.12681849068834     0.13016968922654     0.12604912050199     1.39653663508970
   27     0.11130794519124     1.38614396421341     0.12478820772641     0.13151747458030     0.12660570829082
   28     0.00074018627031     0.00915341079215     0.01461873866200     0.10797794802772     1.01613568888325
   29     0.00039060247240     0.00436686455121     0.00208918284571     0.02240462972721     0.08737167679980
   30     0.00008557224447     0.00091615134171     0.00184964933563     0.01545067527832     0.01926751612241
   31     0.00006971273663     0.00118423591317     0.00884629241212     0.02438779839087     0.01553369247970
   32     0.00007940531408     0.00067691501854     0.00096738937216     0.00291672206930     0.00388988485750
   33     0.00000989251171     0.00011917971829     0.00024387722195     0.00069011281873     0.00103216320061
   34     0.00016155395038     0.00301174263512     0.00293285703735     0.00861869838573     0.02229946248989
   35     0.00011968727704     0.00115329069727     0.00116222636607     0.00542786277221     0.02346366508025
   36     2.18080442651432     0.13722179452031     0.02513684968825     0.00310359632530     0.00616500998039
[...]
   15     0.00000025849425     0.00000006179491     0.00000208918245     0.00000001663400     0.00000000840107
   16     0.00000005382859     0.00000002410004     0.00000075758807     0.00000001347472     0.00000000426167
   17     0.00000045416599     0.00000015580106     0.00000968690692     0.00000005360890     0.00000002738992
   18     0.00000078992733     0.00000028169024     0.00001504517852     0.00000015940191     0.00000009310394
   19     0.00000049511731     0.00000027437023     0.00001016558145     0.00000010797225     0.00000004808315
   20     0.00000588238511     0.00000197075175     0.00004029797829     0.00000039089945     0.00000027685428
   21     0.00002302249018     0.00000522006516     0.00006019674445     0.00000181753821     0.00000071472979
   22     0.00019979913312     0.00007621102518     0.00113174122361     0.00001144181448     0.00001051696377
   23     0.00030774998338     0.00024241853162     0.00748072835031     0.00002381377065     0.00002575329143
   24     0.00078064848411     0.00085804229581     0.02058712238263     0.00008121428550     0.00007559736024
   25     0.00141030326390     0.00055504941414     0.00903013633714     0.00016563531288     0.00008865992208
   26     0.00045087615642     0.00014947246401     0.00218501641734     0.00008014568339     0.00003487621668
   27     0.00011058083427     0.00010305954837     0.00175533419130     0.00002128515621     0.00002364823436
   28     0.01211745977828     0.00100123486414     0.00529812251800     0.00063455602111     0.00011595963084
   29     0.06458752459378     0.01203824435599     0.01201432776627     0.00294502964805     0.00064293697309
   30     0.79631796236860     0.05742622923208     0.04718944121690     0.01252483992666     0.00384592986734
   31     0.04998378709270     0.84556544168976     0.83430026561794     0.01627849186707     0.02026141255541
   32     0.01337017149732     0.05208534531873     0.05860931512521     0.06823066876924     0.06298309276449
   33     0.01429769203687     0.02245687480323     0.01111143177638     0.91057790490158     0.92004755009171
   34     0.00773137565331     0.01433055454787     0.01918188692105     0.01622907939637     0.01251913800157
   35     0.02119750685279     0.00195987477865     0.00698492858363     0.01225116313091     0.00166964211294
   36     0.00001400337639     0.00000331453618     0.00003437332451     0.00000079813645     0.00000047053085
   37     0.00000001508493     0.00000000658513     0.00000017831235     0.00000000203197     0.00000000146084
   38     0.00000015538945     0.00000387008756     0.00000102141792     0.00000004054576     0.00000001739923
   39     0.00000003069461     0.00000036543271     0.00000103834191     0.00000001387141     0.00000000501054
   40     0.00000166530930     0.00000189225390     0.00000645690956     0.00000004688576     0.00000002973689
   41     0.00001357708410     0.00000278749498     0.00000979298123     0.00000097610403     0.00000010778864
   42     0.00000000212635     0.00000007959810     0.00000014528346     0.00000000137414     0.00000000056900
   43     0.00000000085335     0.00000000210475     0.00000002493749     0.00000000019917     0.00000000013611
   44     0.00000000154066     0.00000000187635     0.00000002111128     0.00000000052927     0.00000000024874
   45     0.00000000561801     0.00000000156985     0.00000010067242     0.00000000075008     0.00000000019671
   46     0.00000012033979     0.00000007098453     0.00000163030084     0.00000000610771     0.00000000435366
   47     0.00000017259973     0.00000035129879     0.00000269834589     0.00000000737586     0.00000005311040
   48     0.00001470706267     0.00000651378308     0.00002253916798     0.00000054568818     0.00000038555312
   49     0.00004726254675     0.00002264464884     0.00064904363696     0.00000195013817     0.00000219575849
   50     0.00011716005069     0.00031069158359     0.00484568053882     0.00004134723492     0.00002215216327
   51     0.00010774710213     0.00001718353189     0.00011157036749     0.00002873239184     0.00000465185328
   52     0.00001283870880     0.00000350501835     0.00005039742728     0.00000206310505     0.00000134764030
   53     0.00117268196288     0.00008992286584     0.00086120256549     0.00006317289366     0.00001879566419
   54     0.00047842497352     0.00035754077010     0.00030284313006     0.00006605333323     0.00002199157610
   55     0.02121046461904     0.00577532364794     0.00783600351417     0.00048282575551     0.00012760034507
   56     0.00000000000000     0.00950272346596     0.01526095582411     0.00705417818639     0.00148587124292
   57     0.00950272346596     0.00000000000000     0.02235443397122     0.00313385988568     0.00718801299400
   58     0.01526095582411     0.02235443397122     0.00000000000000     0.00089915250163     0.00098858738102
   59     0.00705417818639     0.00313385988568     0.00089915250163     0.00000000000000     0.03484834753087
   60     0.00148587124292     0.00718801299400     0.00098858738102     0.03484834753087     0.00000000000000
   61     0.00060413049255     0.00118515412805     0.00070830487752     0.03492899573897     0.03770064483806
   62     0.00041869112448     0.00121243930539     0.00093230961762     0.00291461425936     0.00113406139107
   63     0.00076011767836     0.00098897935651     0.00506669178679     0.00095169188267     0.00066227337858
   64     0.00540742174733     0.00039506369613     0.00090338675399     0.00672425894504     0.00056705375068
   65     0.00084367185168     0.00045406105297     0.00034347376024     0.00043214330500     0.00022994862321
   66     0.00000001155986     0.00000000299074     0.00000006544700     0.00000000048444     0.00000000029179
   67     0.00000001045534     0.00000000273084     0.00000007109506     0.00000000063930     0.00000000013581
   68     0.00000000155063     0.00000000067900     0.00000001072909     0.00000000022742     0.00000000013039

                61                  62                  63                  64                  65

    1     0.00000015246969     0.00000011601069     0.00000132516649     0.00000053201875     0.00000019455299
    2     0.00000003932589     0.00000006100237     0.00000066173167     0.00000013509516     0.00000005830880
    3     0.00000004626424     0.00000008116691     0.00000093164089     0.00000014744160     0.00000011114319
    4     0.00000009030893     0.00000072738159     0.00000584826776     0.00000095994760     0.00000132003044
    5     0.00000046727523     0.00000129333579     0.00001545234507     0.00000219904278     0.00000162360800
    6     0.00000033411060     0.00000054511599     0.00000706109762     0.00001040559610     0.00000098099090
    7     0.00000000999566     0.00000002827038     0.00000023106008     0.00000003164909     0.00000002388881
    8     0.00000000515360     0.00000001440088     0.00000008059423     0.00000004790316     0.00000001044608
    9     0.00000000182282     0.00000000264938     0.00000002746409     0.00000000213750     0.00000000321647
   10     0.00000000231186     0.00000000445210     0.00000005369985     0.00000000690752     0.00000000354422
   11     0.00000000209014     0.00000000903084     0.00000007760769     0.00000000697048     0.00000000493010
   12     0.00000000814419     0.00000004792716     0.00000074414495     0.00000003091886     0.00000002603701
   13     0.00000000194214     0.00000000626187     0.00000006874832     0.00000000822990     0.00000001536363
   14     0.00000000629674     0.00000003275662     0.00000077184813     0.00000010275190     0.00000008923050
   15     0.00000000899570     0.00000008094454     0.00000360853004     0.00000027875685     0.00000008210358
   16     0.00000001396170     0.00000002317571     0.00000078385093     0.00000009609010     0.00000009954733
   17     0.00000003183090     0.00000015495426     0.00000828037678     0.00000059656101     0.00000054232917
   18     0.00000009780619     0.00000035817020     0.00001432035691     0.00000074523720     0.00000188778723
   19     0.00000002573061     0.00000020477454     0.00000875207279     0.00000078249741     0.00000045118789
   20     0.00000030270762     0.00000220894489     0.00005633406190     0.00000636006010     0.00000939630815
   21     0.00000139344873     0.00001659423234     0.00020395810010     0.00004111745514     0.00002290893972
   22     0.00001404588197     0.00014798566070     0.00348479579811     0.00026276078843     0.00022569143660
   23     0.00002464395302     0.00014379722272     0.00313461196963     0.00028584013636     0.00027394903854
   24     0.00005028917815     0.00032990165668     0.00651835417140     0.00056117871102     0.00068016868792
   25     0.00009981447709     0.00086323365550     0.01537846765091     0.00138938726074     0.00713924461051
   26     0.00005976956048     0.00079293674377     0.01822018920761     0.00084852417349     0.00755886465312
   27     0.00003248528608     0.00025802146155     0.00874363409564     0.00031010358879     0.00063594576374
   28     0.00011380973980     0.00111290822198     0.00665528541561     0.01180952480758     0.02125463100039
   29     0.00060248199284     0.01083780248993     0.01185894121105     0.06338410032444     0.05291193398966
   30     0.00168366669171     0.00227359115125     0.00719088858393     0.02111459815967     0.01294323949910
   31     0.01263426746669     0.01342840660021     0.01870589679617     0.00775255217314     0.00216909377432
   32     0.06314122978592     0.05564167017523     0.05872114110383     0.01311742346795     0.01139871734919
   33     0.91994078184503     0.02062800874151     0.01234628787777     0.01385480433760     0.00141154911457
   34     0.01902712654937     0.87247240697919     0.77828705408260     0.04792192946024     0.05614573762638
   35     0.00374867283956     0.05878840164255     0.04361075878646     0.79790199096956     0.85845757010211
   36     0.00000058128090     0.00000488132366     0.00011172156488     0.00001078432815     0.00000758162612
   37     0.00000000136219     0.00000000850926     0.00000023486222     0.00000001923706     0.00000001238626
   38     0.00000002224191     0.00000001369953     0.00000017223375     0.00000006247118     0.00000002244651
   39     0.00000000170924     0.00000000575421     0.00000009115561     0.00000000814054     0.00000000652289
   40     0.00000004247697     0.00000016555479     0.00000235904250     0.00000019174705     0.00000029267988
   41     0.00000026613183     0.00000015707099     0.00000513398642     0.00000654446073     0.00000030461525
   42     0.00000000091563     0.00000000124757     0.00000001330312     0.00000000144506     0.00000000144755
   43     0.00000000007842     0.00000000039406     0.00000000469595     0.00000000070325     0.00000000026412
   44     0.00000000033116     0.00000000083519     0.00000000667665     0.00000000251102     0.00000000329598
   45     0.00000000039635     0.00000000197006     0.00000007791300     0.00000000291903     0.00000001940970
   46     0.00000000952584     0.00000003436264     0.00000107018570     0.00000004609584     0.00000020613682
   47     0.00000000466689     0.00000003457808     0.00000071413705     0.00000011530922     0.00000011901922
   48     0.00000018801641     0.00000318560713     0.00000980312606     0.00000511630382     0.00000182388725
   49     0.00000084912887     0.00000536057013     0.00010439440902     0.00001448549312     0.00002320127726
   50     0.00001303082756     0.00002568121920     0.00062900869050     0.00013186074765     0.00007373196897
   51     0.00001296680098     0.00010679089950     0.00282342981334     0.00012034932480     0.00308078171725
   52     0.00000317951396     0.00002395115787     0.00068797147384     0.00003479957622     0.00003012714612
   53     0.00002021987002     0.00027665863853     0.00042137543200     0.00059668397678     0.00108529333020
   54     0.00002167720063     0.00011341247447     0.00084990312927     0.00115587120591     0.00590156385844
   55     0.00022354775991     0.00037544816501     0.00040847971460     0.00079958272178     0.00118812180971
   56     0.00060413049255     0.00041869112448     0.00076011767836     0.00540742174733     0.00084367185168
   57     0.00118515412805     0.00121243930539     0.00098897935651     0.00039506369613     0.00045406105297
   58     0.00070830487752     0.00093230961762     0.00506669178679     0.00090338675399     0.00034347376024
   59     0.03492899573897     0.00291461425936     0.00095169188267     0.00672425894504     0.00043214330500
   60     0.03770064483806     0.00113406139107     0.00066227337858     0.00056705375068     0.00022994862321
   61     0.00000000000000     0.00646001108338     0.00103712433715     0.00149599928198     0.00011368461257
   62     0.00646001108338     0.00000000000000     0.02046435586768     0.00898059349341     0.00559195105069
   63     0.00103712433715     0.02046435586768     0.00000000000000     0.02028715691538     0.00838236458590
   64     0.00149599928198     0.00898059349341     0.02028715691538     0.00000000000000     0.01974154985571
   65     0.00011368461257     0.00559195105069     0.00838236458590     0.01974154985571     0.00000000000000
   66     0.00000000034229     0.00000000344129     0.00000008876991     0.00000001282949     0.00000000249716
   67     0.00000000049811     0.00000000384128     0.00000016358232     0.00000001195795     0.00000000508486
   68     0.00000000009192     0.00000000067024     0.00000001558264     0.00000000079199     0.00000000193271

                66                  67                  68

    1     0.00000081224149     0.00000097655063     0.00000022852711
    2     0.00000209811358     0.00000268207934     0.00000068447970
    3     0.00001194738796     0.00000953627288     0.00000364267311
    4     0.00000876125746     0.00000810538403     0.00000787919228
    5     0.00000052450454     0.00000080354726     0.00000044475064
    6     0.00000041017778     0.00000122006814     0.00000015412140
    7     0.00004608188082     0.00004272158646     0.00001436948549
    8     0.00007955844784     0.00010408036680     0.00000509073697
    9     0.00004555043917     0.00004003429468     0.00000422005016
   10     0.00027868320554     0.00029408878781     0.00003279049642
   11     0.00084023626546     0.00086015392745     0.00023133738335
   12     0.00027419444320     0.00027981920199     0.00006091678763
   13     0.00988541711712     0.00946794621119     0.00201479288984
   14     0.01645482291778     0.01654993125968     0.00892126210528
   15     0.05720890810295     0.05872218414511     0.05972566933521
   16     0.01471265298136     0.01535984487688     0.02382914453209
   17     0.00124678460573     0.00124617183234     0.00190728658104
   18     0.00287604750480     0.00294543334332     0.00054914306273
   19     0.00118999667533     0.00127075456274     0.00109383254412
   20     0.00033663288302     0.00030709312431     0.00008503063054
   21     0.00018882993331     0.00019117853998     0.00003082658337
   22     0.00001271486955     0.00001509509817     0.00000625185615
   23     0.00000987923472     0.00000995660807     0.00000298309300
   24     0.00000095304976     0.00000132968533     0.00000033836040
   25     0.00000464182951     0.00000414642071     0.00000020174781
   26     0.00000127087620     0.00000154687088     0.00000023100919
   27     0.00000971648452     0.00001125979339     0.00000139717078
   28     0.00000035613928     0.00000025921018     0.00000003204697
   29     0.00000025172749     0.00000023596261     0.00000001062469
   30     0.00000003296699     0.00000004497104     0.00000000589872
   31     0.00000001873866     0.00000001140200     0.00000001027928
   32     0.00000000622124     0.00000001430917     0.00000000606913
   33     0.00000000335389     0.00000000341507     0.00000000098791
   34     0.00000003056079     0.00000004404578     0.00000000982751
   35     0.00000003587359     0.00000004557179     0.00000000747330
   36     0.00008697989668     0.00011789351450     0.00001448542557
   37     0.91843730030777     0.91924550848573     0.92059128365743
   38     0.00000008904194     0.00000009225236     0.00000003867042
   39     0.00000026670028     0.00000027807639     0.00000010294276
   40     0.00000689027318     0.00000724255017     0.00000761078748
   41     0.00000005443972     0.00000006485313     0.00000003762457
   42     0.00000347066283     0.00000411198005     0.00000043858502
   43     0.00000310253463     0.00000289857974     0.00000063813207
   44     0.00540229443798     0.00394646722132     0.00106478015618
   45     0.00122543506284     0.00126591299960     0.00771872532382
   46     0.00021964439556     0.00021168967199     0.00012981773802
   47     0.00018444419223     0.00018280486482     0.00035190268708
   48     0.00004161994376     0.00006054038750     0.00003486660809
   49     0.00000305680886     0.00000266944420     0.00000139802432
   50     0.00000004739453     0.00000012313634     0.00000004280112
   51     0.00000024894239     0.00000015087612     0.00000007454207
   52     0.00000059350924     0.00000086545645     0.00000043192124
   53     0.00000004341184     0.00000006282303     0.00000001078377
   54     0.00000004569489     0.00000005227100     0.00000000843925
   55     0.00000000377817     0.00000000736327     0.00000000310360
   56     0.00000001155986     0.00000001045534     0.00000000155063
   57     0.00000000299074     0.00000000273084     0.00000000067900
   58     0.00000006544700     0.00000007109506     0.00000001072909
   59     0.00000000048444     0.00000000063930     0.00000000022742
   60     0.00000000029179     0.00000000013581     0.00000000013039
   61     0.00000000034229     0.00000000049811     0.00000000009192
   62     0.00000000344129     0.00000000384128     0.00000000067024
   63     0.00000008876991     0.00000016358232     0.00000001558264
   64     0.00000001282949     0.00000001195795     0.00000000079199
   65     0.00000000249716     0.00000000508486     0.00000000193271
   66     0.00000000000000     0.03541578029583     0.03908630408337
   67     0.03541578029583     0.00000000000000     0.03910247228599
   68     0.03908630408337     0.03910247228599     0.00000000000000



  Atomic Valences: 

 #  #
 Irrep: 1
      1:  4.3909609
      2:  4.4221118
      3:  4.6026978
      4:  4.5813386
      5:  3.9276325
      6:  4.5452478
      7:  4.7419537
      8:  4.3682661
      9:  4.5230207
     10:  3.8669371
     11:  5.0037238
     12:  3.9574491
     13:  4.0390521
     14:  4.6629426
     15:  4.6246671
     16:  4.4366313
     17:  4.4044774
     18:  4.6790993
     19:  4.4276751
     20:  4.0789815
     21:  5.0044388
     22:  4.6207171
     23:  4.4687429
     24:  4.4904691
     25:  4.7165409
     26:  4.4727441
     27:  4.4375811
     28:  4.5051363
     29:  4.2492340
     30:  4.5577808
     31:  4.5762517
     32:  4.2101276
     33:  4.2810405
     34:  4.5667736
     35:  4.5567979
     36:  2.7550812
     37:  4.1494622
     38:  1.0980470
     39:  1.1013286
     40:  1.1129456
     41:  1.0918406
     42:  1.1095901
     43:  1.0860064
     44:  1.1765549
     45:  1.1002245
     46:  1.1030239
     47:  1.1327753
     48:  1.1803462
     49:  1.1200478
     50:  1.1134719
     51:  1.1066702
     52:  1.0979469
     53:  1.1086198
     54:  1.1094472
     55:  1.0970403
     56:  1.0474666
     57:  1.0619629
     58:  1.0996576
     59:  1.1326393
     60:  1.1073522
     61:  1.1057068
     62:  1.0867865
     63:  1.0578427
     64:  1.0479584
     65:  1.0807722
     66:  1.1058468
     67:  1.1073167
     68:  1.1066357


    Psi4 stopped on: Tuesday, 14 April 2020 08:34PM
    Psi4 wall time for execution: 0:24:33.82

*** Psi4 exiting successfully. Buy a developer a beer!
