
    -----------------------------------------------------------------------
          Psi4: An Open-Source Ab Initio Electronic Structure Package
                               Psi4 1.3.2 release

                         Git: Rev {HEAD} ecbda83 


    R. M. Parrish, L. A. Burns, D. G. A. Smith, A. C. Simmonett,
    A. E. DePrince III, E. G. Hohenstein, U. Bozkaya, A. Yu. Sokolov,
    R. Di Remigio, R. M. Richard, J. F. Gonthier, A. M. James,
    H. R. McAlexander, A. Kumar, M. Saitow, X. Wang, B. P. Pritchard,
    P. Verma, H. F. Schaefer III, K. Patkowski, R. A. King, E. F. Valeev,
    F. A. Evangelista, J. M. Turney, T. D. Crawford, and C. D. Sherrill,
    J. Chem. Theory Comput. 13(7) pp 3185--3197 (2017).
    (doi: 10.1021/acs.jctc.7b00174)


                         Additional Contributions by
    P. Kraus, H. Kruse, M. H. Lechner, M. C. Schieber, R. A. Shaw,
    A. Alenaizan, R. Galvelis, Z. L. Glick, S. Lehtola, and J. P. Misiewicz

    -----------------------------------------------------------------------


    Psi4 started on: Tuesday, 14 April 2020 12:44PM

    Process ID: 46136
    Host:       node91.bme.utexas.edu
    PSIDATADIR: /home/bdw2292/miniconda3/envs/p4env/share/psi4
    Memory:     500.0 MiB
    Threads:    1
    
  ==> Input File <==

--------------------------------------------------------------------------
molecule { 
0 1
 C   -1.912768    5.067415   -0.248831
 C   -3.210271    4.558102   -0.393618
 C   -3.449112    3.182509   -0.208981
 C   -2.322150    2.403088    0.150776
 N   -1.075668    2.870744    0.295507
 C   -0.882482    4.183049    0.090996
 C   -4.803214    2.536649   -0.362255
 C   -6.015895    3.220401   -0.548207
 C   -7.160600    2.418812   -0.638175
 N   -7.153877    1.088865   -0.571109
 C   -5.944269    0.515182   -0.410063
 N   -4.800237    1.192652   -0.306691
 N   -5.939563   -0.867518   -0.356029
 C   -4.907269   -1.840101   -0.089594
 C   -5.270793   -3.165354    0.298425
 C   -4.227820   -4.065654    0.573495
 C   -2.869672   -3.736840    0.493680
 C   -2.522781   -2.443793    0.087768
 C   -3.545979   -1.528056   -0.204433
 N   -1.187489   -1.938545   -0.044570
 C    0.028663   -2.469165    0.321268
 C    1.251195   -1.572166    0.236863
 C    1.217304   -0.172445    0.358226
 C    2.393665    0.575983    0.266011
 C    3.654881   -0.032822    0.099416
 C    3.668620   -1.435698   -0.025579
 C    2.498843   -2.194261    0.064787
 C    4.901927    0.857934    0.016130
 N    6.236806    0.314567   -0.308997
 C    7.252606    1.332606   -0.672721
 C    8.627523    0.750390   -1.084241
 N    9.233316   -0.142680   -0.071221
 C    9.968406    0.507872    1.019731
 C    8.224565   -1.151592    0.323069
 C    6.845454   -0.568993    0.723698
 O    0.144945   -3.627852    0.692045
 C   -6.711624   -3.624317    0.446135
 H   -1.703735    6.122648   -0.397247
 H   -4.009954    5.240775   -0.670163
 H   -2.431253    1.343121    0.357728
 H    0.142219    4.529988    0.215149
 H   -6.111412    4.297950   -0.600872
 H   -8.153267    2.848997   -0.768570
 H   -6.888685   -1.205626   -0.407887
 H   -4.473236   -5.081281    0.881404
 H   -2.096572   -4.454899    0.735521
 H   -3.282460   -0.538309   -0.537655
 H   -1.136136   -1.004807   -0.426223
 H    0.270892    0.336533    0.527439
 H    2.320267    1.660595    0.349088
 H    4.597605   -1.962445   -0.228271
 H    2.535948   -3.278155   -0.013766
 H    4.648286    1.604345   -0.751829
 H    5.020922    1.368109    0.984376
 H    6.741387    2.118661   -1.827039
 H    7.434479    2.262942    0.471390
 H    9.362466    1.570993   -1.358910
 H    8.402561   -0.090233   -2.321119
 H    9.294817    1.107097    1.642859
 H   10.748079    1.162076    0.612635
 H   10.457795   -0.245098    1.648326
 H    8.733774   -1.904721    1.356855
 H    8.024394   -2.051333   -0.846136
 H    7.041597    0.254874    1.996196
 H    6.220684   -1.312067    0.964452
 H   -7.289662   -3.517635   -0.482750
 H   -7.229461   -3.046607    1.216839
 H   -6.791723   -4.674920    0.736729
}
memory 20GB
set_num_threads(6)
psi4_io.set_default_path("/scratch/bdw2292")
set freeze_core True
E, wfn = energy('mp2/6-311++G**',return_wfn=True)
oeprop(wfn,"WIBERG_LOWDIN_INDICES")
clean()
--------------------------------------------------------------------------

  Memory set to  18.626 GiB by Python driver.
  Threads set to 6 by Python driver.
    SCF Algorithm Type (re)set to DF.

*** tstart() called on node91.bme.utexas.edu
*** at Tue Apr 14 12:44:56 2020

   => Loading Basis Set <=

    Name: 6-311++G**
    Role: ORBITAL
    Keyword: BASIS
    atoms 1-4, 6-9, 11, 14-19, 21-28, 30-31, 33-35, 37 entry C          line   119 file /home/bdw2292/miniconda3/envs/p4env/share/psi4/basis/6-311ppgss.gbs 
    atoms 5, 10, 12-13, 20, 29, 32                     entry N          line   140 file /home/bdw2292/miniconda3/envs/p4env/share/psi4/basis/6-311ppgss.gbs 
    atoms 36                                           entry O          line   161 file /home/bdw2292/miniconda3/envs/p4env/share/psi4/basis/6-311ppgss.gbs 
    atoms 38-68                                        entry H          line    42 file /home/bdw2292/miniconda3/envs/p4env/share/psi4/basis/6-311ppgss.gbs 


         ---------------------------------------------------------
                                   SCF
               by Justin Turney, Rob Parrish, Andy Simmonett
                          and Daniel G. A. Smith
                              RHF Reference
                        6 Threads,  19073 MiB Core
         ---------------------------------------------------------

  ==> Geometry <==

    Molecular point group: c1
    Full point group: C1

    Geometry (in Angstrom), charge = 0, multiplicity = 1:

       Center              X                  Y                   Z               Mass       
    ------------   -----------------  -----------------  -----------------  -----------------
         C           -1.760329722522     5.055195816189    -0.255458886504    12.000000000000
         C           -3.057832722522     4.545882816189    -0.400245886504    12.000000000000
         C           -3.296673722522     3.170289816189    -0.215608886504    12.000000000000
         C           -2.169711722522     2.390868816189     0.144148113496    12.000000000000
         N           -0.923229722522     2.858524816189     0.288879113496    14.003074004430
         C           -0.730043722522     4.170829816189     0.084368113496    12.000000000000
         C           -4.650775722522     2.524429816189    -0.368882886504    12.000000000000
         C           -5.863456722522     3.208181816189    -0.554834886504    12.000000000000
         C           -7.008161722522     2.406592816189    -0.644802886504    12.000000000000
         N           -7.001438722522     1.076645816189    -0.577736886504    14.003074004430
         C           -5.791830722522     0.502962816189    -0.416690886504    12.000000000000
         N           -4.647798722522     1.180432816189    -0.313318886504    14.003074004430
         N           -5.787124722522    -0.879737183811    -0.362656886504    14.003074004430
         C           -4.754830722522    -1.852320183811    -0.096221886504    12.000000000000
         C           -5.118354722522    -3.177573183811     0.291797113496    12.000000000000
         C           -4.075381722522    -4.077873183811     0.566867113496    12.000000000000
         C           -2.717233722522    -3.749059183811     0.487052113496    12.000000000000
         C           -2.370342722522    -2.456012183811     0.081140113496    12.000000000000
         C           -3.393540722522    -1.540275183811    -0.211060886504    12.000000000000
         N           -1.035050722522    -1.950764183811    -0.051197886504    14.003074004430
         C            0.181101277478    -2.481384183811     0.314640113496    12.000000000000
         C            1.403633277478    -1.584385183811     0.230235113496    12.000000000000
         C            1.369742277478    -0.184664183811     0.351598113496    12.000000000000
         C            2.546103277478     0.563763816189     0.259383113496    12.000000000000
         C            3.807319277478    -0.045041183811     0.092788113496    12.000000000000
         C            3.821058277478    -1.447917183811    -0.032206886504    12.000000000000
         C            2.651281277478    -2.206480183811     0.058159113496    12.000000000000
         C            5.054365277478     0.845714816189     0.009502113496    12.000000000000
         N            6.389244277478     0.302347816189    -0.315624886504    14.003074004430
         C            7.405044277478     1.320386816189    -0.679348886504    12.000000000000
         C            8.779961277478     0.738170816189    -1.090868886504    12.000000000000
         N            9.385754277478    -0.154899183811    -0.077848886504    14.003074004430
         C           10.120844277478     0.495652816189     1.013103113496    12.000000000000
         C            8.377003277478    -1.163811183811     0.316441113496    12.000000000000
         C            6.997892277478    -0.581212183811     0.717070113496    12.000000000000
         O            0.297383277478    -3.640071183811     0.685417113496    15.994914619570
         C           -6.559185722522    -3.636536183811     0.439507113496    12.000000000000
         H           -1.551296722522     6.110428816189    -0.403874886504     1.007825032230
         H           -3.857515722522     5.228555816189    -0.676790886504     1.007825032230
         H           -2.278814722522     1.330901816189     0.351100113496     1.007825032230
         H            0.294657277478     4.517768816189     0.208521113496     1.007825032230
         H           -5.958973722522     4.285730816189    -0.607499886504     1.007825032230
         H           -8.000828722522     2.836777816189    -0.775197886504     1.007825032230
         H           -6.736246722522    -1.217845183811    -0.414514886504     1.007825032230
         H           -4.320797722522    -5.093500183811     0.874776113496     1.007825032230
         H           -1.944133722522    -4.467118183811     0.728893113496     1.007825032230
         H           -3.130021722522    -0.550528183811    -0.544282886504     1.007825032230
         H           -0.983697722522    -1.017026183811    -0.432850886504     1.007825032230
         H            0.423330277478     0.324313816189     0.520811113496     1.007825032230
         H            2.472705277478     1.648375816189     0.342460113496     1.007825032230
         H            4.750043277478    -1.974664183811    -0.234898886504     1.007825032230
         H            2.688386277478    -3.290374183811    -0.020393886504     1.007825032230
         H            4.800724277478     1.592125816189    -0.758456886504     1.007825032230
         H            5.173360277478     1.355889816189     0.977748113496     1.007825032230
         H            6.893825277478     2.106441816189    -1.833666886504     1.007825032230
         H            7.586917277478     2.250722816189     0.464762113496     1.007825032230
         H            9.514904277478     1.558773816189    -1.365537886504     1.007825032230
         H            8.554999277478    -0.102452183811    -2.327746886504     1.007825032230
         H            9.447255277478     1.094877816189     1.636231113496     1.007825032230
         H           10.900517277478     1.149856816189     0.606007113496     1.007825032230
         H           10.610233277478    -0.257317183811     1.641698113496     1.007825032230
         H            8.886212277478    -1.916940183811     1.350227113496     1.007825032230
         H            8.176832277478    -2.063552183811    -0.852763886504     1.007825032230
         H            7.194035277478     0.242654816189     1.989568113496     1.007825032230
         H            6.373122277478    -1.324286183811     0.957824113496     1.007825032230
         H           -7.137223722522    -3.529854183811    -0.489377886504     1.007825032230
         H           -7.077022722522    -3.058826183811     1.210211113496     1.007825032230
         H           -6.639284722522    -4.687139183811     0.730101113496     1.007825032230

  Running in c1 symmetry.

  Rotational constants: A =      0.00550  B =      0.00126  C =      0.00104 [cm^-1]
  Rotational constants: A =    165.02041  B =     37.80598  C =     31.10759 [MHz]
  Nuclear repulsion = 3578.913965141234712

  Charge       = 0
  Multiplicity = 1
  Electrons    = 262
  Nalpha       = 131
  Nbeta        = 131

  ==> Algorithm <==

  SCF Algorithm Type is DF.
  DIIS enabled.
  MOM disabled.
  Fractional occupation disabled.
  Guess Type is SAD.
  Energy threshold   = 1.00e-08
  Density threshold  = 1.00e-08
  Integral threshold = 0.00e+00

  ==> Primary Basis <==

  Basis Set: 6-311++G**
    Blend: 6-311++G**
    Number of shells: 525
    Number of basis function: 1031
    Number of Cartesian functions: 1068
    Spherical Harmonics?: true
    Max angular momentum: 2

   => Loading Basis Set <=

    Name: (6-311++G** AUX)
    Role: JKFIT
    Keyword: DF_BASIS_SCF
    atoms 1-4, 6-9, 11, 14-19, 21-28, 30-31, 33-35, 37 entry C          line   162 file /home/bdw2292/miniconda3/envs/p4env/share/psi4/basis/aug-cc-pvtz-jkfit.gbs 
    atoms 5, 10, 12-13, 20, 29, 32                     entry N          line   224 file /home/bdw2292/miniconda3/envs/p4env/share/psi4/basis/aug-cc-pvtz-jkfit.gbs 
    atoms 36                                           entry O          line   286 file /home/bdw2292/miniconda3/envs/p4env/share/psi4/basis/aug-cc-pvtz-jkfit.gbs 
    atoms 38-68                                        entry H          line    70 file /home/bdw2292/miniconda3/envs/p4env/share/psi4/basis/aug-cc-pvtz-jkfit.gbs 

  ==> Pre-Iterations <==

   -------------------------------------------------------
    Irrep   Nso     Nmo     Nalpha   Nbeta   Ndocc  Nsocc
   -------------------------------------------------------
     A       1031    1031       0       0       0       0
   -------------------------------------------------------
    Total    1031    1031     131     131     131       0
   -------------------------------------------------------

  ==> Integral Setup <==

  ==> DiskDFJK: Density-Fitted J/K Matrices <==

    J tasked:                  Yes
    K tasked:                  Yes
    wK tasked:                  No
    OpenMP threads:              6
    Integrals threads:           6
    Memory [MiB]:            14305
    Algorithm:                Core
    Integral Cache:           NONE
    Schwarz Cutoff:          1E-12
    Fitting Condition:       1E-10

   => Auxiliary Basis Set <=

  Basis Set: (6-311++G** AUX)
    Blend: AUG-CC-PVTZ-JKFIT
    Number of shells: 1544
    Number of basis function: 5274
    Number of Cartesian functions: 6552
    Spherical Harmonics?: true
    Max angular momentum: 4

  Minimum eigenvalue in the overlap matrix is 7.6700304483E-08.
  Using Canonical Orthogonalization with cutoff of 1.0000000000E-07.
  Overall, 1 of 1031 possible MOs eliminated.

  SCF Guess: Superposition of Atomic Densities via on-the-fly atomic UHF.

  ==> Iterations <==

                           Total Energy        Delta E     RMS |[F,P]|

   @DF-RHF iter SAD: -1570.99764190951691   -1.57100e+03   0.00000e+00 
   @DF-RHF iter   1: -1571.28873112822362   -2.91089e-01   1.21335e-03 DIIS
   @DF-RHF iter   2: -1572.06206078848845   -7.73330e-01   6.39372e-04 DIIS
   @DF-RHF iter   3: -1572.25513547257697   -1.93075e-01   1.63245e-04 DIIS
   @DF-RHF iter   4: -1572.27232016349967   -1.71847e-02   6.49565e-05 DIIS
   @DF-RHF iter   5: -1572.27483242622975   -2.51226e-03   1.30462e-05 DIIS
   @DF-RHF iter   6: -1572.27498000907576   -1.47583e-04   6.11232e-06 DIIS
   @DF-RHF iter   7: -1572.27501500475137   -3.49957e-05   1.98020e-06 DIIS
   @DF-RHF iter   8: -1572.27502048503266   -5.48028e-06   7.96383e-07 DIIS
   @DF-RHF iter   9: -1572.27502141429181   -9.29259e-07   3.11839e-07 DIIS
   @DF-RHF iter  10: -1572.27502159576170   -1.81470e-07   1.35501e-07 DIIS
   @DF-RHF iter  11: -1572.27502163155054   -3.57888e-08   6.65740e-08 DIIS
   @DF-RHF iter  12: -1572.27502164127259   -9.72204e-09   2.70149e-08 DIIS
   @DF-RHF iter  13: -1572.27502164308680   -1.81421e-09   1.19095e-08 DIIS
   @DF-RHF iter  14: -1572.27502164331599   -2.29193e-10   5.69088e-09 DIIS
  Energy and wave function converged.


  ==> Post-Iterations <==

    Orbital Energies [Eh]
    ---------------------

    Doubly Occupied:                                                      

       1A    -20.518305     2A    -15.603375     3A    -15.600331  
       4A    -15.589238     5A    -15.587149     6A    -15.573348  
       7A    -15.568037     8A    -15.567781     9A    -11.373998  
      10A    -11.362598    11A    -11.344239    12A    -11.334245  
      13A    -11.332461    14A    -11.314830    15A    -11.313725  
      16A    -11.302160    17A    -11.301541    18A    -11.300919  
      19A    -11.300512    20A    -11.292091    21A    -11.289644  
      22A    -11.280436    23A    -11.279121    24A    -11.266302  
      25A    -11.266083    26A    -11.255720    27A    -11.253555  
      28A    -11.252422    29A    -11.252349    30A    -11.246639  
      31A    -11.246435    32A    -11.244613    33A    -11.241279  
      34A    -11.238726    35A    -11.233371    36A    -11.230576  
      37A    -11.223748    38A     -1.383946    39A     -1.344964  
      40A     -1.278651    41A     -1.255016    42A     -1.249217  
      43A     -1.240492    44A     -1.211894    45A     -1.209421  
      46A     -1.160205    47A     -1.139013    48A     -1.116098  
      49A     -1.075138    50A     -1.059841    51A     -1.048395  
      52A     -1.037974    53A     -1.020177    54A     -1.007062  
      55A     -1.003549    56A     -0.983246    57A     -0.947235  
      58A     -0.929594    59A     -0.926541    60A     -0.900614  
      61A     -0.873064    62A     -0.872267    63A     -0.858204  
      64A     -0.846229    65A     -0.841871    66A     -0.827495  
      67A     -0.818170    68A     -0.804553    69A     -0.776748  
      70A     -0.754199    71A     -0.738387    72A     -0.729938  
      73A     -0.721755    74A     -0.698293    75A     -0.697798  
      76A     -0.682396    77A     -0.675996    78A     -0.668574  
      79A     -0.657937    80A     -0.652592    81A     -0.650695  
      82A     -0.649448    83A     -0.639545    84A     -0.631051  
      85A     -0.627515    86A     -0.620232    87A     -0.616637  
      88A     -0.611846    89A     -0.608884    90A     -0.603516  
      91A     -0.601598    92A     -0.598751    93A     -0.595594  
      94A     -0.589773    95A     -0.585000    96A     -0.581442  
      97A     -0.578323    98A     -0.574510    99A     -0.561655  
     100A     -0.556320   101A     -0.548072   102A     -0.546606  
     103A     -0.544626   104A     -0.532111   105A     -0.522558  
     106A     -0.513546   107A     -0.508836   108A     -0.508382  
     109A     -0.504934   110A     -0.503466   111A     -0.495435  
     112A     -0.493011   113A     -0.484012   114A     -0.477984  
     115A     -0.465168   116A     -0.451512   117A     -0.442906  
     118A     -0.437948   119A     -0.426122   120A     -0.424500  
     121A     -0.414009   122A     -0.400374   123A     -0.398333  
     124A     -0.373371   125A     -0.367368   126A     -0.346148  
     127A     -0.343270   128A     -0.342198   129A     -0.333225  
     130A     -0.313505   131A     -0.289431  

    Virtual:                                                              

     132A      0.026523   133A      0.034775   134A      0.040621  
     135A      0.041926   136A      0.043893   137A      0.047212  
     138A      0.050085   139A      0.051841   140A      0.056650  
     141A      0.062491   142A      0.063871   143A      0.065892  
     144A      0.066376   145A      0.069841   146A      0.072508  
     147A      0.074438   148A      0.074744   149A      0.079527  
     150A      0.080974   151A      0.083885   152A      0.085960  
     153A      0.087593   154A      0.092031   155A      0.095901  
     156A      0.098751   157A      0.100147   158A      0.100572  
     159A      0.103567   160A      0.106223   161A      0.108864  
     162A      0.111215   163A      0.111438   164A      0.114147  
     165A      0.115248   166A      0.119021   167A      0.120683  
     168A      0.124145   169A      0.125680   170A      0.128493  
     171A      0.132961   172A      0.133976   173A      0.137957  
     174A      0.140525   175A      0.143840   176A      0.145896  
     177A      0.147809   178A      0.148486   179A      0.151342  
     180A      0.153544   181A      0.154279   182A      0.155761  
     183A      0.158295   184A      0.161395   185A      0.163858  
     186A      0.167174   187A      0.167894   188A      0.170460  
     189A      0.172193   190A      0.173156   191A      0.174886  
     192A      0.176662   193A      0.178186   194A      0.180240  
     195A      0.181082   196A      0.183715   197A      0.184341  
     198A      0.186878   199A      0.189426   200A      0.190262  
     201A      0.191945   202A      0.192639   203A      0.195787  
     204A      0.198802   205A      0.199022   206A      0.201819  
     207A      0.202974   208A      0.206683   209A      0.207427  
     210A      0.208758   211A      0.209720   212A      0.211074  
     213A      0.213562   214A      0.215614   215A      0.217113  
     216A      0.218972   217A      0.220043   218A      0.221810  
     219A      0.222650   220A      0.223586   221A      0.225332  
     222A      0.226798   223A      0.229385   224A      0.232098  
     225A      0.232537   226A      0.234306   227A      0.235700  
     228A      0.239121   229A      0.242678   230A      0.244232  
     231A      0.244799   232A      0.246841   233A      0.249158  
     234A      0.251780   235A      0.253911   236A      0.255350  
     237A      0.259439   238A      0.260119   239A      0.262531  
     240A      0.265548   241A      0.269616   242A      0.270898  
     243A      0.273350   244A      0.276284   245A      0.278021  
     246A      0.279381   247A      0.282307   248A      0.283230  
     249A      0.286199   250A      0.289387   251A      0.290776  
     252A      0.292204   253A      0.295518   254A      0.296189  
     255A      0.298032   256A      0.302940   257A      0.305734  
     258A      0.308168   259A      0.309316   260A      0.310750  
     261A      0.315211   262A      0.320299   263A      0.321182  
     264A      0.322935   265A      0.323237   266A      0.327916  
     267A      0.329118   268A      0.331904   269A      0.332904  
     270A      0.334723   271A      0.335132   272A      0.337325  
     273A      0.339351   274A      0.343732   275A      0.346825  
     276A      0.348033   277A      0.350876   278A      0.352930  
     279A      0.354287   280A      0.356387   281A      0.359843  
     282A      0.360640   283A      0.362046   284A      0.364067  
     285A      0.366222   286A      0.368659   287A      0.369488  
     288A      0.370471   289A      0.373799   290A      0.374354  
     291A      0.377096   292A      0.378180   293A      0.379317  
     294A      0.381261   295A      0.383002   296A      0.386064  
     297A      0.387732   298A      0.389486   299A      0.390461  
     300A      0.391883   301A      0.393470   302A      0.395720  
     303A      0.396259   304A      0.398785   305A      0.402385  
     306A      0.404342   307A      0.406531   308A      0.406694  
     309A      0.409808   310A      0.411705   311A      0.413310  
     312A      0.415399   313A      0.416970   314A      0.418533  
     315A      0.420922   316A      0.421620   317A      0.425465  
     318A      0.427615   319A      0.428680   320A      0.431943  
     321A      0.433171   322A      0.433567   323A      0.437548  
     324A      0.438460   325A      0.438960   326A      0.439971  
     327A      0.441305   328A      0.444263   329A      0.445824  
     330A      0.448525   331A      0.448566   332A      0.452860  
     333A      0.455882   334A      0.458763   335A      0.459747  
     336A      0.461753   337A      0.463886   338A      0.466104  
     339A      0.468168   340A      0.471496   341A      0.475504  
     342A      0.477532   343A      0.478493   344A      0.481167  
     345A      0.483927   346A      0.485986   347A      0.489812  
     348A      0.491029   349A      0.493502   350A      0.497904  
     351A      0.501193   352A      0.503159   353A      0.506340  
     354A      0.507684   355A      0.512175   356A      0.514753  
     357A      0.516146   358A      0.517054   359A      0.523106  
     360A      0.530427   361A      0.532465   362A      0.535358  
     363A      0.536843   364A      0.540050   365A      0.546273  
     366A      0.550913   367A      0.555879   368A      0.559111  
     369A      0.559793   370A      0.569689   371A      0.569928  
     372A      0.581932   373A      0.582870   374A      0.590975  
     375A      0.592895   376A      0.598515   377A      0.602921  
     378A      0.604735   379A      0.605429   380A      0.614450  
     381A      0.619893   382A      0.620599   383A      0.632946  
     384A      0.634055   385A      0.637001   386A      0.641484  
     387A      0.666435   388A      0.669380   389A      0.678005  
     390A      0.684968   391A      0.686608   392A      0.696495  
     393A      0.699610   394A      0.706045   395A      0.708271  
     396A      0.710900   397A      0.714492   398A      0.719780  
     399A      0.725783   400A      0.727248   401A      0.729612  
     402A      0.734248   403A      0.740648   404A      0.750005  
     405A      0.752343   406A      0.754813   407A      0.762005  
     408A      0.763187   409A      0.765761   410A      0.768342  
     411A      0.769843   412A      0.773134   413A      0.775401  
     414A      0.781779   415A      0.785562   416A      0.794832  
     417A      0.796165   418A      0.797846   419A      0.798780  
     420A      0.803322   421A      0.808403   422A      0.811091  
     423A      0.813450   424A      0.814235   425A      0.820233  
     426A      0.824867   427A      0.829038   428A      0.830372  
     429A      0.833655   430A      0.838579   431A      0.841678  
     432A      0.844333   433A      0.846004   434A      0.848391  
     435A      0.849946   436A      0.857790   437A      0.864311  
     438A      0.865428   439A      0.868724   440A      0.872184  
     441A      0.874516   442A      0.878295   443A      0.881162  
     444A      0.885717   445A      0.889860   446A      0.889962  
     447A      0.891731   448A      0.893909   449A      0.897629  
     450A      0.902619   451A      0.906429   452A      0.910291  
     453A      0.911543   454A      0.914180   455A      0.916605  
     456A      0.923883   457A      0.926761   458A      0.929739  
     459A      0.930914   460A      0.936502   461A      0.937627  
     462A      0.940265   463A      0.942576   464A      0.946666  
     465A      0.950905   466A      0.952604   467A      0.954273  
     468A      0.962593   469A      0.966038   470A      0.970932  
     471A      0.971791   472A      0.973140   473A      0.978522  
     474A      0.981494   475A      0.988117   476A      0.991471  
     477A      0.992666   478A      0.999660   479A      1.004262  
     480A      1.006238   481A      1.015024   482A      1.021333  
     483A      1.025813   484A      1.032735   485A      1.032899  
     486A      1.035659   487A      1.044665   488A      1.047813  
     489A      1.054507   490A      1.056824   491A      1.062352  
     492A      1.062871   493A      1.063606   494A      1.065675  
     495A      1.071292   496A      1.074242   497A      1.080354  
     498A      1.081820   499A      1.092987   500A      1.095293  
     501A      1.096561   502A      1.101774   503A      1.106026  
     504A      1.110688   505A      1.118865   506A      1.128311  
     507A      1.133303   508A      1.136800   509A      1.137500  
     510A      1.140804   511A      1.144857   512A      1.152298  
     513A      1.153242   514A      1.155864   515A      1.163328  
     516A      1.165172   517A      1.167116   518A      1.168839  
     519A      1.175411   520A      1.178527   521A      1.183738  
     522A      1.185898   523A      1.186875   524A      1.193333  
     525A      1.198232   526A      1.200180   527A      1.206587  
     528A      1.209598   529A      1.212013   530A      1.217491  
     531A      1.219002   532A      1.221168   533A      1.226519  
     534A      1.230495   535A      1.234662   536A      1.236325  
     537A      1.242026   538A      1.248865   539A      1.252496  
     540A      1.253190   541A      1.258359   542A      1.263540  
     543A      1.274018   544A      1.278927   545A      1.280308  
     546A      1.281728   547A      1.285419   548A      1.289771  
     549A      1.294158   550A      1.301096   551A      1.303716  
     552A      1.307085   553A      1.317251   554A      1.323674  
     555A      1.329049   556A      1.331638   557A      1.337010  
     558A      1.343227   559A      1.348955   560A      1.353329  
     561A      1.354747   562A      1.361914   563A      1.370874  
     564A      1.378887   565A      1.388380   566A      1.390856  
     567A      1.398804   568A      1.408641   569A      1.414775  
     570A      1.421666   571A      1.426197   572A      1.429307  
     573A      1.439940   574A      1.444032   575A      1.445874  
     576A      1.453457   577A      1.462243   578A      1.463033  
     579A      1.474185   580A      1.476260   581A      1.486034  
     582A      1.491271   583A      1.502724   584A      1.506525  
     585A      1.521532   586A      1.523860   587A      1.531962  
     588A      1.546593   589A      1.553082   590A      1.560791  
     591A      1.568841   592A      1.573596   593A      1.588221  
     594A      1.599718   595A      1.608484   596A      1.618965  
     597A      1.620462   598A      1.626965   599A      1.634899  
     600A      1.639607   601A      1.650669   602A      1.657515  
     603A      1.675612   604A      1.678869   605A      1.691493  
     606A      1.698671   607A      1.707992   608A      1.715069  
     609A      1.728147   610A      1.729822   611A      1.731848  
     612A      1.745403   613A      1.750237   614A      1.751922  
     615A      1.759336   616A      1.762664   617A      1.775624  
     618A      1.777913   619A      1.781697   620A      1.787303  
     621A      1.792031   622A      1.796803   623A      1.800140  
     624A      1.806639   625A      1.807332   626A      1.809931  
     627A      1.814253   628A      1.816366   629A      1.819666  
     630A      1.822240   631A      1.824891   632A      1.827726  
     633A      1.833611   634A      1.841173   635A      1.842566  
     636A      1.844987   637A      1.846291   638A      1.850338  
     639A      1.854772   640A      1.857559   641A      1.858700  
     642A      1.864236   643A      1.865202   644A      1.871231  
     645A      1.874676   646A      1.877590   647A      1.878959  
     648A      1.882809   649A      1.896834   650A      1.898209  
     651A      1.921956   652A      1.924815   653A      1.926754  
     654A      1.928648   655A      1.933957   656A      1.937893  
     657A      1.942951   658A      1.951079   659A      1.955890  
     660A      1.958261   661A      1.962298   662A      1.968104  
     663A      1.972968   664A      1.978219   665A      1.981657  
     666A      1.987423   667A      1.992049   668A      1.997518  
     669A      1.999786   670A      2.002236   671A      2.008460  
     672A      2.010137   673A      2.012437   674A      2.019048  
     675A      2.027680   676A      2.030191   677A      2.036556  
     678A      2.046126   679A      2.048805   680A      2.059500  
     681A      2.064073   682A      2.067365   683A      2.071618  
     684A      2.075441   685A      2.086424   686A      2.089763  
     687A      2.091796   688A      2.094261   689A      2.099547  
     690A      2.101267   691A      2.109549   692A      2.123650  
     693A      2.128515   694A      2.136200   695A      2.141577  
     696A      2.145073   697A      2.148637   698A      2.156342  
     699A      2.163865   700A      2.173498   701A      2.176074  
     702A      2.182906   703A      2.184692   704A      2.192745  
     705A      2.203590   706A      2.209492   707A      2.215930  
     708A      2.222767   709A      2.230763   710A      2.236819  
     711A      2.238157   712A      2.244219   713A      2.250509  
     714A      2.252545   715A      2.254963   716A      2.257370  
     717A      2.260008   718A      2.270209   719A      2.272998  
     720A      2.274578   721A      2.282826   722A      2.290339  
     723A      2.298403   724A      2.301729   725A      2.310223  
     726A      2.315349   727A      2.321129   728A      2.328844  
     729A      2.333407   730A      2.340273   731A      2.348626  
     732A      2.351136   733A      2.356162   734A      2.358698  
     735A      2.369249   736A      2.372920   737A      2.375119  
     738A      2.385097   739A      2.391775   740A      2.398180  
     741A      2.404118   742A      2.406462   743A      2.412778  
     744A      2.423131   745A      2.430619   746A      2.437650  
     747A      2.438972   748A      2.448861   749A      2.458611  
     750A      2.461161   751A      2.475114   752A      2.478945  
     753A      2.485108   754A      2.494857   755A      2.497507  
     756A      2.504183   757A      2.516066   758A      2.538378  
     759A      2.540102   760A      2.551699   761A      2.553181  
     762A      2.558414   763A      2.571647   764A      2.577738  
     765A      2.583598   766A      2.602831   767A      2.605911  
     768A      2.616241   769A      2.622280   770A      2.633810  
     771A      2.645348   772A      2.651147   773A      2.663345  
     774A      2.679119   775A      2.682140   776A      2.697335  
     777A      2.706390   778A      2.717362   779A      2.730928  
     780A      2.734407   781A      2.744487   782A      2.747605  
     783A      2.776600   784A      2.779185   785A      2.783751  
     786A      2.789437   787A      2.795630   788A      2.801919  
     789A      2.811143   790A      2.811858   791A      2.824039  
     792A      2.828047   793A      2.832584   794A      2.845278  
     795A      2.855097   796A      2.858387   797A      2.867946  
     798A      2.879352   799A      2.881000   800A      2.893828  
     801A      2.894775   802A      2.909353   803A      2.916056  
     804A      2.928892   805A      2.935720   806A      2.945413  
     807A      2.951534   808A      2.961138   809A      2.962199  
     810A      2.967654   811A      2.971005   812A      2.976438  
     813A      2.981866   814A      2.984760   815A      2.990227  
     816A      2.996772   817A      3.007230   818A      3.009350  
     819A      3.015518   820A      3.017107   821A      3.020432  
     822A      3.028455   823A      3.032897   824A      3.038096  
     825A      3.049450   826A      3.053416   827A      3.057783  
     828A      3.059781   829A      3.061836   830A      3.070736  
     831A      3.079420   832A      3.087705   833A      3.089382  
     834A      3.100375   835A      3.101650   836A      3.103721  
     837A      3.107881   838A      3.111356   839A      3.115583  
     840A      3.117450   841A      3.122237   842A      3.125192  
     843A      3.128246   844A      3.135723   845A      3.150457  
     846A      3.152660   847A      3.159917   848A      3.162513  
     849A      3.165191   850A      3.169381   851A      3.188999  
     852A      3.198604   853A      3.201016   854A      3.208189  
     855A      3.215044   856A      3.227756   857A      3.232088  
     858A      3.238964   859A      3.246213   860A      3.250505  
     861A      3.255222   862A      3.262814   863A      3.274052  
     864A      3.282374   865A      3.286078   866A      3.287090  
     867A      3.294873   868A      3.298142   869A      3.299835  
     870A      3.301330   871A      3.311971   872A      3.321217  
     873A      3.326657   874A      3.331586   875A      3.332830  
     876A      3.335481   877A      3.343635   878A      3.345773  
     879A      3.352577   880A      3.361712   881A      3.363101  
     882A      3.365085   883A      3.367110   884A      3.382740  
     885A      3.387988   886A      3.391696   887A      3.396549  
     888A      3.406715   889A      3.427109   890A      3.435794  
     891A      3.462596   892A      3.470356   893A      3.506697  
     894A      3.511980   895A      3.521412   896A      3.545968  
     897A      3.564493   898A      3.568257   899A      3.588335  
     900A      3.600104   901A      3.612230   902A      3.621025  
     903A      3.637779   904A      3.651297   905A      3.668540  
     906A      3.674805   907A      3.679379   908A      3.692739  
     909A      3.751048   910A      3.763231   911A      3.774129  
     912A      3.782685   913A      3.787485   914A      3.798153  
     915A      3.805225   916A      3.816097   917A      3.820316  
     918A      3.847925   919A      3.858512   920A      3.869010  
     921A      3.880644   922A      3.907828   923A      3.919152  
     924A      3.925240   925A      3.939311   926A      3.940858  
     927A      3.956349   928A      3.966260   929A      3.977373  
     930A      4.012438   931A      4.037622   932A      4.046162  
     933A      4.059957   934A      4.075803   935A      4.092704  
     936A      4.095999   937A      4.103850   938A      4.111338  
     939A      4.118962   940A      4.123177   941A      4.141852  
     942A      4.157571   943A      4.188757   944A      4.191512  
     945A      4.192942   946A      4.197753   947A      4.217880  
     948A      4.240016   949A      4.294501   950A      4.356381  
     951A      4.364643   952A      4.380621   953A      4.396835  
     954A      4.415402   955A      4.416635   956A      4.423024  
     957A      4.426148   958A      4.430053   959A      4.435333  
     960A      4.446167   961A      4.452780   962A      4.518011  
     963A      4.545355   964A      4.551354   965A      4.553984  
     966A      4.587185   967A      4.623406   968A      4.625990  
     969A      4.643243   970A      4.717027   971A      4.769278  
     972A      4.770909   973A      4.794973   974A      4.907332  
     975A      4.939365   976A      5.002818   977A      5.044606  
     978A      5.211806   979A      5.235865   980A      5.249414  
     981A      5.278592   982A      5.292699   983A      5.333214  
     984A      5.352554   985A      5.405754   986A      5.417282  
     987A      5.614305   988A      5.686541   989A      5.694928  
     990A      5.797922   991A      5.854466   992A      5.873186  
     993A      6.398781   994A     24.744259   995A     24.759328  
     996A     24.766798   997A     24.800385   998A     24.837333  
     999A     24.904444  1000A     24.937762  1001A     25.009710  
    1002A     25.018080  1003A     25.019719  1004A     25.062521  
    1005A     25.069612  1006A     25.071860  1007A     25.091314  
    1008A     25.099509  1009A     25.109008  1010A     25.110818  
    1011A     25.117221  1012A     25.132712  1013A     25.135669  
    1014A     25.171373  1015A     25.195231  1016A     25.206004  
    1017A     25.234333  1018A     25.245569  1019A     25.248375  
    1020A     25.253038  1021A     25.320760  1022A     25.329464  
    1023A     36.928322  1024A     36.970429  1025A     37.021435  
    1026A     37.072440  1027A     37.074837  1028A     37.136816  
    1029A     37.153349  1030A     51.765828  

    Final Occupation by Irrep:
              A 
    DOCC [   131 ]

  @DF-RHF Final Energy: -1572.27502164331599

   => Energetics <=

    Nuclear Repulsion Energy =           3578.9139651412347121
    One-Electron Energy =               -9255.6940741909165808
    Two-Electron Energy =                4104.5050874063654192
    Total Energy =                      -1572.2750216433159949

Computation Completed


Properties will be evaluated at   0.000000,   0.000000,   0.000000 [a0]

Properties computed using the SCF density matrix

  Nuclear Dipole Moment: [e a0]
     X:    51.6911      Y:     2.8655      Z:     2.6821

  Electronic Dipole Moment: [e a0]
     X:   -52.5478      Y:     0.0452      Z:    -2.8931

  Dipole Moment: [e a0]
     X:    -0.8568      Y:     2.9107      Z:    -0.2111     Total:     3.0415

  Dipole Moment: [D]
     X:    -2.1777      Y:     7.3983      Z:    -0.5365     Total:     7.7307


*** tstop() called on node91.bme.utexas.edu at Tue Apr 14 12:58:19 2020
Module time:
	user time   =    4352.39 seconds =      72.54 minutes
	system time =      63.67 seconds =       1.06 minutes
	total time  =        803 seconds =      13.38 minutes
Total time:
	user time   =    4352.39 seconds =      72.54 minutes
	system time =      63.67 seconds =       1.06 minutes
	total time  =        803 seconds =      13.38 minutes

*** tstart() called on node91.bme.utexas.edu
*** at Tue Apr 14 12:58:19 2020


  //>>>>>>>>>>>>>>>>>>>>>>>>>>>>>>>>>>>//
  //               DFMP2               //
  //<<<<<<<<<<<<<<<<<<<<<<<<<<<<<<<<<<<//

   => Loading Basis Set <=

    Name: (6-311++G** AUX)
    Role: RIFIT
    Keyword: DF_BASIS_MP2
    atoms 1-4, 6-9, 11, 14-19, 21-28, 30-31, 33-35, 37 entry C          line   148 file /home/bdw2292/miniconda3/envs/p4env/share/psi4/basis/aug-cc-pvtz-ri.gbs 
    atoms 5, 10, 12-13, 20, 29, 32                     entry N          line   206 file /home/bdw2292/miniconda3/envs/p4env/share/psi4/basis/aug-cc-pvtz-ri.gbs 
    atoms 36                                           entry O          line   264 file /home/bdw2292/miniconda3/envs/p4env/share/psi4/basis/aug-cc-pvtz-ri.gbs 
    atoms 38-68                                        entry H          line    30 file /home/bdw2292/miniconda3/envs/p4env/share/psi4/basis/aug-cc-pvtz-ri.gbs 

	 --------------------------------------------------------
	                          DF-MP2                         
	      2nd-Order Density-Fitted Moller-Plesset Theory     
	              RMP2 Wavefunction,   6 Threads             
	                                                         
	        Rob Parrish, Justin Turney, Andy Simmonett,      
	           Ed Hohenstein, and C. David Sherrill          
	 --------------------------------------------------------

   => Auxiliary Basis Set <=

  Basis Set: (6-311++G** AUX)
    Blend: AUG-CC-PVTZ-RI
    Number of shells: 1470
    Number of basis function: 5348
    Number of Cartesian functions: 6737
    Spherical Harmonics?: true
    Max angular momentum: 4

	 --------------------------------------------------------
	                 NBF =  1031, NAUX =  5348
	 --------------------------------------------------------
	   CLASS    FOCC     OCC    AOCC    AVIR     VIR    FVIR
	   PAIRS      37     131      94     899     899       0
	 --------------------------------------------------------

	-----------------------------------------------------------
	 ==================> DF-MP2 Energies <==================== 
	-----------------------------------------------------------
	 Reference Energy          =   -1572.2750216433159949 [Eh]
	 Singles Energy            =      -0.0000000000000000 [Eh]
	 Same-Spin Energy          =      -1.4690489226427947 [Eh]
	 Opposite-Spin Energy      =      -4.0494235128414555 [Eh]
	 Correlation Energy        =      -5.5184724354842505 [Eh]
	 Total Energy              =   -1577.7934940788002223 [Eh]
	-----------------------------------------------------------
	 ================> DF-SCS-MP2 Energies <================== 
	-----------------------------------------------------------
	 SCS Same-Spin Scale       =       0.3333333333333333 [-]
	 SCS Opposite-Spin Scale   =       1.2000000000000000 [-]
	 SCS Same-Spin Energy      =      -0.4896829742142649 [Eh]
	 SCS Opposite-Spin Energy  =      -4.8593082154097464 [Eh]
	 SCS Correlation Energy    =      -5.3489911896240114 [Eh]
	 SCS Total Energy          =   -1577.6240128329400250 [Eh]
	-----------------------------------------------------------


*** tstop() called on node91.bme.utexas.edu at Tue Apr 14 13:06:10 2020
Module time:
	user time   =    2611.89 seconds =      43.53 minutes
	system time =      20.05 seconds =       0.33 minutes
	total time  =        471 seconds =       7.85 minutes
Total time:
	user time   =    6964.28 seconds =     116.07 minutes
	system time =      83.72 seconds =       1.40 minutes
	total time  =       1274 seconds =      21.23 minutes


Properties will be evaluated at   0.000000,   0.000000,   0.000000 [a0]
OEProp: No title given, name of density matrix used for the following properties is 'SCF density'


  Wiberg Bond Indices using Orthogonal Lowdin Orbitals:

  Irrep: 1 Size: 68 x 68

                 1                   2                   3                   4                   5

    1     0.00000000000000     1.46390500747555     0.12527443978322     0.14040520800943     0.12369014898292
    2     1.46390500747555     0.00000000000000     1.40218000331426     0.12852951624017     0.12149190477177
    3     0.12527443978322     1.40218000331426     0.00000000000000     1.36088631911567     0.11863620910894
    4     0.14040520800943     0.12852951624017     1.36088631911567     0.00000000000000     1.66257798033351
    5     0.12369014898292     0.12149190477177     0.11863620910894     1.66257798033351     0.00000000000000
    6     1.46619194050135     0.13803021317047     0.13579571102796     0.15350438911416     1.62633155784376
    7     0.01461088861790     0.10291412558189     1.02028682897975     0.10420715862028     0.01391457824828
    8     0.00353861599528     0.04134991755756     0.09813100518867     0.02382357020147     0.00218114564830
    9     0.00036423563162     0.00465550655870     0.01470677503035     0.00408389490133     0.00067222373223
   10     0.00041213639062     0.00536687447785     0.00577510673528     0.00601275328998     0.00032170305874
   11     0.00086450198570     0.00333801704336     0.01800049738192     0.00685885166998     0.00043135552473
   12     0.00280778042038     0.02208179689005     0.11945516947233     0.06184692939402     0.00409229798907
   13     0.00016242487675     0.00047660797281     0.00163059567267     0.00093534916565     0.00008634636505
   14     0.00003070548344     0.00009427809365     0.00058112368395     0.00134215673048     0.00011502302818
   15     0.00001040047432     0.00002309170593     0.00006829970479     0.00014804292210     0.00001606654067
   16     0.00000211156550     0.00000617114423     0.00004272499823     0.00027125004267     0.00001303611653
   17     0.00001245822234     0.00001923563500     0.00005569501011     0.00027554036065     0.00004201132761
   18     0.00002824767061     0.00005444878567     0.00029895586167     0.00187634395195     0.00022915643906
   19     0.00017508464469     0.00024648015379     0.00205593795263     0.01061643637621     0.00062256084444
   20     0.00005854871622     0.00007099166729     0.00032425551623     0.00307842567140     0.00061209705104
   21     0.00001182565100     0.00001227982012     0.00005308326237     0.00037538650411     0.00019606944639
   22     0.00004506431292     0.00003394437144     0.00004990440305     0.00054327112622     0.00141053213785
   23     0.00044998342816     0.00031012007120     0.00038777995361     0.00621105360454     0.02148783241583
   24     0.00016593194051     0.00017543993490     0.00023279613468     0.00106100247658     0.00883233506063
   25     0.00001306526149     0.00000908479613     0.00001455926107     0.00009216632671     0.00037615287284
   26     0.00000688906696     0.00000414744559     0.00000857431110     0.00012523395983     0.00032622610131
   27     0.00000822759919     0.00000390590485     0.00001053968047     0.00015102837430     0.00043997371907
   28     0.00000405566884     0.00000155036813     0.00000245994437     0.00001440200705     0.00005736542006
   29     0.00000078630769     0.00000023683944     0.00000039941481     0.00000562067243     0.00001027985079
   30     0.00000034131786     0.00000010647078     0.00000011749253     0.00000124442644     0.00000234307139
   31     0.00000016436286     0.00000003370027     0.00000007028935     0.00000040493186     0.00000050151376
   32     0.00000004547664     0.00000001886503     0.00000003327180     0.00000014647116     0.00000036133180
   33     0.00000000866655     0.00000000609910     0.00000000854923     0.00000004512559     0.00000009290739
   34     0.00000021886335     0.00000006578558     0.00000007847523     0.00000043055531     0.00000092112865
   35     0.00000050687673     0.00000017542852     0.00000023794965     0.00000167058940     0.00000406878315
   36     0.00000179971402     0.00000245843413     0.00001234294924     0.00012230558956     0.00003623821198
   37     0.00000220996542     0.00000751130444     0.00003313670047     0.00003521471668     0.00000297502552
   38     0.88623892614666     0.07931377518202     0.01178784290423     0.00635663040221     0.01070890809771
   39     0.07736246119654     0.87047303062628     0.07302054937799     0.01178200172991     0.00395695448532
   40     0.00565558687528     0.01049506958062     0.06900987574319     0.85004609058552     0.08686957558341
   41     0.07686640113338     0.01178132049793     0.00604256720131     0.01589264157657     0.08792032533095
   42     0.00104454699141     0.01386532600272     0.01426562360821     0.00136385544267     0.00028936897094
   43     0.00004416105635     0.00027468054480     0.00143264204954     0.00031688578623     0.00007681983655
   44     0.00002465178672     0.00008217883432     0.00034978271697     0.00009246908280     0.00000786819953
   45     0.00000033321368     0.00000107535731     0.00000685850698     0.00001871324433     0.00000169758826
   46     0.00000092068344     0.00000166083240     0.00000696485972     0.00002511260354     0.00000795811530
   47     0.00013510568313     0.00019918712471     0.00199920500829     0.00777224373667     0.00056958077279
   48     0.00011062552795     0.00007428018562     0.00019854083261     0.00231928902830     0.00072352667900
   49     0.00040810291788     0.00015550432461     0.00030203076184     0.00525905960161     0.01421598767766
   50     0.00007498153612     0.00007048499040     0.00010020556190     0.00024670843697     0.00231343503984
   51     0.00000062849601     0.00000049471214     0.00000139703129     0.00001209291392     0.00002431144747
   52     0.00000120741093     0.00000061727689     0.00000132547609     0.00000891826752     0.00003832879188
   53     0.00000211891066     0.00000120167978     0.00000131482227     0.00000245062075     0.00001107738989
   54     0.00000066297647     0.00000033420223     0.00000039418973     0.00000239272470     0.00000785028910
   55     0.00000006320424     0.00000003416823     0.00000001129543     0.00000010789395     0.00000026498014
   56     0.00000003231339     0.00000001296394     0.00000001394727     0.00000031972190     0.00000030932996
   57     0.00000000584838     0.00000000366520     0.00000000383612     0.00000004201330     0.00000008272705
   58     0.00000002459061     0.00000000845984     0.00000000946212     0.00000002790277     0.00000013893345
   59     0.00000000583609     0.00000000255858     0.00000000235558     0.00000002423250     0.00000003673034
   60     0.00000000170160     0.00000000058381     0.00000000326432     0.00000000737861     0.00000001858125
   61     0.00000000180102     0.00000000207396     0.00000000209224     0.00000000918088     0.00000003171774
   62     0.00000002790292     0.00000000552530     0.00000000531423     0.00000004201252     0.00000009461197
   63     0.00000001636429     0.00000000652634     0.00000000615714     0.00000004011313     0.00000017870415
   64     0.00000003227322     0.00000004571549     0.00000003965520     0.00000028118396     0.00000054335860
   65     0.00000008409663     0.00000006711042     0.00000013264862     0.00000091896359     0.00000166551053
   66     0.00000078158550     0.00000204406265     0.00001196756407     0.00000872901343     0.00000057499370
   67     0.00000098466097     0.00000271688906     0.00000946729732     0.00000829173812     0.00000075198149
   68     0.00000025122783     0.00000067048843     0.00000370737489     0.00000806886840     0.00000044782663

                 6                   7                   8                   9                  10

    1     1.46619194050135     0.01461088861790     0.00353861599528     0.00036423563162     0.00041213639062
    2     0.13803021317047     0.10291412558189     0.04134991755756     0.00465550655870     0.00536687447785
    3     0.13579571102796     1.02028682897975     0.09813100518867     0.01470677503035     0.00577510673528
    4     0.15350438911416     0.10420715862028     0.02382357020147     0.00408389490133     0.00601275328998
    5     1.62633155784376     0.01391457824828     0.00218114564830     0.00067222373223     0.00032170305874
    6     0.00000000000000     0.00970417728527     0.00681796389117     0.00119772834076     0.00334061715454
    7     0.00970417728527     0.00000000000000     1.38750130269349     0.14628922008243     0.11210826783747
    8     0.00681796389117     1.38750130269349     0.00000000000000     1.43230801780589     0.13046006113226
    9     0.00119772834076     0.14628922008243     1.43230801780589     0.00000000000000     1.66142154035487
   10     0.00334061715454     0.11210826783747     0.13046006113226     1.66142154035487     0.00000000000000
   11     0.00084380311194     0.14180067614386     0.11323154090973     0.15264821046242     1.50812967148708
   12     0.00603695162150     1.53280587607120     0.12695915635428     0.11126691844247     0.11017972330099
   13     0.00007308453434     0.01941127626601     0.02064668928163     0.02416541629270     0.15975789458675
   14     0.00004362569468     0.00295765540255     0.00249757519807     0.00326688573833     0.01689893356134
   15     0.00000540819887     0.00050548196988     0.00144819523638     0.00093540114910     0.00313442024410
   16     0.00000416500947     0.00016859293541     0.00019364116184     0.00016186746782     0.00047272851852
   17     0.00000705670815     0.00025068483819     0.00128598067429     0.00044075713036     0.00125885449729
   18     0.00004420336245     0.00056063489080     0.00026525279046     0.00014068171072     0.00040646751654
   19     0.00019354273331     0.00574270019214     0.00310412311069     0.00152165123941     0.00429363251971
   20     0.00007477758828     0.00013142808274     0.00002876315976     0.00001775637117     0.00005798575713
   21     0.00002289819863     0.00002196601821     0.00000855199254     0.00000468320208     0.00001555721836
   22     0.00014353634023     0.00000799028590     0.00000265517070     0.00000127254583     0.00000330165099
   23     0.00194064847293     0.00006175001633     0.00001481529503     0.00000408838572     0.00000298884119
   24     0.00182594991778     0.00002455839204     0.00001465751589     0.00000232762714     0.00000270744776
   25     0.00019364714200     0.00000246299813     0.00000184651102     0.00000028919444     0.00000051142254
   26     0.00011126412286     0.00000135813224     0.00000050057474     0.00000014219862     0.00000025512009
   27     0.00010246528316     0.00000262500790     0.00000118099025     0.00000042574293     0.00000092515605
   28     0.00002749813764     0.00000089068832     0.00000025344808     0.00000006094819     0.00000004644077
   29     0.00000373028414     0.00000017565652     0.00000004320139     0.00000001566593     0.00000000937913
   30     0.00000106204719     0.00000008169642     0.00000003450203     0.00000000479879     0.00000000835216
   31     0.00000037713095     0.00000004150614     0.00000002781159     0.00000000294682     0.00000000848538
   32     0.00000014864031     0.00000001662092     0.00000000653224     0.00000000155860     0.00000000297787
   33     0.00000004215842     0.00000000403565     0.00000000188265     0.00000000079576     0.00000000133299
   34     0.00000047894888     0.00000003180013     0.00000001405115     0.00000000389462     0.00000000672358
   35     0.00000268780854     0.00000009508953     0.00000003478824     0.00000000907868     0.00000000784918
   36     0.00000678453831     0.00001101527168     0.00000846851931     0.00000414243292     0.00001140587038
   37     0.00000183078308     0.00014625974551     0.00014023293576     0.00013640336044     0.00075171778780
   38     0.08243385255024     0.00129015503362     0.00024658976239     0.00003902210189     0.00002568084678
   39     0.01171143730503     0.01614969241696     0.01464929422177     0.00113696533904     0.00039766995288
   40     0.01475010605784     0.01571630917875     0.00168362245856     0.00040083210287     0.00059266440285
   41     0.87921352942539     0.00054054975233     0.00026393744814     0.00005234957978     0.00010395083812
   42     0.00047114887851     0.07534576479107     0.87663969167313     0.08079357035926     0.01046372521183
   43     0.00004324210851     0.01168409536649     0.07503860185681     0.87553167131888     0.09024231304562
   44     0.00001162427480     0.00207868211816     0.00203167601539     0.00366818987738     0.03139460541652
   45     0.00000041232559     0.00001859698783     0.00000860323237     0.00002317080826     0.00005266700563
   46     0.00000113630301     0.00002285609145     0.00004145934842     0.00001635604641     0.00005142657894
   47     0.00018986654038     0.00410138307472     0.00089948239289     0.00042626647394     0.00074277248202
   48     0.00008905851208     0.00008535188435     0.00002650897981     0.00000954705007     0.00001968748677
   49     0.00143827098537     0.00005358165337     0.00001316254207     0.00000342113648     0.00000274586264
   50     0.00117670165668     0.00000975281189     0.00000466919848     0.00000076981156     0.00000069070388
   51     0.00000496586829     0.00000009754471     0.00000007454288     0.00000001585918     0.00000003590167
   52     0.00001026475032     0.00000047133177     0.00000013545661     0.00000006334700     0.00000013802761
   53     0.00000954002089     0.00000024070871     0.00000011649925     0.00000001533554     0.00000006521865
   54     0.00000482959368     0.00000011657100     0.00000002774270     0.00000000771786     0.00000001324636
   55     0.00000031247089     0.00000001454441     0.00000000693289     0.00000000263291     0.00000000157033
   56     0.00000014969730     0.00000001113535     0.00000000371006     0.00000000127851     0.00000000167255
   57     0.00000003019628     0.00000000134931     0.00000000092017     0.00000000026181     0.00000000027951
   58     0.00000004969015     0.00000000566794     0.00000000062847     0.00000000053510     0.00000000040876
   59     0.00000001674898     0.00000000065385     0.00000000058789     0.00000000014979     0.00000000021602
   60     0.00000000809098     0.00000000098983     0.00000000046183     0.00000000017966     0.00000000035974
   61     0.00000001272369     0.00000000107538     0.00000000065900     0.00000000018825     0.00000000022964
   62     0.00000007068051     0.00000000371364     0.00000000645938     0.00000000059359     0.00000000042867
   63     0.00000010349977     0.00000000293364     0.00000000235179     0.00000000123481     0.00000000062178
   64     0.00000049695619     0.00000002033639     0.00000000437147     0.00000000078671     0.00000000070805
   65     0.00000110722114     0.00000001387445     0.00000000895830     0.00000000266641     0.00000000347353
   66     0.00000037892355     0.00004629447702     0.00007597002698     0.00004407564489     0.00026655477554
   67     0.00000113297769     0.00004285650931     0.00010398638104     0.00003939597009     0.00028761905225
   68     0.00000015242202     0.00001452581731     0.00000530819043     0.00000425627458     0.00003211123508

                11                  12                  13                  14                  15

    1     0.00086450198570     0.00280778042038     0.00016242487675     0.00003070548344     0.00001040047432
    2     0.00333801704336     0.02208179689005     0.00047660797281     0.00009427809365     0.00002309170593
    3     0.01800049738192     0.11945516947233     0.00163059567267     0.00058112368395     0.00006829970479
    4     0.00685885166998     0.06184692939402     0.00093534916565     0.00134215673048     0.00014804292210
    5     0.00043135552473     0.00409229798907     0.00008634636505     0.00011502302818     0.00001606654067
    6     0.00084380311194     0.00603695162150     0.00007308453434     0.00004362569468     0.00000540819887
    7     0.14180067614386     1.53280587607120     0.01941127626601     0.00295765540255     0.00050548196988
    8     0.11323154090973     0.12695915635428     0.02064668928163     0.00249757519807     0.00144819523638
    9     0.15264821046242     0.11126691844247     0.02416541629270     0.00326688573833     0.00093540114910
   10     1.50812967148708     0.11017972330099     0.15975789458675     0.01689893356134     0.00313442024410
   11     0.00000000000000     1.53310685167976     1.27269209126999     0.08270394955956     0.01795289026070
   12     1.53310685167976     0.00000000000000     0.14232578204599     0.02990271052769     0.00352042261072
   13     1.27269209126999     0.14232578204599     0.00000000000000     1.12438233895161     0.10561427919026
   14     0.08270394955956     0.02990271052769     1.12438233895161     0.00000000000000     1.31769226200020
   15     0.01795289026070     0.00352042261072     0.10561427919026     1.31769226200020     0.00000000000000
   16     0.00238379352824     0.00118876935045     0.01428001782877     0.12561025015936     1.44133253854171
   17     0.00415108942918     0.00246426838148     0.01179434750638     0.11978753999729     0.12430508924528
   18     0.00242901225468     0.00489522159087     0.01305097385692     0.12215184832155     0.12009124002588
   19     0.02847500835789     0.05493005262350     0.11009185327493     1.40223104504147     0.11985030942649
   20     0.00033810018365     0.00108695935217     0.00129904927179     0.01493934203656     0.01131366659829
   21     0.00006142391647     0.00013055786244     0.00029844010214     0.00273769054853     0.00567350565903
   22     0.00001135618903     0.00002510758266     0.00005577819052     0.00035349042974     0.00030909669194
   23     0.00001368628414     0.00010801198004     0.00001266068988     0.00011062342274     0.00032945773694
   24     0.00000200772273     0.00001083810351     0.00000272364249     0.00001207413766     0.00003343361401
   25     0.00000075357587     0.00000249016731     0.00000171265079     0.00002424531163     0.00018331001144
   26     0.00000054343193     0.00000080762003     0.00000241381090     0.00001782057726     0.00003633524439
   27     0.00000336115189     0.00000455144920     0.00001294182696     0.00010082572663     0.00033948374331
   28     0.00000014681265     0.00000041942382     0.00000023126631     0.00000189190009     0.00000947844520
   29     0.00000004795015     0.00000014441603     0.00000005870563     0.00000034459348     0.00000075223603
   30     0.00000003163122     0.00000002781098     0.00000001997320     0.00000012600397     0.00000035293440
   31     0.00000001736214     0.00000001600493     0.00000000647451     0.00000004060356     0.00000012356132
   32     0.00000000798338     0.00000001397559     0.00000000569741     0.00000002240491     0.00000010221981
   33     0.00000000379173     0.00000000608545     0.00000000311298     0.00000001061854     0.00000003159099
   34     0.00000001496663     0.00000003831211     0.00000001229913     0.00000007133282     0.00000013168114
   35     0.00000002724483     0.00000010550203     0.00000005527199     0.00000031869303     0.00000112086290
   36     0.00004078824727     0.00005486550804     0.00014930363750     0.00102566687126     0.00333095168755
   37     0.00364006441358     0.00079267944196     0.03798320323977     0.09659266853737     1.05907733557422
   38     0.00008969391923     0.00031419881976     0.00001594154765     0.00000707261473     0.00000081641976
   39     0.00029188936878     0.00109737217250     0.00006985326667     0.00002577781361     0.00000422730022
   40     0.00274245372732     0.02506313364506     0.00043604743910     0.00121165384544     0.00015315774344
   41     0.00004325054660     0.00025096513641     0.00000575626323     0.00000390799271     0.00000057081682
   42     0.00575887489149     0.01075324554128     0.00104596983546     0.00012162276970     0.00006488535274
   43     0.01583794769795     0.00400941868258     0.00136076950535     0.00038648710275     0.00006262526860
   44     0.07413693492552     0.01162091374624     0.93400417714665     0.05930087634216     0.01488227639172
   45     0.00036560779473     0.00006391835652     0.00115553920038     0.01142580175917     0.07499586321352
   46     0.00014792289679     0.00015443954668     0.00050888358037     0.00524601823175     0.01051049731614
   47     0.00951253748115     0.03651878872989     0.01578442289482     0.07319283794763     0.00973320207109
   48     0.00011822923972     0.00064661117333     0.00017225519427     0.00203244198241     0.00111662796203
   49     0.00000955880684     0.00005789056095     0.00000474042898     0.00003774674242     0.00009007607916
   50     0.00000064548828     0.00000259609749     0.00000034512310     0.00000128367536     0.00000121041393
   51     0.00000007304871     0.00000015035578     0.00000049255298     0.00000258514479     0.00000293906334
   52     0.00000068167650     0.00000060182887     0.00000239979831     0.00001632805003     0.00002018245961
   53     0.00000003724885     0.00000007136208     0.00000006834003     0.00000085883435     0.00000618004241
   54     0.00000002699287     0.00000006413870     0.00000006341154     0.00000101177781     0.00000760385058
   55     0.00000000388010     0.00000000559993     0.00000000307990     0.00000004189853     0.00000020489387
   56     0.00000000354707     0.00000000778093     0.00000000682009     0.00000003158411     0.00000008688060
   57     0.00000000097147     0.00000000207355     0.00000000073434     0.00000000460938     0.00000000502561
   58     0.00000000159947     0.00000000496427     0.00000000139965     0.00000000961950     0.00000003720038
   59     0.00000000055022     0.00000000159046     0.00000000081279     0.00000000339667     0.00000002321486
   60     0.00000000065790     0.00000000180298     0.00000000064731     0.00000000138712     0.00000000333060
   61     0.00000000030594     0.00000000077054     0.00000000057951     0.00000000144574     0.00000000507427
   62     0.00000000241567     0.00000000129379     0.00000000095232     0.00000000343266     0.00000000828425
   63     0.00000000165153     0.00000000480281     0.00000000403232     0.00000001579272     0.00000002584566
   64     0.00000000262763     0.00000000887593     0.00000000369376     0.00000004109007     0.00000012642240
   65     0.00000000734735     0.00000000910203     0.00000002297251     0.00000017806612     0.00000083866745
   66     0.00084307135074     0.00027445045466     0.00987853461320     0.01644275946866     0.05721854272089
   67     0.00086293712242     0.00027859833322     0.00933132526995     0.01658592540277     0.05878626931159
   68     0.00023101700575     0.00006113828341     0.00200642489463     0.00894233487917     0.05984452042422

                16                  17                  18                  19                  20

    1     0.00000211156550     0.00001245822234     0.00002824767061     0.00017508464469     0.00005854871622
    2     0.00000617114423     0.00001923563500     0.00005444878567     0.00024648015379     0.00007099166729
    3     0.00004272499823     0.00005569501011     0.00029895586167     0.00205593795263     0.00032425551623
    4     0.00027125004267     0.00027554036065     0.00187634395195     0.01061643637621     0.00307842567140
    5     0.00001303611653     0.00004201132761     0.00022915643906     0.00062256084444     0.00061209705104
    6     0.00000416500947     0.00000705670815     0.00004420336245     0.00019354273331     0.00007477758828
    7     0.00016859293541     0.00025068483819     0.00056063489080     0.00574270019214     0.00013142808274
    8     0.00019364116184     0.00128598067429     0.00026525279046     0.00310412311069     0.00002876315976
    9     0.00016186746782     0.00044075713036     0.00014068171072     0.00152165123941     0.00001775637117
   10     0.00047272851852     0.00125885449729     0.00040646751654     0.00429363251971     0.00005798575713
   11     0.00238379352824     0.00415108942918     0.00242901225468     0.02847500835789     0.00033810018365
   12     0.00118876935045     0.00246426838148     0.00489522159087     0.05493005262350     0.00108695935217
   13     0.01428001782877     0.01179434750638     0.01305097385692     0.11009185327493     0.00129904927179
   14     0.12561025015936     0.11978753999729     0.12215184832155     1.40223104504147     0.01493934203656
   15     1.44133253854171     0.12430508924528     0.12009124002588     0.11985030942649     0.01131366659829
   16     0.00000000000000     1.44515052227235     0.13286733945822     0.12571768480538     0.01363428733833
   17     1.44515052227235     0.00000000000000     1.39891088995312     0.12210078801823     0.10449831221982
   18     0.13286733945822     1.39891088995312     0.00000000000000     1.36344444448787     1.12469368802928
   19     0.12571768480538     0.12210078801823     1.36344444448787     0.00000000000000     0.12333337172632
   20     0.01363428733833     0.10449831221982     1.12469368802928     0.12333337172632     0.00000000000000
   21     0.00278095065659     0.03116468509125     0.08597207541846     0.02231404393604     1.31230886399840
   22     0.00035232574362     0.00324728915239     0.01455257998967     0.00202854632701     0.10247599649814
   23     0.00013998827495     0.00115029257859     0.00365781696419     0.00115139846881     0.04079039438951
   24     0.00002060124306     0.00015648340509     0.00036994305680     0.00012027122857     0.00334894954408
   25     0.00002806877203     0.00028465380983     0.00038383213928     0.00024600466055     0.00348753264298
   26     0.00002279742056     0.00013132216829     0.00049489328082     0.00010270131756     0.00252188975671
   27     0.00010054288546     0.00093413065271     0.00231263961312     0.00070813976907     0.01777062425008
   28     0.00000243408928     0.00001969933956     0.00003298168096     0.00001577824069     0.00022541644122
   29     0.00000052463955     0.00000343887306     0.00000881071171     0.00000215650265     0.00004489774152
   30     0.00000032472769     0.00000114178324     0.00000232751000     0.00000068205228     0.00001107375300
   31     0.00000016644474     0.00000032272982     0.00000067758295     0.00000026764010     0.00000244844466
   32     0.00000007677847     0.00000021403044     0.00000026846299     0.00000014993046     0.00000170036448
   33     0.00000004154847     0.00000007873258     0.00000011720698     0.00000005483215     0.00000044896282
   34     0.00000012681743     0.00000039672152     0.00000093591778     0.00000035350883     0.00000501699474
   35     0.00000058762401     0.00000308553793     0.00000534046037     0.00000212887875     0.00003349937229
   36     0.00359509033726     0.05023384437766     0.03208507670035     0.00512275975529     0.19126818211858
   37     0.11532131657975     0.01436535814413     0.00738039267524     0.01404235988726     0.00072460122715
   38     0.00000034064045     0.00000069803352     0.00000534875833     0.00002253118458     0.00000538362243
   39     0.00000178619603     0.00000225158931     0.00000626948465     0.00003763385123     0.00000718751847
   40     0.00024533949135     0.00024147422651     0.00183859481314     0.00853454883388     0.00215265576156
   41     0.00000045574180     0.00000077968274     0.00000285954926     0.00001390816198     0.00000596371136
   42     0.00001113747966     0.00004670604389     0.00003005214193     0.00019895313397     0.00000672870214
   43     0.00001581792608     0.00001224795182     0.00001538964224     0.00010805694608     0.00000171540277
   44     0.00150560146288     0.00107942679852     0.00129048175491     0.01042152263280     0.00023881493979
   45     0.87139448844191     0.07895112214079     0.01175237338507     0.00566502155278     0.00102796912047
   46     0.07717197006108     0.85931445224817     0.07552561164234     0.01123074144556     0.01466877447884
   47     0.00568672863695     0.01028894825439     0.07194551603096     0.83889536526422     0.02387815565455
   48     0.00137029940266     0.01015712402779     0.06246543204263     0.02126331731327     0.93796357227997
   49     0.00004996953569     0.00033266298935     0.00140703294804     0.00057298510066     0.01524197527961
   50     0.00000195029450     0.00001323197527     0.00002934860475     0.00000824296434     0.00019650377789
   51     0.00000229133380     0.00001649219672     0.00006354538222     0.00001582645306     0.00027259042805
   52     0.00002794097185     0.00019008274077     0.00026641309378     0.00007342502954     0.00160438612990
   53     0.00000116183572     0.00000918729587     0.00001295568814     0.00000835719108     0.00010787421723
   54     0.00000105741823     0.00001168055254     0.00001307434804     0.00000925702319     0.00010660489754
   55     0.00000006398831     0.00000027941977     0.00000043304198     0.00000020086731     0.00000263331316
   56     0.00000005933148     0.00000028193437     0.00000059265834     0.00000013867438     0.00000223954691
   57     0.00000002748511     0.00000004315481     0.00000008665346     0.00000001828199     0.00000027859288
   58     0.00000004355286     0.00000011765123     0.00000014652012     0.00000007450086     0.00000056865901
   59     0.00000001018744     0.00000003592023     0.00000004400632     0.00000002608544     0.00000030725473
   60     0.00000000296197     0.00000000819766     0.00000001365031     0.00000000412047     0.00000006229331
   61     0.00000000655706     0.00000000826260     0.00000001468077     0.00000000748049     0.00000006405552
   62     0.00000000723142     0.00000002690779     0.00000005506012     0.00000001465018     0.00000023620904
   63     0.00000003984077     0.00000006493834     0.00000022372899     0.00000009130251     0.00000115124347
   64     0.00000015434289     0.00000028556547     0.00000040098218     0.00000017135404     0.00000212991287
   65     0.00000021957206     0.00000186673863     0.00000273486772     0.00000143230782     0.00002035981211
   66     0.01467884586792     0.00125210551154     0.00281642637946     0.00119695505967     0.00035550676631
   67     0.01541777056527     0.00126269628274     0.00293710971203     0.00126736095220     0.00034688414636
   68     0.02381179819134     0.00190569766160     0.00055047483462     0.00109305220302     0.00008278392651

                21                  22                  23                  24                  25

    1     0.00001182565100     0.00004506431292     0.00044998342816     0.00016593194051     0.00001306526149
    2     0.00001227982012     0.00003394437144     0.00031012007120     0.00017543993490     0.00000908479613
    3     0.00005308326237     0.00004990440305     0.00038777995361     0.00023279613468     0.00001455926107
    4     0.00037538650411     0.00054327112622     0.00621105360454     0.00106100247658     0.00009216632671
    5     0.00019606944639     0.00141053213785     0.02148783241583     0.00883233506063     0.00037615287284
    6     0.00002289819863     0.00014353634023     0.00194064847293     0.00182594991778     0.00019364714200
    7     0.00002196601821     0.00000799028590     0.00006175001633     0.00002455839204     0.00000246299813
    8     0.00000855199254     0.00000265517070     0.00001481529503     0.00001465751589     0.00000184651102
    9     0.00000468320208     0.00000127254583     0.00000408838572     0.00000232762714     0.00000028919444
   10     0.00001555721836     0.00000330165099     0.00000298884119     0.00000270744776     0.00000051142254
   11     0.00006142391647     0.00001135618903     0.00001368628414     0.00000200772273     0.00000075357587
   12     0.00013055786244     0.00002510758266     0.00010801198004     0.00001083810351     0.00000249016731
   13     0.00029844010214     0.00005577819052     0.00001266068988     0.00000272364249     0.00000171265079
   14     0.00273769054853     0.00035349042974     0.00011062342274     0.00001207413766     0.00002424531163
   15     0.00567350565903     0.00030909669194     0.00032945773694     0.00003343361401     0.00018331001144
   16     0.00278095065659     0.00035232574362     0.00013998827495     0.00002060124306     0.00002806877203
   17     0.03116468509125     0.00324728915239     0.00115029257859     0.00015648340509     0.00028465380983
   18     0.08597207541846     0.01455257998967     0.00365781696419     0.00036994305680     0.00038383213928
   19     0.02231404393604     0.00202854632701     0.00115139846881     0.00012027122857     0.00024600466055
   20     1.31230886399840     0.10247599649814     0.04079039438951     0.00334894954408     0.00348753264298
   21     0.00000000000000     0.97638326278339     0.10375759498634     0.01458924593785     0.01150568124737
   22     0.97638326278339     0.00000000000000     1.39589585252559     0.12699427555234     0.12361737480772
   23     0.10375759498634     1.39589585252559     0.00000000000000     1.47141659861146     0.12479305429623
   24     0.01458924593785     0.12699427555234     1.47141659861146     0.00000000000000     1.40462657745537
   25     0.01150568124737     0.12361737480772     0.12479305429623     1.40462657745537     0.00000000000000
   26     0.01492753222044     0.12593495536012     0.12835256906503     0.12578901133172     1.40584701527809
   27     0.11204314853022     1.38945042143551     0.12414593372117     0.13313767000418     0.12704824447223
   28     0.00070690095831     0.00754007016184     0.01493447780987     0.11251830385724     1.02026280543066
   29     0.00010565524717     0.00078817444153     0.00194540351108     0.01139075980794     0.07599726719643
   30     0.00002979072801     0.00019438856925     0.00039215972927     0.00217873105096     0.01506218546706
   31     0.00000749762016     0.00003956728311     0.00007602257627     0.00034987263997     0.00220357330485
   32     0.00000434229353     0.00002571286109     0.00002153990528     0.00008392724750     0.00056408578857
   33     0.00000125187084     0.00000835335102     0.00000765709906     0.00002953169310     0.00027561372530
   34     0.00001337431917     0.00008631679399     0.00010073480571     0.00032186514851     0.00209949829878
   35     0.00008969508036     0.00072072582404     0.00098611935023     0.00256196794082     0.01984126871153
   36     2.16874594199804     0.13626215250880     0.02564108998314     0.00340207287312     0.00661502584810
[...]
   15     0.00000008688060     0.00000000502561     0.00000003720038     0.00000002321486     0.00000000333060
   16     0.00000005933148     0.00000002748511     0.00000004355286     0.00000001018744     0.00000000296197
   17     0.00000028193437     0.00000004315481     0.00000011765123     0.00000003592023     0.00000000819766
   18     0.00000059265834     0.00000008665346     0.00000014652012     0.00000004400632     0.00000001365031
   19     0.00000013867438     0.00000001828199     0.00000007450086     0.00000002608544     0.00000000412047
   20     0.00000223954691     0.00000027859288     0.00000056865901     0.00000030725473     0.00000006229331
   21     0.00000771466179     0.00000083764925     0.00000150830347     0.00000073657891     0.00000015170072
   22     0.00004520140462     0.00000373718877     0.00001338299976     0.00000532636209     0.00000092789571
   23     0.00003983059037     0.00001466348046     0.00000727442868     0.00000345995501     0.00000124622442
   24     0.00018144678147     0.00006393614397     0.00003011724340     0.00001900021154     0.00000561793618
   25     0.00162785409072     0.00030126787172     0.00017191760835     0.00014503247731     0.00002833759208
   26     0.00082631385277     0.00005656033237     0.00011975307329     0.00008761273930     0.00001704871177
   27     0.00010591914954     0.00000708531338     0.00001266877165     0.00001061473965     0.00000228498098
   28     0.02174088345310     0.00183498411156     0.00212450772155     0.00077973658999     0.00013105413415
   29     0.06926067519639     0.00942498317834     0.01640954757079     0.00335564268393     0.00060523521877
   30     0.76925931229608     0.06178271461991     0.04884638159923     0.01176632554976     0.00359597403256
   31     0.04557198332027     0.88881767191963     0.79652235602083     0.01658329420780     0.01810231254504
   32     0.01248100217099     0.05846542715076     0.06284364690925     0.06726159430649     0.06297181860270
   33     0.01324326669779     0.01999073928425     0.01346909914240     0.90987808925282     0.91963524725185
   34     0.00908165866827     0.01353914506657     0.02418199280727     0.01710400546060     0.01305833852156
   35     0.02986317542702     0.00263655439309     0.00875950406200     0.01202397301656     0.00171255820908
   36     0.00000278928322     0.00000037312505     0.00000080762508     0.00000042826427     0.00000008660398
   37     0.00000000926307     0.00000000208123     0.00000000358566     0.00000000316849     0.00000000069909
   38     0.00000000478504     0.00000000080721     0.00000000152742     0.00000000075497     0.00000000034795
   39     0.00000000370910     0.00000000008947     0.00000000035792     0.00000000037093     0.00000000005611
   40     0.00000006035460     0.00000000853726     0.00000001214189     0.00000000592671     0.00000000318117
   41     0.00000015647833     0.00000001577224     0.00000002742725     0.00000000435619     0.00000000101320
   42     0.00000000079151     0.00000000007486     0.00000000008136     0.00000000005795     0.00000000004002
   43     0.00000000006862     0.00000000002264     0.00000000009730     0.00000000002173     0.00000000002030
   44     0.00000000096596     0.00000000010662     0.00000000020219     0.00000000007335     0.00000000004954
   45     0.00000000490688     0.00000000061317     0.00000000162635     0.00000000036301     0.00000000018627
   46     0.00000006928387     0.00000001151211     0.00000001474586     0.00000000420404     0.00000000153596
   47     0.00000001715261     0.00000000566932     0.00000000499483     0.00000000431694     0.00000000207160
   48     0.00000145491952     0.00000016084926     0.00000007469783     0.00000009494541     0.00000003277531
   49     0.00000927253112     0.00000197611804     0.00000083642226     0.00000056950340     0.00000012155262
   50     0.00004435444959     0.00000610779104     0.00000405697291     0.00000273694225     0.00000093369031
   51     0.00052215950698     0.00001894037531     0.00005688847102     0.00004835863676     0.00000530850899
   52     0.00001227585842     0.00000095013721     0.00000080375914     0.00000133903915     0.00000020289341
   53     0.00319757393526     0.00017688808228     0.00025410408170     0.00006744286938     0.00001873791148
   54     0.00684392621543     0.00025374703858     0.00059108141841     0.00030922295177     0.00004803102442
   55     0.02296235875975     0.00565607315070     0.00838115835198     0.00048633274250     0.00011425284616
   56     0.00000000000000     0.00834364918184     0.02225873823340     0.00660687832809     0.00137014759511
   57     0.00834364918184     0.00000000000000     0.02181468618670     0.00281373512322     0.00608553339909
   58     0.02225873823340     0.02181468618670     0.00000000000000     0.00095619222979     0.00120241225702
   59     0.00660687832809     0.00281373512322     0.00095619222979     0.00000000000000     0.03490638575096
   60     0.00137014759511     0.00608553339909     0.00120241225702     0.03490638575096     0.00000000000000
   61     0.00053213074797     0.00112947244601     0.00068779367846     0.03475139554533     0.03775014992666
   62     0.00038887921226     0.00136223319829     0.00119210263003     0.00325878796453     0.00113120887718
   63     0.00127403018487     0.00096270130285     0.00734800700039     0.00094862023592     0.00067625792180
   64     0.00841887878686     0.00054502392073     0.00134915332358     0.00762223614181     0.00061237452182
   65     0.00156189170647     0.00026275524015     0.00059547079872     0.00070264499206     0.00021397522783
   66     0.00000000388788     0.00000000019364     0.00000000085401     0.00000000093368     0.00000000006665
   67     0.00000000592410     0.00000000029683     0.00000000174700     0.00000000068864     0.00000000012949
   68     0.00000000085899     0.00000000011772     0.00000000075230     0.00000000011331     0.00000000003304

                61                  62                  63                  64                  65

    1     0.00000000180102     0.00000002790292     0.00000001636429     0.00000003227322     0.00000008409663
    2     0.00000000207396     0.00000000552530     0.00000000652634     0.00000004571549     0.00000006711042
    3     0.00000000209224     0.00000000531423     0.00000000615714     0.00000003965520     0.00000013264862
    4     0.00000000918088     0.00000004201252     0.00000004011313     0.00000028118396     0.00000091896359
    5     0.00000003171774     0.00000009461197     0.00000017870415     0.00000054335860     0.00000166551053
    6     0.00000001272369     0.00000007068051     0.00000010349977     0.00000049695619     0.00000110722114
    7     0.00000000107538     0.00000000371364     0.00000000293364     0.00000002033639     0.00000001387445
    8     0.00000000065900     0.00000000645938     0.00000000235179     0.00000000437147     0.00000000895830
    9     0.00000000018825     0.00000000059359     0.00000000123481     0.00000000078671     0.00000000266641
   10     0.00000000022964     0.00000000042867     0.00000000062178     0.00000000070805     0.00000000347353
   11     0.00000000030594     0.00000000241567     0.00000000165153     0.00000000262763     0.00000000734735
   12     0.00000000077054     0.00000000129379     0.00000000480281     0.00000000887593     0.00000000910203
   13     0.00000000057951     0.00000000095232     0.00000000403232     0.00000000369376     0.00000002297251
   14     0.00000000144574     0.00000000343266     0.00000001579272     0.00000004109007     0.00000017806612
   15     0.00000000507427     0.00000000828425     0.00000002584566     0.00000012642240     0.00000083866745
   16     0.00000000655706     0.00000000723142     0.00000003984077     0.00000015434289     0.00000021957206
   17     0.00000000826260     0.00000002690779     0.00000006493834     0.00000028556547     0.00000186673863
   18     0.00000001468077     0.00000005506012     0.00000022372899     0.00000040098218     0.00000273486772
   19     0.00000000748049     0.00000001465018     0.00000009130251     0.00000017135404     0.00000143230782
   20     0.00000006405552     0.00000023620904     0.00000115124347     0.00000212991287     0.00002035981211
   21     0.00000015221622     0.00000084546822     0.00000237990517     0.00000839653406     0.00005065562314
   22     0.00000086983959     0.00000458919129     0.00001796465133     0.00004526824693     0.00043175530402
   23     0.00000080439204     0.00000965354618     0.00001225489755     0.00005856070043     0.00061035211801
   24     0.00000476692871     0.00005320361826     0.00003465994033     0.00030918807518     0.00069612630744
   25     0.00002682051686     0.00020042440536     0.00041435057965     0.00444599110941     0.00743978634714
   26     0.00002380152792     0.00017719122859     0.00089724661492     0.00184518092231     0.01563745123018
   27     0.00000273234372     0.00001679174746     0.00004498390357     0.00012666361107     0.00192729702533
   28     0.00014818938687     0.00191367583197     0.00208074297337     0.02340871486706     0.01424162232421
   29     0.00065154701517     0.01083203355059     0.01618468477975     0.06740481502899     0.06827516530387
   30     0.00163630826754     0.00184387778778     0.00839862053477     0.03136634731093     0.01235677706562
   31     0.01250936095887     0.01497095215951     0.02335142739045     0.00930964103745     0.00303460841832
   32     0.06266313423429     0.05306384021091     0.06262231496575     0.01331883700257     0.01005879494343
   33     0.91975695612645     0.02263525168758     0.01307649065670     0.01457643488728     0.00205052512331
   34     0.02015201898268     0.84291344957802     0.80342209300446     0.04607357366957     0.06837674213782
   35     0.00366885031863     0.05641591566245     0.04820274952954     0.74665467775055     0.91230340725628
   36     0.00000005931064     0.00000038619939     0.00000138480781     0.00000356603954     0.00002281422280
   37     0.00000000160806     0.00000000301485     0.00000000581947     0.00000001065604     0.00000004611488
   38     0.00000000030531     0.00000000049968     0.00000000153350     0.00000000380043     0.00000001000920
   39     0.00000000020104     0.00000000046853     0.00000000037656     0.00000000210712     0.00000000730686
   40     0.00000000289451     0.00000000504592     0.00000001104683     0.00000006383106     0.00000023382623
   41     0.00000000393407     0.00000002742480     0.00000000742382     0.00000008588562     0.00000069067653
   42     0.00000000002437     0.00000000019581     0.00000000005160     0.00000000030755     0.00000000087170
   43     0.00000000002138     0.00000000008643     0.00000000015104     0.00000000033289     0.00000000028070
   44     0.00000000004646     0.00000000011900     0.00000000034292     0.00000000065674     0.00000000353929
   45     0.00000000024268     0.00000000076087     0.00000000559685     0.00000000724781     0.00000001740110
   46     0.00000000177040     0.00000001001640     0.00000002605805     0.00000006242186     0.00000038018903
   47     0.00000000088504     0.00000000918016     0.00000001066693     0.00000002538704     0.00000012307188
   48     0.00000002445756     0.00000008933738     0.00000018942707     0.00000076872536     0.00000661296638
   49     0.00000013008066     0.00000103440851     0.00000347687273     0.00000747444025     0.00002973311887
   50     0.00000095200880     0.00001092724723     0.00000711411017     0.00003378224151     0.00007794837408
   51     0.00002039417286     0.00009090738395     0.00119118137336     0.00079805743889     0.00795718849977
   52     0.00000035587568     0.00000436380171     0.00000480128032     0.00000667355505     0.00011006881120
   53     0.00003177597014     0.00048622877998     0.00021601212705     0.00110842075879     0.00101389068553
   54     0.00004749667259     0.00021025602918     0.00072298260555     0.00903168047063     0.00338205520293
   55     0.00025771477334     0.00049070548149     0.00040601338771     0.00083479492293     0.00131563457932
   56     0.00053213074797     0.00038887921226     0.00127403018487     0.00841887878686     0.00156189170647
   57     0.00112947244601     0.00136223319829     0.00096270130285     0.00054502392073     0.00026275524015
   58     0.00068779367846     0.00119210263003     0.00734800700039     0.00134915332358     0.00059547079872
   59     0.03475139554533     0.00325878796453     0.00094862023592     0.00762223614181     0.00070264499206
   60     0.03775014992666     0.00113120887718     0.00067625792180     0.00061237452182     0.00021397522783
   61     0.00000000000000     0.00713389186293     0.00121115134498     0.00147155361093     0.00019730529777
   62     0.00713389186293     0.00000000000000     0.01778056084575     0.00907454526975     0.00600472560122
   63     0.00121115134498     0.01778056084575     0.00000000000000     0.02252549202690     0.00906597586453
   64     0.00147155361093     0.00907454526975     0.02252549202690     0.00000000000000     0.03024766819130
   65     0.00019730529777     0.00600472560122     0.00906597586453     0.03024766819130     0.00000000000000
   66     0.00000000013816     0.00000000024947     0.00000000046030     0.00000000255393     0.00000002908509
   67     0.00000000011235     0.00000000028971     0.00000000111988     0.00000000428833     0.00000002819600
   68     0.00000000009499     0.00000000016636     0.00000000026557     0.00000000130662     0.00000000426272

                66                  67                  68

    1     0.00000078158550     0.00000098466097     0.00000025122783
    2     0.00000204406265     0.00000271688906     0.00000067048843
    3     0.00001196756407     0.00000946729732     0.00000370737489
    4     0.00000872901343     0.00000829173812     0.00000806886840
    5     0.00000057499370     0.00000075198149     0.00000044782663
    6     0.00000037892355     0.00000113297769     0.00000015242202
    7     0.00004629447702     0.00004285650931     0.00001452581731
    8     0.00007597002698     0.00010398638104     0.00000530819043
    9     0.00004407564489     0.00003939597009     0.00000425627458
   10     0.00026655477554     0.00028761905225     0.00003211123508
   11     0.00084307135074     0.00086293712242     0.00023101700575
   12     0.00027445045466     0.00027859833322     0.00006113828341
   13     0.00987853461320     0.00933132526995     0.00200642489463
   14     0.01644275946866     0.01658592540277     0.00894233487917
   15     0.05721854272089     0.05878626931159     0.05984452042422
   16     0.01467884586792     0.01541777056527     0.02381179819134
   17     0.00125210551154     0.00126269628274     0.00190569766160
   18     0.00281642637946     0.00293710971203     0.00055047483462
   19     0.00119695505967     0.00126736095220     0.00109305220302
   20     0.00035550676631     0.00034688414636     0.00008278392651
   21     0.00020077563366     0.00020941688632     0.00003050798150
   22     0.00001079241677     0.00001396923688     0.00000605206604
   23     0.00001297758623     0.00001325663140     0.00000251510687
   24     0.00000128025159     0.00000147965651     0.00000031687215
   25     0.00000742452605     0.00000765472550     0.00000026877505
   26     0.00000129303376     0.00000162368545     0.00000028132739
   27     0.00001214150327     0.00001406810415     0.00000154576736
   28     0.00000038729754     0.00000040169199     0.00000003543929
   29     0.00000002463942     0.00000002839802     0.00000001343868
   30     0.00000001311615     0.00000001549081     0.00000000568547
   31     0.00000000437237     0.00000000450380     0.00000000140981
   32     0.00000000492304     0.00000000466197     0.00000000106701
   33     0.00000000111190     0.00000000094275     0.00000000029539
   34     0.00000000443453     0.00000000550473     0.00000000217279
   35     0.00000004475534     0.00000004142291     0.00000001145385
   36     0.00011719445172     0.00012775490661     0.00001618720277
   37     0.91862093431532     0.91941426262860     0.92063574298488
   38     0.00000009273125     0.00000008899372     0.00000003868892
   39     0.00000027457045     0.00000027413715     0.00000010491805
   40     0.00000700311447     0.00000781719401     0.00000756955183
   41     0.00000005459668     0.00000006326145     0.00000004254891
   42     0.00000334277037     0.00000412103680     0.00000044844832
   43     0.00000305428594     0.00000282925015     0.00000065435785
   44     0.00538458752302     0.00383933580131     0.00104467752787
   45     0.00121597956802     0.00126755338916     0.00769767315758
   46     0.00021244780155     0.00020949330261     0.00012834143743
   47     0.00018315782687     0.00018192863948     0.00035032853207
   48     0.00003636810469     0.00004387951585     0.00003846486002
   49     0.00000366871423     0.00000306359217     0.00000115504650
   50     0.00000005422279     0.00000009098816     0.00000004706257
   51     0.00000015842854     0.00000011385143     0.00000006606731
   52     0.00000096231710     0.00000085461255     0.00000052389776
   53     0.00000026468194     0.00000024928470     0.00000001107818
   54     0.00000028988970     0.00000032835891     0.00000001239035
   55     0.00000000686039     0.00000000867807     0.00000000085885
   56     0.00000000388788     0.00000000592410     0.00000000085899
   57     0.00000000019364     0.00000000029683     0.00000000011772
   58     0.00000000085401     0.00000000174700     0.00000000075230
   59     0.00000000093368     0.00000000068864     0.00000000011331
   60     0.00000000006665     0.00000000012949     0.00000000003304
   61     0.00000000013816     0.00000000011235     0.00000000009499
   62     0.00000000024947     0.00000000028971     0.00000000016636
   63     0.00000000046030     0.00000000111988     0.00000000026557
   64     0.00000000255393     0.00000000428833     0.00000000130662
   65     0.00000002908509     0.00000002819600     0.00000000426272
   66     0.00000000000000     0.03543557590024     0.03909685292394
   67     0.03543557590024     0.00000000000000     0.03911287123446
   68     0.03909685292394     0.03911287123446     0.00000000000000



  Atomic Valences: 

 #  #
 Irrep: 1
      1:  4.3912297
      2:  4.4221911
      3:  4.6035443
      4:  4.5815652
      5:  3.9170104
      6:  4.5441900
      7:  4.7433543
      8:  4.3676988
      9:  4.5226085
     10:  3.8652760
     11:  5.0051476
     12:  3.9632529
     13:  4.0371800
     14:  4.6631928
     15:  4.6247961
     16:  4.4372648
     17:  4.4035996
     18:  4.6666788
     19:  4.4252437
     20:  4.0729154
     21:  4.9933683
     22:  4.6043556
     23:  4.4468457
     24:  4.4314628
     25:  4.6486419
     26:  4.4445030
     27:  4.4229284
     28:  4.4989607
     29:  4.2835693
     30:  4.5737645
     31:  4.5772380
     32:  4.2436247
     33:  4.2779021
     34:  4.5548617
     35:  4.5825028
     36:  2.7618317
     37:  4.1498790
     38:  1.0980733
     39:  1.1011002
     40:  1.1127086
     41:  1.0913689
     42:  1.1092891
     43:  1.0860138
     44:  1.1758128
     45:  1.0999272
     46:  1.1075659
     47:  1.1341786
     48:  1.1862288
     49:  1.1166969
     50:  1.1019532
     51:  1.1124457
     52:  1.0974133
     53:  1.1189993
     54:  1.1286358
     55:  1.0444200
     56:  1.0576923
     57:  1.1063760
     58:  1.0402094
     59:  1.1325084
     60:  1.1040045
     61:  1.1064702
     62:  1.0536742
     63:  1.0431110
     64:  1.0526495
     65:  1.1802927
     66:  1.1059841
     67:  1.1074887
     68:  1.1067721


    Psi4 stopped on: Tuesday, 14 April 2020 01:06PM
    Psi4 wall time for execution: 0:21:14.47

*** Psi4 exiting successfully. Buy a developer a beer!
