 Entering Gaussian System, Link 0=g09
 Input=MOLECULE0-opt-25-28-29-35-206.com
 Output=MOLECULE0-opt-25-28-29-35-206.log
 Initial command:
 /opt/g09gh/gaussian/g09/l1.exe /scratch/bdw2292/Gau-MOLECULE0/Gau-65860.inp -scrdir=/scratch/bdw2292/Gau-MOLECULE0/
 Entering Link 1 = /opt/g09gh/gaussian/g09/l1.exe PID=     65861.
  
 Copyright (c) 1988,1990,1992,1993,1995,1998,2003,2009, Gaussian, Inc.
                  All Rights Reserved.
  
 This is part of the Gaussian(R) 09 program.  It is based on
 the Gaussian(R) 03 system (copyright 2003, Gaussian, Inc.),
 the Gaussian(R) 98 system (copyright 1998, Gaussian, Inc.),
 the Gaussian(R) 94 system (copyright 1995, Gaussian, Inc.),
 the Gaussian 92(TM) system (copyright 1992, Gaussian, Inc.),
 the Gaussian 90(TM) system (copyright 1990, Gaussian, Inc.),
 the Gaussian 88(TM) system (copyright 1988, Gaussian, Inc.),
 the Gaussian 86(TM) system (copyright 1986, Carnegie Mellon
 University), and the Gaussian 82(TM) system (copyright 1983,
 Carnegie Mellon University). Gaussian is a federally registered
 trademark of Gaussian, Inc.
  
 This software contains proprietary and confidential information,
 including trade secrets, belonging to Gaussian, Inc.
  
 This software is provided under written license and may be
 used, copied, transmitted, or stored only in accord with that
 written license.
  
 The following legend is applicable only to US Government
 contracts under FAR:
  
                    RESTRICTED RIGHTS LEGEND
  
 Use, reproduction and disclosure by the US Government is
 subject to restrictions as set forth in subparagraphs (a)
 and (c) of the Commercial Computer Software - Restricted
 Rights clause in FAR 52.227-19.
  
 Gaussian, Inc.
 340 Quinnipiac St., Bldg. 40, Wallingford CT 06492
  
  
 ---------------------------------------------------------------
 Warning -- This program may not be used in any manner that
 competes with the business of Gaussian, Inc. or will provide
 assistance to any competitor of Gaussian, Inc.  The licensee
 of this program is prohibited from giving any competitor of
 Gaussian, Inc. access to this program.  By using this program,
 the user acknowledges that Gaussian, Inc. is engaged in the
 business of creating and licensing software in the field of
 computational chemistry and represents and warrants to the
 licensee that it is not a competitor of Gaussian, Inc. and that
 it will not use this program in any manner prohibited above.
 ---------------------------------------------------------------
  

 Cite this work as:
 Gaussian 09, Revision A.02,
 M. J. Frisch, G. W. Trucks, H. B. Schlegel, G. E. Scuseria, 
 M. A. Robb, J. R. Cheeseman, G. Scalmani, V. Barone, B. Mennucci, 
 G. A. Petersson, H. Nakatsuji, M. Caricato, X. Li, H. P. Hratchian, 
 A. F. Izmaylov, J. Bloino, G. Zheng, J. L. Sonnenberg, M. Hada, 
 M. Ehara, K. Toyota, R. Fukuda, J. Hasegawa, M. Ishida, T. Nakajima, 
 Y. Honda, O. Kitao, H. Nakai, T. Vreven, J. A. Montgomery, Jr., 
 J. E. Peralta, F. Ogliaro, M. Bearpark, J. J. Heyd, E. Brothers, 
 K. N. Kudin, V. N. Staroverov, R. Kobayashi, J. Normand, 
 K. Raghavachari, A. Rendell, J. C. Burant, S. S. Iyengar, J. Tomasi, 
 M. Cossi, N. Rega, J. M. Millam, M. Klene, J. E. Knox, J. B. Cross, 
 V. Bakken, C. Adamo, J. Jaramillo, R. Gomperts, R. E. Stratmann, 
 O. Yazyev, A. J. Austin, R. Cammi, C. Pomelli, J. W. Ochterski, 
 R. L. Martin, K. Morokuma, V. G. Zakrzewski, G. A. Voth, 
 P. Salvador, J. J. Dannenberg, S. Dapprich, A. D. Daniels, 
 O. Farkas, J. B. Foresman, J. V. Ortiz, J. Cioslowski, 
 and D. J. Fox, Gaussian, Inc., Wallingford CT, 2009.
 
 ******************************************
 Gaussian 09:  EM64L-G09RevA.02 11-Jun-2009
                11-Mar-2020 
 ******************************************
 %RWF=/scratch/bdw2292/Gau-MOLECULE0/,100GB
 %Nosave
 %Chk=MOLECULE0-opt-25-28-29-35-206.chk
 %Mem=20GB
 %Nproc=6
 Will use up to    6 processors via shared memory.
 --------------------------------------------------
 #P opt=(,maxcycle=400) wB97XD/6-31G* MaxDisk=100GB
 --------------------------------------------------
 1/6=400,14=-1,18=20,19=15,26=3,38=1/1,3;
 2/9=110,12=2,17=6,18=5,40=1/2;
 3/5=1,6=6,7=1,11=2,16=1,25=1,30=1,71=1,74=-58/1,2,3;
 4//1;
 5/5=2,38=5/2;
 6/7=2,8=2,9=2,10=2,28=1/1;
 7//1,2,3,16;
 1/6=400,14=-1,18=20,19=15/3(2);
 2/9=110/2;
 99//99;
 2/9=110/2;
 3/5=1,6=6,7=1,11=2,16=1,25=1,30=1,71=1,74=-58/1,2,3;
 4/5=5,16=3/1;
 5/5=2,38=5/2;
 7//1,2,3,16;
 1/6=400,14=-1,18=20,19=15/3(-5);
 2/9=110/2;
 6/7=2,8=2,9=2,10=2,19=2,28=1/1;
 99/9=1/99;
 Leave Link    1 at Wed Mar 11 00:05:11 2020, MaxMem= 2684354560 cpu:       0.2
 (Enter /opt/g09gh/gaussian/g09/l101.exe)
 -----------------------------------------------------------------
 MOLECULE0 Rotatable Bond Optimization on g2-node38.bme.utexas.edu
 -----------------------------------------------------------------
 Symbolic Z-matrix:
 Charge =  0 Multiplicity = 1
 C                     0.05101   4.60315  -1.38568 
 C                     1.37218   4.46865  -0.93652 
 C                     1.91651   3.1862   -0.72522 
 C                     1.05716   2.09887  -1.02129 
 N                    -0.20384   2.20463  -1.45837 
 C                    -0.69292   3.44247  -1.62791 
 C                     3.32566   2.94445  -0.24159 
 C                     4.30057   3.93148  -0.02729 
 C                     5.55556   3.46461   0.38036 
 N                     5.85457   2.18416   0.58298 
 C                     4.84921   1.307     0.37978 
 N                     3.62085   1.64958  -0.01775 
 N                     5.158    -0.02578   0.61054 
 C                     4.41694  -1.25369   0.44822 
 C                     5.11504  -2.49884   0.41869 
 C                     4.34687  -3.66082   0.23087 
 C                     2.95491  -3.66215   0.08058 
 C                     2.28174  -2.43796   0.14549 
 C                     3.02215  -1.25857   0.3243 
 N                     0.86902  -2.24635   0.01777 
 C                    -0.13789  -3.11282  -0.33701 
 C                    -1.49955  -2.51103  -0.62847 
 C                    -1.67089  -1.25844  -1.24246 
 C                    -2.95131  -0.74133  -1.44923 
 C                    -4.10273  -1.46364  -1.08347 
 C                    -3.91716  -2.72468  -0.48511 
 C                    -2.64007  -3.24775  -0.2689 
 C                    -5.49689  -0.86243  -1.27774 
 N                    -6.04341   0.06544  -0.2674 
 C                    -5.42004   0.15818   1.07271 
 C                    -6.03033  -0.83591   2.09363 
 N                    -7.50553  -0.76071   2.22793 
 C                    -8.02361   0.2655    3.14088 
 C                    -8.12801  -0.82056   0.88246 
 C                    -7.51261   0.16344  -0.14499 
 O                     0.02808  -4.32113  -0.39656 
 C                     6.62433  -2.61399   0.54515 
 H                    -0.39155   5.58184  -1.54632 
 H                     1.94563   5.37225  -0.74463 
 H                     1.42107   1.08177  -0.92499 
 H                    -1.72111   3.50333  -1.98105 
 H                     4.13838   4.99005  -0.189 
 H                     6.37242   4.16576   0.54924 
 H                     6.13194  -0.1086    0.86087 
 H                     4.84744  -4.62723   0.18634 
 H                     2.40092  -4.58076  -0.07048 
 H                     2.51003  -0.31124   0.37231 
 H                     0.56868  -1.29002   0.145 
 H                    -0.8004   -0.67596  -1.53609 
 H                    -3.04659   0.24797  -1.89655 
 H                    -4.78     -3.31463  -0.17733 
 H                    -2.50555  -4.22272   0.19271 
 H                    -5.51585  -0.3243   -2.23648 
 H                    -6.19882  -1.70468  -1.36771 
 H                    -4.42341   0.10143   1.01134 
 H                    -5.74165   1.59048   1.63636 
 H                    -5.4259   -0.55709   3.40043 
 H                    -5.70914  -2.08784   1.73748 
 H                    -7.80091   1.27188   2.768 
 H                    -7.57581   0.14894   4.13437 
 H                    -9.10935   0.16117   3.24927 
 H                    -9.17932  -0.71348   0.96691 
 H                    -7.84281  -2.24946   0.32533 
 H                    -7.86136   1.56106   0.30426 
 H                    -8.12465  -0.0565   -1.42686 
 H                     6.97209  -2.26084   1.52606 
 H                     7.1387   -2.01842  -0.22241 
 H                     6.98651  -3.64549   0.43552 
 
 NAtoms=     68 NQM=     68 NQMF=      0 NMic=      0 NMicF=      0 NTot=     68.
                    Isotopes and Nuclear Properties:
 (Nuclear quadrupole moments (NQMom) in fm**2, nuclear magnetic moments (NMagM)
  in nuclear magnetons)

  Atom         1           2           3           4           5           6           7           8           9          10
 IAtWgt=          12          12          12          12          14          12          12          12          12          14
 AtmWgt=  12.0000000  12.0000000  12.0000000  12.0000000  14.0030740  12.0000000  12.0000000  12.0000000  12.0000000  14.0030740
 NucSpn=           0           0           0           0           2           0           0           0           0           2
 AtZEff=   0.0000000   0.0000000   0.0000000   0.0000000   0.0000000   0.0000000   0.0000000   0.0000000   0.0000000   0.0000000
 NQMom=    0.0000000   0.0000000   0.0000000   0.0000000   2.0440000   0.0000000   0.0000000   0.0000000   0.0000000   2.0440000
 NMagM=    0.0000000   0.0000000   0.0000000   0.0000000   0.4037610   0.0000000   0.0000000   0.0000000   0.0000000   0.4037610

  Atom        11          12          13          14          15          16          17          18          19          20
 IAtWgt=          12          14          14          12          12          12          12          12          12          14
 AtmWgt=  12.0000000  14.0030740  14.0030740  12.0000000  12.0000000  12.0000000  12.0000000  12.0000000  12.0000000  14.0030740
 NucSpn=           0           2           2           0           0           0           0           0           0           2
 AtZEff=   0.0000000   0.0000000   0.0000000   0.0000000   0.0000000   0.0000000   0.0000000   0.0000000   0.0000000   0.0000000
 NQMom=    0.0000000   2.0440000   2.0440000   0.0000000   0.0000000   0.0000000   0.0000000   0.0000000   0.0000000   2.0440000
 NMagM=    0.0000000   0.4037610   0.4037610   0.0000000   0.0000000   0.0000000   0.0000000   0.0000000   0.0000000   0.4037610

  Atom        21          22          23          24          25          26          27          28          29          30
 IAtWgt=          12          12          12          12          12          12          12          12          14          12
 AtmWgt=  12.0000000  12.0000000  12.0000000  12.0000000  12.0000000  12.0000000  12.0000000  12.0000000  14.0030740  12.0000000
 NucSpn=           0           0           0           0           0           0           0           0           2           0
 AtZEff=   0.0000000   0.0000000   0.0000000   0.0000000   0.0000000   0.0000000   0.0000000   0.0000000   0.0000000   0.0000000
 NQMom=    0.0000000   0.0000000   0.0000000   0.0000000   0.0000000   0.0000000   0.0000000   0.0000000   2.0440000   0.0000000
 NMagM=    0.0000000   0.0000000   0.0000000   0.0000000   0.0000000   0.0000000   0.0000000   0.0000000   0.4037610   0.0000000

  Atom        31          32          33          34          35          36          37          38          39          40
 IAtWgt=          12          14          12          12          12          16          12           1           1           1
 AtmWgt=  12.0000000  14.0030740  12.0000000  12.0000000  12.0000000  15.9949146  12.0000000   1.0078250   1.0078250   1.0078250
 NucSpn=           0           2           0           0           0           0           0           1           1           1
 AtZEff=   0.0000000   0.0000000   0.0000000   0.0000000   0.0000000   0.0000000   0.0000000   0.0000000   0.0000000   0.0000000
 NQMom=    0.0000000   2.0440000   0.0000000   0.0000000   0.0000000   0.0000000   0.0000000   0.0000000   0.0000000   0.0000000
 NMagM=    0.0000000   0.4037610   0.0000000   0.0000000   0.0000000   0.0000000   0.0000000   2.7928460   2.7928460   2.7928460

  Atom        41          42          43          44          45          46          47          48          49          50
 IAtWgt=           1           1           1           1           1           1           1           1           1           1
 AtmWgt=   1.0078250   1.0078250   1.0078250   1.0078250   1.0078250   1.0078250   1.0078250   1.0078250   1.0078250   1.0078250
 NucSpn=           1           1           1           1           1           1           1           1           1           1
 AtZEff=   0.0000000   0.0000000   0.0000000   0.0000000   0.0000000   0.0000000   0.0000000   0.0000000   0.0000000   0.0000000
 NQMom=    0.0000000   0.0000000   0.0000000   0.0000000   0.0000000   0.0000000   0.0000000   0.0000000   0.0000000   0.0000000
 NMagM=    2.7928460   2.7928460   2.7928460   2.7928460   2.7928460   2.7928460   2.7928460   2.7928460   2.7928460   2.7928460

  Atom        51          52          53          54          55          56          57          58          59          60
 IAtWgt=           1           1           1           1           1           1           1           1           1           1
 AtmWgt=   1.0078250   1.0078250   1.0078250   1.0078250   1.0078250   1.0078250   1.0078250   1.0078250   1.0078250   1.0078250
 NucSpn=           1           1           1           1           1           1           1           1           1           1
 AtZEff=   0.0000000   0.0000000   0.0000000   0.0000000   0.0000000   0.0000000   0.0000000   0.0000000   0.0000000   0.0000000
 NQMom=    0.0000000   0.0000000   0.0000000   0.0000000   0.0000000   0.0000000   0.0000000   0.0000000   0.0000000   0.0000000
 NMagM=    2.7928460   2.7928460   2.7928460   2.7928460   2.7928460   2.7928460   2.7928460   2.7928460   2.7928460   2.7928460

  Atom        61          62          63          64          65          66          67          68
 IAtWgt=           1           1           1           1           1           1           1           1
 AtmWgt=   1.0078250   1.0078250   1.0078250   1.0078250   1.0078250   1.0078250   1.0078250   1.0078250
 NucSpn=           1           1           1           1           1           1           1           1
 AtZEff=   0.0000000   0.0000000   0.0000000   0.0000000   0.0000000   0.0000000   0.0000000   0.0000000
 NQMom=    0.0000000   0.0000000   0.0000000   0.0000000   0.0000000   0.0000000   0.0000000   0.0000000
 NMagM=    2.7928460   2.7928460   2.7928460   2.7928460   2.7928460   2.7928460   2.7928460   2.7928460
 Leave Link  101 at Wed Mar 11 00:05:11 2020, MaxMem= 2684354560 cpu:       0.4
 (Enter /opt/g09gh/gaussian/g09/l103.exe)

 GradGradGradGradGradGradGradGradGradGradGradGradGradGradGradGradGradGrad
 Berny optimization.
 Initialization pass.
                           ----------------------------
                           !    Initial Parameters    !
                           ! (Angstroms and Degrees)  !
 --------------------------                            --------------------------
 ! Name  Definition              Value          Derivative Info.                !
 --------------------------------------------------------------------------------
 ! R1    R(1,2)                  1.4019         estimate D2E/DX2                !
 ! R2    R(1,6)                  1.3997         estimate D2E/DX2                !
 ! R3    R(1,38)                 1.086          estimate D2E/DX2                !
 ! R4    R(2,3)                  1.4091         estimate D2E/DX2                !
 ! R5    R(2,39)                 1.0873         estimate D2E/DX2                !
 ! R6    R(3,4)                  1.4172         estimate D2E/DX2                !
 ! R7    R(3,7)                  1.5093         estimate D2E/DX2                !
 ! R8    R(4,5)                  1.3388         estimate D2E/DX2                !
 ! R9    R(4,40)                 1.0845         estimate D2E/DX2                !
 ! R10   R(5,6)                  1.3417         estimate D2E/DX2                !
 ! R11   R(6,41)                 1.0888         estimate D2E/DX2                !
 ! R12   R(7,8)                  1.4038         estimate D2E/DX2                !
 ! R13   R(7,12)                 1.3468         estimate D2E/DX2                !
 ! R14   R(8,9)                  1.3997         estimate D2E/DX2                !
 ! R15   R(8,42)                 1.0831         estimate D2E/DX2                !
 ! R16   R(9,10)                 1.3304         estimate D2E/DX2                !
 ! R17   R(9,43)                 1.0897         estimate D2E/DX2                !
 ! R18   R(10,11)                1.3496         estimate D2E/DX2                !
 ! R19   R(11,12)                1.3358         estimate D2E/DX2                !
 ! R20   R(11,13)                1.3874         estimate D2E/DX2                !
 ! R21   R(13,14)                1.4434         estimate D2E/DX2                !
 ! R22   R(13,44)                1.009          estimate D2E/DX2                !
 ! R23   R(14,15)                1.4278         estimate D2E/DX2                !
 ! R24   R(14,19)                1.4003         estimate D2E/DX2                !
 ! R25   R(15,16)                1.4055         estimate D2E/DX2                !
 ! R26   R(15,37)                1.5189         estimate D2E/DX2                !
 ! R27   R(16,17)                1.4001         estimate D2E/DX2                !
 ! R28   R(16,45)                1.0893         estimate D2E/DX2                !
 ! R29   R(17,18)                1.3986         estimate D2E/DX2                !
 ! R30   R(17,46)                1.0833         estimate D2E/DX2                !
 ! R31   R(18,19)                1.404          estimate D2E/DX2                !
 ! R32   R(18,20)                1.4314         estimate D2E/DX2                !
 ! R33   R(19,47)                1.078          estimate D2E/DX2                !
 ! R34   R(20,21)                1.375          estimate D2E/DX2                !
 ! R35   R(20,48)                1.0104         estimate D2E/DX2                !
 ! R36   R(21,22)                1.517          estimate D2E/DX2                !
 ! R37   R(21,36)                1.2211         estimate D2E/DX2                !
 ! R38   R(22,23)                1.4055         estimate D2E/DX2                !
 ! R39   R(22,27)                1.4046         estimate D2E/DX2                !
 ! R40   R(23,24)                1.3963         estimate D2E/DX2                !
 ! R41   R(23,49)                1.0878         estimate D2E/DX2                !
 ! R42   R(24,25)                1.4076         estimate D2E/DX2                !
 ! R43   R(24,50)                1.0899         estimate D2E/DX2                !
 ! R44   R(25,26)                1.4081         estimate D2E/DX2                !
 ! R45   R(25,28)                1.5306         estimate D2E/DX2                !
 ! R46   R(26,27)                1.3969         estimate D2E/DX2                !
 ! R47   R(26,51)                1.0896         estimate D2E/DX2                !
 ! R48   R(27,52)                1.0871         estimate D2E/DX2                !
 ! R49   R(28,29)                1.4766         estimate D2E/DX2                !
 ! R50   R(28,53)                1.0996         estimate D2E/DX2                !
 ! R51   R(28,54)                1.1001         estimate D2E/DX2                !
 ! R52   R(29,30)                1.4809         estimate D2E/DX2                !
 ! R53   R(29,35)                1.4775         estimate D2E/DX2                !
 ! R54   R(30,31)                1.5501         estimate D2E/DX2                !
 ! R55   R(30,55)                1.0001         estimate D2E/DX2                !
 ! R56   R(30,56)                1.5725         estimate D2E/DX2                !
 ! R57   R(31,32)                1.4832         estimate D2E/DX2                !
 ! R58   R(31,57)                1.4666         estimate D2E/DX2                !
 ! R59   R(31,58)                1.3406         estimate D2E/DX2                !
 ! R60   R(32,33)                1.468          estimate D2E/DX2                !
 ! R61   R(32,34)                1.4837         estimate D2E/DX2                !
 ! R62   R(33,59)                1.0961         estimate D2E/DX2                !
 ! R63   R(33,60)                1.096          estimate D2E/DX2                !
 ! R64   R(33,61)                1.0961         estimate D2E/DX2                !
 ! R65   R(34,35)                1.55           estimate D2E/DX2                !
 ! R66   R(34,62)                1.0601         estimate D2E/DX2                !
 ! R67   R(34,63)                1.56           estimate D2E/DX2                !
 ! R68   R(35,64)                1.5089         estimate D2E/DX2                !
 ! R69   R(35,65)                1.4374         estimate D2E/DX2                !
 ! R70   R(37,66)                1.099          estimate D2E/DX2                !
 ! R71   R(37,67)                1.0993         estimate D2E/DX2                !
 ! R72   R(37,68)                1.0987         estimate D2E/DX2                !
 ! A1    A(2,1,6)              118.4739         estimate D2E/DX2                !
 ! A2    A(2,1,38)             121.1897         estimate D2E/DX2                !
 ! A3    A(6,1,38)             120.3364         estimate D2E/DX2                !
 ! A4    A(1,2,3)              119.9608         estimate D2E/DX2                !
 ! A5    A(1,2,39)             118.2852         estimate D2E/DX2                !
 ! A6    A(3,2,39)             121.7462         estimate D2E/DX2                !
 ! A7    A(2,3,4)              115.6394         estimate D2E/DX2                !
 ! A8    A(2,3,7)              123.6746         estimate D2E/DX2                !
 ! A9    A(4,3,7)              120.6763         estimate D2E/DX2                !
 ! A10   A(3,4,5)              125.3622         estimate D2E/DX2                !
 ! A11   A(3,4,40)             119.8364         estimate D2E/DX2                !
 ! A12   A(5,4,40)             114.7793         estimate D2E/DX2                !
 ! A13   A(4,5,6)              117.2243         estimate D2E/DX2                !
 ! A14   A(1,6,5)              123.3267         estimate D2E/DX2                !
 ! A15   A(1,6,41)             120.7733         estimate D2E/DX2                !
 ! A16   A(5,6,41)             115.8978         estimate D2E/DX2                !
 ! A17   A(3,7,8)              125.7817         estimate D2E/DX2                !
 ! A18   A(3,7,12)             114.3227         estimate D2E/DX2                !
 ! A19   A(8,7,12)             119.8949         estimate D2E/DX2                !
 ! A20   A(7,8,9)              115.6346         estimate D2E/DX2                !
 ! A21   A(7,8,42)             124.085          estimate D2E/DX2                !
 ! A22   A(9,8,42)             120.2492         estimate D2E/DX2                !
 ! A23   A(8,9,10)             124.5337         estimate D2E/DX2                !
 ! A24   A(8,9,43)             120.1758         estimate D2E/DX2                !
 ! A25   A(10,9,43)            115.2897         estimate D2E/DX2                !
 ! A26   A(9,10,11)            115.7964         estimate D2E/DX2                !
 ! A27   A(10,11,12)           124.2735         estimate D2E/DX2                !
 ! A28   A(10,11,13)           115.6903         estimate D2E/DX2                !
 ! A29   A(12,11,13)           120.0361         estimate D2E/DX2                !
 ! A30   A(7,12,11)            119.841          estimate D2E/DX2                !
 ! A31   A(11,13,14)           133.1768         estimate D2E/DX2                !
 ! A32   A(11,13,44)           109.5695         estimate D2E/DX2                !
 ! A33   A(14,13,44)           116.979          estimate D2E/DX2                !
 ! A34   A(13,14,15)           119.5503         estimate D2E/DX2                !
 ! A35   A(13,14,19)           121.6233         estimate D2E/DX2                !
 ! A36   A(15,14,19)           118.8257         estimate D2E/DX2                !
 ! A37   A(14,15,16)           117.1616         estimate D2E/DX2                !
 ! A38   A(14,15,37)           123.3819         estimate D2E/DX2                !
 ! A39   A(16,15,37)           119.4394         estimate D2E/DX2                !
 ! A40   A(15,16,17)           123.9517         estimate D2E/DX2                !
 ! A41   A(15,16,45)           119.1948         estimate D2E/DX2                !
 ! A42   A(17,16,45)           116.8503         estimate D2E/DX2                !
 ! A43   A(16,17,18)           118.2121         estimate D2E/DX2                !
 ! A44   A(16,17,46)           121.6145         estimate D2E/DX2                !
 ! A45   A(18,17,46)           120.1693         estimate D2E/DX2                !
 ! A46   A(17,18,19)           119.1672         estimate D2E/DX2                !
 ! A47   A(17,18,20)           126.0216         estimate D2E/DX2                !
 ! A48   A(19,18,20)           114.798          estimate D2E/DX2                !
 ! A49   A(14,19,18)           122.6496         estimate D2E/DX2                !
 ! A50   A(14,19,47)           117.7887         estimate D2E/DX2                !
 ! A51   A(18,19,47)           119.5616         estimate D2E/DX2                !
 ! A52   A(18,20,21)           131.4105         estimate D2E/DX2                !
 ! A53   A(18,20,48)           114.1313         estimate D2E/DX2                !
 ! A54   A(21,20,48)           114.2838         estimate D2E/DX2                !
 ! A55   A(20,21,22)           117.1889         estimate D2E/DX2                !
 ! A56   A(20,21,36)           122.4542         estimate D2E/DX2                !
 ! A57   A(22,21,36)           120.3429         estimate D2E/DX2                !
 ! A58   A(21,22,23)           123.1556         estimate D2E/DX2                !
 ! A59   A(21,22,27)           118.1385         estimate D2E/DX2                !
 ! A60   A(23,22,27)           118.7056         estimate D2E/DX2                !
 ! A61   A(22,23,24)           120.4337         estimate D2E/DX2                !
 ! A62   A(22,23,49)           119.8413         estimate D2E/DX2                !
 ! A63   A(24,23,49)           119.7068         estimate D2E/DX2                !
 ! A64   A(23,24,25)           121.4406         estimate D2E/DX2                !
 ! A65   A(23,24,50)           118.4958         estimate D2E/DX2                !
 ! A66   A(25,24,50)           120.0615         estimate D2E/DX2                !
 ! A67   A(24,25,26)           117.5282         estimate D2E/DX2                !
 ! A68   A(24,25,28)           120.6996         estimate D2E/DX2                !
 ! A69   A(26,25,28)           121.7178         estimate D2E/DX2                !
 ! A70   A(25,26,27)           121.4397         estimate D2E/DX2                !
 ! A71   A(25,26,51)           120.0371         estimate D2E/DX2                !
 ! A72   A(27,26,51)           118.523          estimate D2E/DX2                !
 ! A73   A(22,27,26)           120.4204         estimate D2E/DX2                !
 ! A74   A(22,27,52)           118.5973         estimate D2E/DX2                !
 ! A75   A(26,27,52)           120.9761         estimate D2E/DX2                !
 ! A76   A(25,28,29)           119.8073         estimate D2E/DX2                !
 ! A77   A(25,28,53)           108.5778         estimate D2E/DX2                !
 ! A78   A(25,28,54)           106.9078         estimate D2E/DX2                !
 ! A79   A(29,28,53)           106.42           estimate D2E/DX2                !
 ! A80   A(29,28,54)           107.5111         estimate D2E/DX2                !
 ! A81   A(53,28,54)           107.0            estimate D2E/DX2                !
 ! A82   A(28,29,30)           120.1806         estimate D2E/DX2                !
 ! A83   A(28,29,35)           117.8005         estimate D2E/DX2                !
 ! A84   A(30,29,35)           109.8427         estimate D2E/DX2                !
 ! A85   A(29,30,31)           112.9601         estimate D2E/DX2                !
 ! A86   A(29,30,55)           111.1239         estimate D2E/DX2                !
 ! A87   A(29,30,56)           107.1769         estimate D2E/DX2                !
 ! A88   A(31,30,55)           113.35           estimate D2E/DX2                !
 ! A89   A(31,30,56)           105.5174         estimate D2E/DX2                !
 ! A90   A(55,30,56)           106.1108         estimate D2E/DX2                !
 ! A91   A(30,31,32)           114.7523         estimate D2E/DX2                !
 ! A92   A(30,31,57)           107.618          estimate D2E/DX2                !
 ! A93   A(30,31,58)           109.243          estimate D2E/DX2                !
 ! A94   A(32,31,57)           108.6381         estimate D2E/DX2                !
 ! A95   A(32,31,58)           108.0403         estimate D2E/DX2                !
 ! A96   A(57,31,58)           108.3914         estimate D2E/DX2                !
 ! A97   A(31,32,33)           116.2808         estimate D2E/DX2                !
 ! A98   A(31,32,34)           109.4584         estimate D2E/DX2                !
 ! A99   A(33,32,34)           116.3661         estimate D2E/DX2                !
 ! A100  A(32,33,59)           111.0118         estimate D2E/DX2                !
 ! A101  A(32,33,60)           110.1945         estimate D2E/DX2                !
 ! A102  A(32,33,61)           110.1535         estimate D2E/DX2                !
 ! A103  A(59,33,60)           108.8453         estimate D2E/DX2                !
 ! A104  A(59,33,61)           108.8008         estimate D2E/DX2                !
 ! A105  A(60,33,61)           107.7568         estimate D2E/DX2                !
 ! A106  A(32,34,35)           114.137          estimate D2E/DX2                !
 ! A107  A(32,34,62)           109.8615         estimate D2E/DX2                !
 ! A108  A(32,34,63)           106.5063         estimate D2E/DX2                !
 ! A109  A(35,34,62)           112.4824         estimate D2E/DX2                !
 ! A110  A(35,34,63)           105.7935         estimate D2E/DX2                !
 ! A111  A(62,34,63)           107.5945         estimate D2E/DX2                !
 ! A112  A(29,35,34)           114.0532         estimate D2E/DX2                !
 ! A113  A(29,35,64)           108.4167         estimate D2E/DX2                !
 ! A114  A(29,35,65)           109.8377         estimate D2E/DX2                !
 ! A115  A(34,35,64)           107.3911         estimate D2E/DX2                !
 ! A116  A(34,35,65)           108.9617         estimate D2E/DX2                !
 ! A117  A(64,35,65)           107.9889         estimate D2E/DX2                !
 ! A118  A(15,37,66)           111.3688         estimate D2E/DX2                !
 ! A119  A(15,37,67)           111.453          estimate D2E/DX2                !
 ! A120  A(15,37,68)           112.9797         estimate D2E/DX2                !
 ! A121  A(66,37,67)           107.5202         estimate D2E/DX2                !
 ! A122  A(66,37,68)           106.6443         estimate D2E/DX2                !
 ! A123  A(67,37,68)           106.5415         estimate D2E/DX2                !
 ! D1    D(6,1,2,3)             -0.6947         estimate D2E/DX2                !
 ! D2    D(6,1,2,39)          -179.7024         estimate D2E/DX2                !
 ! D3    D(38,1,2,3)           179.4282         estimate D2E/DX2                !
 ! D4    D(38,1,2,39)            0.4205         estimate D2E/DX2                !
 ! D5    D(2,1,6,5)             -0.3392         estimate D2E/DX2                !
 ! D6    D(2,1,6,41)          -179.7703         estimate D2E/DX2                !
 ! D7    D(38,1,6,5)           179.539          estimate D2E/DX2                !
 ! D8    D(38,1,6,41)            0.1079         estimate D2E/DX2                !
 ! D9    D(1,2,3,4)              1.2332         estimate D2E/DX2                !
 ! D10   D(1,2,3,7)           -179.8935         estimate D2E/DX2                !
 ! D11   D(39,2,3,4)          -179.7943         estimate D2E/DX2                !
 ! D12   D(39,2,3,7)            -0.921          estimate D2E/DX2                !
 ! D13   D(2,3,4,5)             -0.8822         estimate D2E/DX2                !
 ! D14   D(2,3,4,40)           177.3121         estimate D2E/DX2                !
 ! D15   D(7,3,4,5)           -179.792          estimate D2E/DX2                !
 ! D16   D(7,3,4,40)            -1.5977         estimate D2E/DX2                !
 ! D17   D(2,3,7,8)             -4.6035         estimate D2E/DX2                !
 ! D18   D(2,3,7,12)           175.713          estimate D2E/DX2                !
 ! D19   D(4,3,7,8)            174.2155         estimate D2E/DX2                !
 ! D20   D(4,3,7,12)            -5.4681         estimate D2E/DX2                !
 ! D21   D(3,4,5,6)             -0.0837         estimate D2E/DX2                !
 ! D22   D(40,4,5,6)          -178.3586         estimate D2E/DX2                !
 ! D23   D(4,5,6,1)              0.723          estimate D2E/DX2                !
 ! D24   D(4,5,6,41)          -179.8204         estimate D2E/DX2                !
 ! D25   D(3,7,8,9)           -177.8815         estimate D2E/DX2                !
 ! D26   D(3,7,8,42)             0.0843         estimate D2E/DX2                !
 ! D27   D(12,7,8,9)             1.7859         estimate D2E/DX2                !
 ! D28   D(12,7,8,42)          179.7517         estimate D2E/DX2                !
 ! D29   D(3,7,12,11)          178.2657         estimate D2E/DX2                !
 ! D30   D(8,7,12,11)           -1.4382         estimate D2E/DX2                !
 ! D31   D(7,8,9,10)            -0.8396         estimate D2E/DX2                !
 ! D32   D(7,8,9,43)           178.8238         estimate D2E/DX2                !
 ! D33   D(42,8,9,10)         -178.8893         estimate D2E/DX2                !
 ! D34   D(42,8,9,43)            0.7741         estimate D2E/DX2                !
 ! D35   D(8,9,10,11)           -0.473          estimate D2E/DX2                !
 ! D36   D(43,9,10,11)         179.8489         estimate D2E/DX2                !
 ! D37   D(9,10,11,12)           0.935          estimate D2E/DX2                !
 ! D38   D(9,10,11,13)        -179.097          estimate D2E/DX2                !
 ! D39   D(10,11,12,7)           0.0161         estimate D2E/DX2                !
 ! D40   D(13,11,12,7)        -179.9506         estimate D2E/DX2                !
 ! D41   D(10,11,13,14)       -176.1715         estimate D2E/DX2                !
 ! D42   D(10,11,13,44)         -2.5609         estimate D2E/DX2                !
 ! D43   D(12,11,13,14)          3.7979         estimate D2E/DX2                !
 ! D44   D(12,11,13,44)        177.4085         estimate D2E/DX2                !
 ! D45   D(11,13,14,15)        162.6892         estimate D2E/DX2                !
 ! D46   D(11,13,14,19)        -17.6171         estimate D2E/DX2                !
 ! D47   D(44,13,14,15)        -10.5536         estimate D2E/DX2                !
 ! D48   D(44,13,14,19)        169.1401         estimate D2E/DX2                !
 ! D49   D(13,14,15,16)       -178.7272         estimate D2E/DX2                !
 ! D50   D(13,14,15,37)         -0.2433         estimate D2E/DX2                !
 ! D51   D(19,14,15,16)          1.5706         estimate D2E/DX2                !
 ! D52   D(19,14,15,37)       -179.9455         estimate D2E/DX2                !
 ! D53   D(13,14,19,18)        179.0196         estimate D2E/DX2                !
 ! D54   D(13,14,19,47)         -1.12           estimate D2E/DX2                !
 ! D55   D(15,14,19,18)         -1.2846         estimate D2E/DX2                !
 ! D56   D(15,14,19,47)        178.5759         estimate D2E/DX2                !
 ! D57   D(14,15,16,17)         -0.3399         estimate D2E/DX2                !
 ! D58   D(14,15,16,45)        178.9885         estimate D2E/DX2                !
 ! D59   D(37,15,16,17)       -178.8862         estimate D2E/DX2                !
 ! D60   D(37,15,16,45)          0.4422         estimate D2E/DX2                !
 ! D61   D(14,15,37,66)         63.7071         estimate D2E/DX2                !
 ! D62   D(14,15,37,67)        -56.3645         estimate D2E/DX2                !
 ! D63   D(14,15,37,68)       -176.2925         estimate D2E/DX2                !
 ! D64   D(16,15,37,66)       -117.8418         estimate D2E/DX2                !
 ! D65   D(16,15,37,67)        122.0865         estimate D2E/DX2                !
 ! D66   D(16,15,37,68)          2.1586         estimate D2E/DX2                !
 ! D67   D(15,16,17,18)         -1.242          estimate D2E/DX2                !
 ! D68   D(15,16,17,46)        179.4877         estimate D2E/DX2                !
 ! D69   D(45,16,17,18)        179.4152         estimate D2E/DX2                !
 ! D70   D(45,16,17,46)          0.1449         estimate D2E/DX2                !
 ! D71   D(16,17,18,19)          1.5492         estimate D2E/DX2                !
 ! D72   D(16,17,18,20)       -179.8467         estimate D2E/DX2                !
 ! D73   D(46,17,18,19)       -179.1695         estimate D2E/DX2                !
 ! D74   D(46,17,18,20)         -0.5655         estimate D2E/DX2                !
 ! D75   D(17,18,19,14)         -0.3214         estimate D2E/DX2                !
 ! D76   D(17,18,19,47)        179.8205         estimate D2E/DX2                !
 ! D77   D(20,18,19,14)       -179.0778         estimate D2E/DX2                !
 ! D78   D(20,18,19,47)          1.0642         estimate D2E/DX2                !
 ! D79   D(17,18,20,21)         -8.3995         estimate D2E/DX2                !
 ! D80   D(17,18,20,48)        176.7596         estimate D2E/DX2                !
 ! D81   D(19,18,20,21)        170.2578         estimate D2E/DX2                !
 ! D82   D(19,18,20,48)         -4.5832         estimate D2E/DX2                !
 ! D83   D(18,20,21,22)       -168.591          estimate D2E/DX2                !
 ! D84   D(18,20,21,36)         12.7699         estimate D2E/DX2                !
 ! D85   D(48,20,21,22)          6.2437         estimate D2E/DX2                !
 ! D86   D(48,20,21,36)       -172.3953         estimate D2E/DX2                !
 ! D87   D(20,21,22,23)         35.063          estimate D2E/DX2                !
 ! D88   D(20,21,22,27)       -145.1428         estimate D2E/DX2                !
 ! D89   D(36,21,22,23)       -146.2677         estimate D2E/DX2                !
 ! D90   D(36,21,22,27)         33.5265         estimate D2E/DX2                !
 ! D91   D(21,22,23,24)       -178.1463         estimate D2E/DX2                !
 ! D92   D(21,22,23,49)          0.3002         estimate D2E/DX2                !
 ! D93   D(27,22,23,24)          2.0606         estimate D2E/DX2                !
 ! D94   D(27,22,23,49)       -179.4929         estimate D2E/DX2                !
 ! D95   D(21,22,27,26)        178.4158         estimate D2E/DX2                !
 ! D96   D(21,22,27,52)         -0.6821         estimate D2E/DX2                !
 ! D97   D(23,22,27,26)         -1.7806         estimate D2E/DX2                !
 ! D98   D(23,22,27,52)        179.1215         estimate D2E/DX2                !
 ! D99   D(22,23,24,25)         -1.5623         estimate D2E/DX2                !
 ! D100  D(22,23,24,50)        177.9024         estimate D2E/DX2                !
 ! D101  D(49,23,24,25)        179.9891         estimate D2E/DX2                !
 ! D102  D(49,23,24,50)         -0.5462         estimate D2E/DX2                !
 ! D103  D(23,24,25,26)          0.7182         estimate D2E/DX2                !
 ! D104  D(23,24,25,28)        178.0813         estimate D2E/DX2                !
 ! D105  D(50,24,25,26)       -178.7382         estimate D2E/DX2                !
 ! D106  D(50,24,25,28)         -1.3751         estimate D2E/DX2                !
 ! D107  D(24,25,26,27)         -0.4344         estimate D2E/DX2                !
 ! D108  D(24,25,26,51)        179.4265         estimate D2E/DX2                !
 ! D109  D(28,25,26,27)       -177.7689         estimate D2E/DX2                !
 ! D110  D(28,25,26,51)          2.092          estimate D2E/DX2                !
 ! D111  D(24,25,28,29)        -82.6325         estimate D2E/DX2                !
 ! D112  D(24,25,28,53)         39.795          estimate D2E/DX2                !
 ! D113  D(24,25,28,54)        154.9169         estimate D2E/DX2                !
 ! D114  D(26,25,28,29)         94.6185         estimate D2E/DX2                !
 ! D115  D(26,25,28,53)       -142.954          estimate D2E/DX2                !
 ! D116  D(26,25,28,54)        -27.8321         estimate D2E/DX2                !
 ! D117  D(25,26,27,22)          0.9932         estimate D2E/DX2                !
 ! D118  D(25,26,27,52)       -179.9306         estimate D2E/DX2                !
 ! D119  D(51,26,27,22)       -178.8698         estimate D2E/DX2                !
 ! D120  D(51,26,27,52)          0.2064         estimate D2E/DX2                !
 ! D121  D(25,28,29,30)        -15.2819         estimate D2E/DX2                !
 ! D122  D(25,28,29,35)       -153.9184         estimate D2E/DX2                !
 ! D123  D(53,28,29,30)       -138.7589         estimate D2E/DX2                !
 ! D124  D(53,28,29,35)         82.6046         estimate D2E/DX2                !
 ! D125  D(54,28,29,30)        106.8731         estimate D2E/DX2                !
 ! D126  D(54,28,29,35)        -31.7634         estimate D2E/DX2                !
 ! D127  D(28,29,30,31)        -89.8032         estimate D2E/DX2                !
 ! D128  D(28,29,30,55)         38.8888         estimate D2E/DX2                !
 ! D129  D(28,29,30,56)        154.4071         estimate D2E/DX2                !
 ! D130  D(35,29,30,31)         51.7742         estimate D2E/DX2                !
 ! D131  D(35,29,30,55)       -179.5337         estimate D2E/DX2                !
 ! D132  D(35,29,30,56)        -64.0154         estimate D2E/DX2                !
 ! D133  D(28,29,35,34)         90.8146         estimate D2E/DX2                !
 ! D134  D(28,29,35,64)       -149.6076         estimate D2E/DX2                !
 ! D135  D(28,29,35,65)        -31.8218         estimate D2E/DX2                !
 ! D136  D(30,29,35,34)        -51.79           estimate D2E/DX2                !
 ! D137  D(30,29,35,64)         67.7878         estimate D2E/DX2                !
 ! D138  D(30,29,35,65)       -174.4264         estimate D2E/DX2                !
 ! D139  D(29,30,31,32)        -53.5424         estimate D2E/DX2                !
 ! D140  D(29,30,31,57)       -174.5838         estimate D2E/DX2                !
 ! D141  D(29,30,31,58)         67.9336         estimate D2E/DX2                !
 ! D142  D(55,30,31,32)        178.9258         estimate D2E/DX2                !
 ! D143  D(55,30,31,57)         57.8844         estimate D2E/DX2                !
 ! D144  D(55,30,31,58)        -59.5982         estimate D2E/DX2                !
 ! D145  D(56,30,31,32)         63.2329         estimate D2E/DX2                !
 ! D146  D(56,30,31,57)        -57.8084         estimate D2E/DX2                !
 ! D147  D(56,30,31,58)       -175.291          estimate D2E/DX2                !
 ! D148  D(30,31,32,33)        -83.9972         estimate D2E/DX2                !
 ! D149  D(30,31,32,34)         50.4114         estimate D2E/DX2                !
 ! D150  D(57,31,32,33)         36.4831         estimate D2E/DX2                !
 ! D151  D(57,31,32,34)        170.8916         estimate D2E/DX2                !
 ! D152  D(58,31,32,33)        153.8725         estimate D2E/DX2                !
 ! D153  D(58,31,32,34)        -71.719          estimate D2E/DX2                !
 ! D154  D(31,32,33,59)         65.6512         estimate D2E/DX2                !
 ! D155  D(31,32,33,60)        -55.0104         estimate D2E/DX2                !
 ! D156  D(31,32,33,61)       -173.7702         estimate D2E/DX2                !
 ! D157  D(34,32,33,59)        -65.6049         estimate D2E/DX2                !
 ! D158  D(34,32,33,60)        173.7335         estimate D2E/DX2                !
 ! D159  D(34,32,33,61)         54.9736         estimate D2E/DX2                !
 ! D160  D(31,32,34,35)        -49.4899         estimate D2E/DX2                !
 ! D161  D(31,32,34,62)       -176.8921         estimate D2E/DX2                !
 ! D162  D(31,32,34,63)         66.86           estimate D2E/DX2                !
 ! D163  D(33,32,34,35)         84.8755         estimate D2E/DX2                !
 ! D164  D(33,32,34,62)        -42.5267         estimate D2E/DX2                !
 ! D165  D(33,32,34,63)       -158.7746         estimate D2E/DX2                !
 ! D166  D(32,34,35,29)         52.6089         estimate D2E/DX2                !
 ! D167  D(32,34,35,64)        -67.546          estimate D2E/DX2                !
 ! D168  D(32,34,35,65)        175.7226         estimate D2E/DX2                !
 ! D169  D(62,34,35,29)        178.6501         estimate D2E/DX2                !
 ! D170  D(62,34,35,64)         58.4952         estimate D2E/DX2                !
 ! D171  D(62,34,35,65)        -58.2362         estimate D2E/DX2                !
 ! D172  D(63,34,35,29)        -64.154          estimate D2E/DX2                !
 ! D173  D(63,34,35,64)        175.6912         estimate D2E/DX2                !
 ! D174  D(63,34,35,65)         58.9597         estimate D2E/DX2                !
 --------------------------------------------------------------------------------
 Trust Radius=3.00D-01 FncErr=1.00D-07 GrdErr=1.00D-06
 Number of steps in this run= 400 maximum allowed number of steps= 408.
 GradGradGradGradGradGradGradGradGradGradGradGradGradGradGradGradGradGrad

 Leave Link  103 at Wed Mar 11 00:05:11 2020, MaxMem= 2684354560 cpu:       0.1
 (Enter /opt/g09gh/gaussian/g09/l202.exe)
 Stoichiometry    C29H31N7O
 Framework group  C1[X(C29H31N7O)]
 Deg. of freedom   198
 Full point group                 C1      NOp   1
 Largest Abelian subgroup         C1      NOp   1
 Largest concise Abelian subgroup C1      NOp   1
                         Standard orientation:                         
 ---------------------------------------------------------------------
 Center     Atomic      Atomic             Coordinates (Angstroms)
 Number     Number       Type             X           Y           Z
 ---------------------------------------------------------------------
      1          6           0        0.893814    4.818257   -0.975855
      2          6           0        2.172522    4.516610   -0.486731
      3          6           0        2.578912    3.173270   -0.360618
      4          6           0        1.633254    2.204572   -0.779876
      5          7           0        0.410992    2.470703   -1.256936
      6          6           0        0.053184    3.760964   -1.342942
      7          6           0        3.933002    2.753693    0.157490
      8          6           0        4.987729    3.617677    0.491661
      9          6           0        6.170354    2.996304    0.909293
     10          7           0        6.333484    1.680329    1.017085
     11          6           0        5.258625    0.927501    0.701830
     12          7           0        4.089910    1.422140    0.285065
     13          7           0        5.425039   -0.443565    0.833710
     14          6           0        4.576878   -1.574088    0.540739
     15          6           0        5.151346   -2.877044    0.436301
     16          6           0        4.283879   -3.937452    0.122310
     17          6           0        2.907223   -3.786814   -0.083290
     18          6           0        2.353796   -2.509925    0.055648
     19          6           0        3.195802   -1.428759    0.360996
     20          7           0        0.974160   -2.167612   -0.112346
     21          6           0       -0.093907   -2.897796   -0.577713
     22          6           0       -1.375063   -2.140965   -0.872763
     23          6           0       -1.394179   -0.833237   -1.387367
     24          6           0       -2.606883   -0.175213   -1.601830
     25          6           0       -3.839277   -0.804325   -1.343584
     26          6           0       -3.806084   -2.120644   -0.844666
     27          6           0       -2.597720   -2.784983   -0.621429
     28          6           0       -5.157474   -0.052411   -1.543203
     29          7           0       -5.659267    0.843725   -0.482284
     30          6           0       -5.095040    0.767915    0.884827
     31          6           0       -5.847421   -0.236600    1.794674
     32          7           0       -7.313091   -0.023982    1.875457
     33          6           0       -7.772372    0.974458    2.848681
     34          6           0       -7.872973    0.084780    0.505767
     35          6           0       -7.116181    1.079291   -0.411216
     36          8           0       -0.043416   -4.108271   -0.730347
     37          6           0        6.634470   -3.153152    0.613243
     38          1           0        0.556658    5.846106   -1.072573
     39          1           0        2.821130    5.340037   -0.197876
     40          1           0        1.891591    1.151594   -0.753556
     41          1           0       -0.946046    3.952547   -1.730792
     42          1           0        4.937094    4.696599    0.411733
     43          1           0        7.042380    3.596225    1.168244
     44          1           0        6.373143   -0.643405    1.115201
     45          1           0        4.689768   -4.942879    0.018074
     46          1           0        2.274536   -4.630291   -0.331949
     47          1           0        2.776402   -0.441357    0.466651
     48          1           0        0.762361   -1.198830    0.081431
     49          1           0       -0.458110   -0.320173   -1.596633
     50          1           0       -2.583977    0.850655   -1.969214
     51          1           0       -4.735945   -2.642994   -0.621628
     52          1           0       -2.580912   -3.801708   -0.237061
     53          1           0       -5.077924    0.558362   -2.454108
     54          1           0       -5.932749   -0.810037   -1.730644
     55          1           0       -4.106847    0.616074    0.858999
     56          1           0       -5.302758    2.176715    1.551714
     57          1           0       -5.282350   -0.123341    3.143261
     58          1           0       -5.632589   -1.482732    1.349323
     59          1           0       -7.435286    1.979408    2.569590
     60          1           0       -7.386332    0.735899    3.846270
     61          1           0       -8.867062    0.971829    2.904416
     62          1           0       -8.911753    0.290240    0.556548
     63          1           0       -7.701441   -1.317497   -0.155807
     64          1           0       -7.348735    2.465399    0.137795
     65          1           0       -7.684298    1.023233   -1.730404
     66          1           0        6.967287   -2.914779    1.633168
     67          1           0        7.240599   -2.554101   -0.081148
     68          1           0        6.899599   -4.204096    0.433240
 ---------------------------------------------------------------------
 Rotational constants (GHZ):      0.1411204      0.0474265      0.0384143
 Leave Link  202 at Wed Mar 11 00:05:11 2020, MaxMem= 2684354560 cpu:       0.0
 (Enter /opt/g09gh/gaussian/g09/l301.exe)
 Standard basis: 6-31G(d) (6D, 7F)
 Ernie: Thresh=  0.10000D-02 Tol=  0.10000D-05 Strict=F.
 There are   617 symmetry adapted basis functions of A   symmetry.
 Integral buffers will be    131072 words long.
 Raffenetti 2 integral format.
 Two-electron integral symmetry is turned on.
   617 basis functions,  1160 primitive gaussians,   617 cartesian basis functions
   131 alpha electrons      131 beta electrons
       nuclear repulsion energy      3671.8948341051 Hartrees.
 IExCor= 4639 DFT=T Ex+Corr=wB97XD ExCW=0 ScaHFX=  1.000000
 ScaDFX=  1.000000  1.000000  1.000000  1.000000 ScalE2=  1.000000  1.000000
 IRadAn=      0 IRanWt=     -1 IRanGd=            0 ICorTp=0
  HFx wShort=  0.000000 wLong=  0.200000 cFull=  0.222036 cShort=  0.000000 cLong=  0.777964
  DFx wShort=  0.000000 wLong=  0.200000 cFull=  0.000000 cShort=  0.000000 cLong=  1.000000
 NAtoms=   68 NActive=   68 NUniq=   68 SFac= 7.50D-01 NAtFMM=   80 NAOKFM=F Big=T
 R6Disp: Dispersion energy =        -0.0557248452 Hartrees.
 Nuclear repulsion after empirical dispersion term =     3671.8391092599 Hartrees.
 Leave Link  301 at Wed Mar 11 00:05:11 2020, MaxMem= 2684354560 cpu:       0.3
 (Enter /opt/g09gh/gaussian/g09/l302.exe)
 NPDir=0 NMtPBC=     1 NCelOv=     1 NCel=       1 NClECP=     1 NCelD=      1
         NCelK=      1 NCelE2=     1 NClLst=     1 CellRange=     0.0.
 One-electron integrals computed using PRISM.
 NBasis=   617 RedAO= T  NBF=   617
 NBsUse=   617 1.00D-06 NBFU=   617
 Precomputing XC quadrature grid using
 IXCGrd= 2 IRadAn=           0 IRanWt=          -1 IRanGd=           0 AccXCQ= 1.00D-10.
 NRdTot=    4396 NPtTot=      562444 NUsed=      594113 NTot=      594145
 NSgBfM=   592   592   592   592   592 NAtAll=    68    68.
 Leave Link  302 at Wed Mar 11 00:05:12 2020, MaxMem= 2684354560 cpu:       7.4
 (Enter /opt/g09gh/gaussian/g09/l303.exe)
 DipDrv:  MaxL=1.
 Leave Link  303 at Wed Mar 11 00:05:12 2020, MaxMem= 2684354560 cpu:       0.5
 (Enter /opt/g09gh/gaussian/g09/l401.exe)
 Harris functional with IExCor= 4639 diagonalized for initial guess.
 ExpMin= 1.61D-01 ExpMax= 5.48D+03 ExpMxC= 8.25D+02 IAcc=1 IRadAn=         1 AccDes= 0.00D+00
 HarFok:  IExCor= 4639 AccDes= 0.00D+00 IRadAn=         1 IDoV= 1
 ScaDFX=  1.000000  1.000000  1.000000  1.000000
 FoFCou: FMM=F IPFlag=           0 FMFlag=      100000 FMFlg1=           1
         NFxFlg=           0 DoJE=T BraDBF=F KetDBF=T FulRan=T
         Omega=  0.000000  0.000000  1.000000  0.000000  0.000000 ICntrl=     500 IOpCl=  0
         NMat0=    1 NMatS0=    1 NMatT0=    0 NMatD0=    1 NMtDS0=    0 NMtDT0=    0
         I1Cent=           4 NGrid=           0.
 Petite list used in FoFCou.
 Harris En= -1512.35383755751    
 Initial guess orbital symmetries:
       Occupied  (A) (A) (A) (A) (A) (A) (A) (A) (A) (A) (A) (A)
                 (A) (A) (A) (A) (A) (A) (A) (A) (A) (A) (A) (A)
                 (A) (A) (A) (A) (A) (A) (A) (A) (A) (A) (A) (A)
                 (A) (A) (A) (A) (A) (A) (A) (A) (A) (A) (A) (A)
                 (A) (A) (A) (A) (A) (A) (A) (A) (A) (A) (A) (A)
                 (A) (A) (A) (A) (A) (A) (A) (A) (A) (A) (A) (A)
                 (A) (A) (A) (A) (A) (A) (A) (A) (A) (A) (A) (A)
                 (A) (A) (A) (A) (A) (A) (A) (A) (A) (A) (A) (A)
                 (A) (A) (A) (A) (A) (A) (A) (A) (A) (A) (A) (A)
                 (A) (A) (A) (A) (A) (A) (A) (A) (A) (A) (A) (A)
                 (A) (A) (A) (A) (A) (A) (A) (A) (A) (A) (A)
       Virtual   (A) (A) (A) (A) (A) (A) (A) (A) (A) (A) (A) (A)
                 (A) (A) (A) (A) (A) (A) (A) (A) (A) (A) (A) (A)
                 (A) (A) (A) (A) (A) (A) (A) (A) (A) (A) (A) (A)
                 (A) (A) (A) (A) (A) (A) (A) (A) (A) (A) (A) (A)
                 (A) (A) (A) (A) (A) (A) (A) (A) (A) (A) (A) (A)
                 (A) (A) (A) (A) (A) (A) (A) (A) (A) (A) (A) (A)
                 (A) (A) (A) (A) (A) (A) (A) (A) (A) (A) (A) (A)
                 (A) (A) (A) (A) (A) (A) (A) (A) (A) (A) (A) (A)
                 (A) (A) (A) (A) (A) (A) (A) (A) (A) (A) (A) (A)
                 (A) (A) (A) (A) (A) (A) (A) (A) (A) (A) (A) (A)
                 (A) (A) (A) (A) (A) (A) (A) (A) (A) (A) (A) (A)
                 (A) (A) (A) (A) (A) (A) (A) (A) (A) (A) (A) (A)
                 (A) (A) (A) (A) (A) (A) (A) (A) (A) (A) (A) (A)
                 (A) (A) (A) (A) (A) (A) (A) (A) (A) (A) (A) (A)
                 (A) (A) (A) (A) (A) (A) (A) (A) (A) (A) (A) (A)
                 (A) (A) (A) (A) (A) (A) (A) (A) (A) (A) (A) (A)
                 (A) (A) (A) (A) (A) (A) (A) (A) (A) (A) (A) (A)
                 (A) (A) (A) (A) (A) (A) (A) (A) (A) (A) (A) (A)
                 (A) (A) (A) (A) (A) (A) (A) (A) (A) (A) (A) (A)
                 (A) (A) (A) (A) (A) (A) (A) (A) (A) (A) (A) (A)
                 (A) (A) (A) (A) (A) (A) (A) (A) (A) (A) (A) (A)
                 (A) (A) (A) (A) (A) (A) (A) (A) (A) (A) (A) (A)
                 (A) (A) (A) (A) (A) (A) (A) (A) (A) (A) (A) (A)
                 (A) (A) (A) (A) (A) (A) (A) (A) (A) (A) (A) (A)
                 (A) (A) (A) (A) (A) (A) (A) (A) (A) (A) (A) (A)
                 (A) (A) (A) (A) (A) (A) (A) (A) (A) (A) (A) (A)
                 (A) (A) (A) (A) (A) (A) (A) (A) (A) (A) (A) (A)
                 (A) (A) (A) (A) (A) (A) (A) (A) (A) (A) (A) (A)
                 (A) (A) (A) (A) (A) (A) (A) (A) (A) (A) (A) (A)
                 (A) (A) (A) (A) (A) (A) (A) (A) (A) (A) (A) (A)
                 (A) (A) (A) (A) (A) (A) (A) (A) (A) (A) (A) (A)
                 (A) (A) (A) (A) (A) (A) (A) (A) (A) (A) (A) (A)
                 (A) (A) (A) (A) (A) (A) (A) (A) (A) (A) (A) (A)
                 (A) (A) (A) (A) (A) (A) (A) (A) (A) (A) (A) (A)
                 (A) (A) (A) (A) (A) (A) (A) (A) (A) (A) (A) (A)
                 (A) (A) (A) (A) (A) (A) (A) (A) (A) (A) (A) (A)
                 (A) (A) (A) (A) (A) (A) (A) (A) (A) (A) (A) (A)
                 (A) (A) (A) (A) (A) (A) (A) (A) (A) (A) (A) (A)
                 (A) (A) (A) (A) (A) (A) (A) (A) (A) (A) (A) (A)
                 (A) (A) (A) (A) (A) (A) (A) (A) (A) (A) (A) (A)
                 (A) (A) (A) (A) (A) (A)
 The electronic state of the initial guess is 1-A.
 Leave Link  401 at Wed Mar 11 00:05:15 2020, MaxMem= 2684354560 cpu:      14.3
 (Enter /opt/g09gh/gaussian/g09/l502.exe)
 Closed shell SCF:
 Requested convergence on RMS density matrix=1.00D-08 within 128 cycles.
 Requested convergence on MAX density matrix=1.00D-06.
 Requested convergence on             energy=1.00D-06.
 No special actions if energy rises.
 Using DIIS extrapolation, IDIIS=  1040.
 Integral symmetry usage will be decided dynamically.
       593488 words used for storage of precomputed grid.
 IEnd=     1762068 IEndB=     1762068 NGot=  2684354560 MDV=  2682990439
 LenX=  2682990439 LenY=  2682609133
 Fock matrices will be formed incrementally for  20 cycles.
 Integral accuracy reduced to 1.0D-05 until final iterations.

 Cycle   1  Pass 0  IDiag  1:
 FoFJK:  IHMeth= 1 ICntrl=     0 DoSepK=T KAlg= 1 I1Cent= 0 FoldK=F
 FoFCou: FMM=T IPFlag=           0 FMFlag=      100000 FMFlg1=           1
         NFxFlg=           0 DoJE=T BraDBF=F KetDBF=F FulRan=T
         Omega=  0.000000  0.000000  1.000000  0.000000  0.000000 ICntrl=     500 IOpCl=  0
         NMat0=    1 NMatS0=    1 NMatT0=    0 NMatD0=    1 NMtDS0=    0 NMtDT0=    0
         I1Cent=           0 NGrid=           0.
 Symmetry not used in FoFCou.
 FMM levels:  10  Number of levels for PrismC:   9
 E= -1581.09245509958    
 DIIS: error= 5.69D-02 at cycle   1 NSaved=   1.
 NSaved= 1 IEnMin= 1 EnMin= -1581.09245509958     IErMin= 1 ErrMin= 5.69D-02
 ErrMax= 5.69D-02 EMaxC= 1.00D-01 BMatC= 1.46D+00 BMatP= 1.46D+00
 IDIUse=3 WtCom= 4.31D-01 WtEn= 5.69D-01
 Coeff-Com:  0.100D+01
 Coeff-En:   0.100D+01
 Coeff:      0.100D+01
 Gap=     0.275 Goal=   None    Shift=    0.000
 GapD=    0.275 DampG=1.000 DampE=0.500 DampFc=0.5000 IDamp=-1.
 Damping current iteration by 5.00D-01
 RMSDP=1.90D-03 MaxDP=8.88D-02              OVMax= 1.71D-01

 Cycle   2  Pass 0  IDiag  1:
 RMSU=  6.71D-04    CP:  1.00D+00
 FoFJK:  IHMeth= 1 ICntrl=     0 DoSepK=T KAlg= 1 I1Cent= 0 FoldK=F
 E= -1581.27031392145     Delta-E=       -0.177858821870 Rises=F Damp=T
 DIIS: error= 2.96D-02 at cycle   2 NSaved=   2.
 NSaved= 2 IEnMin= 2 EnMin= -1581.27031392145     IErMin= 2 ErrMin= 2.96D-02
 ErrMax= 2.96D-02 EMaxC= 1.00D-01 BMatC= 3.22D-01 BMatP= 1.46D+00
 IDIUse=3 WtCom= 7.04D-01 WtEn= 2.96D-01
 Coeff-Com: -0.648D+00 0.165D+01
 Coeff-En:   0.000D+00 0.100D+01
 Coeff:     -0.456D+00 0.146D+01
 Gap=     0.281 Goal=   None    Shift=    0.000
 RMSDP=8.79D-04 MaxDP=3.85D-02 DE=-1.78D-01 OVMax= 1.21D-01

 Cycle   3  Pass 0  IDiag  1:
 RMSU=  5.68D-04    CP:  1.00D+00  1.38D+00
 FoFJK:  IHMeth= 1 ICntrl=     0 DoSepK=T KAlg= 1 I1Cent= 0 FoldK=F
 E= -1581.40222879837     Delta-E=       -0.131914876914 Rises=F Damp=F
 DIIS: error= 7.98D-03 at cycle   3 NSaved=   3.
 NSaved= 3 IEnMin= 3 EnMin= -1581.40222879837     IErMin= 3 ErrMin= 7.98D-03
 ErrMax= 7.98D-03 EMaxC= 1.00D-01 BMatC= 6.18D-02 BMatP= 3.22D-01
 IDIUse=3 WtCom= 9.20D-01 WtEn= 7.98D-02
 Coeff-Com: -0.360D+00 0.745D+00 0.615D+00
 Coeff-En:   0.000D+00 0.000D+00 0.100D+01
 Coeff:     -0.331D+00 0.685D+00 0.646D+00
 Gap=     0.262 Goal=   None    Shift=    0.000
 RMSDP=4.73D-04 MaxDP=3.10D-02 DE=-1.32D-01 OVMax= 6.17D-02

 Cycle   4  Pass 0  IDiag  1:
 RMSU=  1.44D-04    CP:  1.00D+00  1.67D+00  5.96D-01
 FoFJK:  IHMeth= 1 ICntrl=     0 DoSepK=T KAlg= 1 I1Cent= 0 FoldK=F
 E= -1581.45722271902     Delta-E=       -0.054993920650 Rises=F Damp=F
 DIIS: error= 2.56D-03 at cycle   4 NSaved=   4.
 NSaved= 4 IEnMin= 4 EnMin= -1581.45722271902     IErMin= 4 ErrMin= 2.56D-03
 ErrMax= 2.56D-03 EMaxC= 1.00D-01 BMatC= 3.79D-03 BMatP= 6.18D-02
 IDIUse=3 WtCom= 9.74D-01 WtEn= 2.56D-02
 Coeff-Com: -0.162D+00 0.330D+00 0.348D+00 0.483D+00
 Coeff-En:   0.000D+00 0.000D+00 0.000D+00 0.100D+01
 Coeff:     -0.158D+00 0.322D+00 0.340D+00 0.496D+00
 Gap=     0.256 Goal=   None    Shift=    0.000
 RMSDP=1.05D-04 MaxDP=9.03D-03 DE=-5.50D-02 OVMax= 1.04D-02

 Cycle   5  Pass 0  IDiag  1:
 RMSU=  4.64D-05    CP:  1.00D+00  1.65D+00  6.65D-01  7.17D-01
 FoFJK:  IHMeth= 1 ICntrl=     0 DoSepK=T KAlg= 1 I1Cent= 0 FoldK=F
 E= -1581.46052957613     Delta-E=       -0.003306857109 Rises=F Damp=F
 DIIS: error= 4.27D-04 at cycle   5 NSaved=   5.
 NSaved= 5 IEnMin= 5 EnMin= -1581.46052957613     IErMin= 5 ErrMin= 4.27D-04
 ErrMax= 4.27D-04 EMaxC= 1.00D-01 BMatC= 8.97D-05 BMatP= 3.79D-03
 IDIUse=3 WtCom= 9.96D-01 WtEn= 4.27D-03
 Coeff-Com: -0.137D-01 0.270D-01 0.501D-01 0.156D+00 0.780D+00
 Coeff-En:   0.000D+00 0.000D+00 0.000D+00 0.000D+00 0.100D+01
 Coeff:     -0.137D-01 0.269D-01 0.499D-01 0.156D+00 0.781D+00
 Gap=     0.254 Goal=   None    Shift=    0.000
 RMSDP=2.46D-05 MaxDP=2.51D-03 DE=-3.31D-03 OVMax= 2.96D-03

 Cycle   6  Pass 0  IDiag  1:
 RMSU=  1.31D-05    CP:  1.00D+00  1.65D+00  6.71D-01  7.86D-01  9.92D-01
 FoFJK:  IHMeth= 1 ICntrl=     0 DoSepK=T KAlg= 1 I1Cent= 0 FoldK=F
 E= -1581.46061861988     Delta-E=       -0.000089043750 Rises=F Damp=F
 DIIS: error= 3.58D-04 at cycle   6 NSaved=   6.
 NSaved= 6 IEnMin= 6 EnMin= -1581.46061861988     IErMin= 6 ErrMin= 3.58D-04
 ErrMax= 3.58D-04 EMaxC= 1.00D-01 BMatC= 2.67D-05 BMatP= 8.97D-05
 IDIUse=3 WtCom= 9.96D-01 WtEn= 3.58D-03
 Coeff-Com:  0.230D-01-0.477D-01-0.371D-01-0.133D-01 0.398D+00 0.677D+00
 Coeff-En:   0.000D+00 0.000D+00 0.000D+00 0.000D+00 0.000D+00 0.100D+01
 Coeff:      0.230D-01-0.475D-01-0.369D-01-0.132D-01 0.396D+00 0.679D+00
 Gap=     0.255 Goal=   None    Shift=    0.000
 RMSDP=1.31D-05 MaxDP=7.98D-04 DE=-8.90D-05 OVMax= 1.59D-03

 Cycle   7  Pass 0  IDiag  1:
 RMSU=  5.70D-06    CP:  1.00D+00  1.66D+00  6.75D-01  8.13D-01  1.11D+00
                    CP:  8.84D-01
 FoFJK:  IHMeth= 1 ICntrl=     0 DoSepK=T KAlg= 1 I1Cent= 0 FoldK=F
 E= -1581.46064850939     Delta-E=       -0.000029889518 Rises=F Damp=F
 DIIS: error= 6.11D-05 at cycle   7 NSaved=   7.
 NSaved= 7 IEnMin= 7 EnMin= -1581.46064850939     IErMin= 7 ErrMin= 6.11D-05
 ErrMax= 6.11D-05 EMaxC= 1.00D-01 BMatC= 1.68D-06 BMatP= 2.67D-05
 IDIUse=1 WtCom= 1.00D+00 WtEn= 0.00D+00
 Coeff-Com:  0.940D-02-0.192D-01-0.170D-01-0.196D-01 0.641D-01 0.235D+00
 Coeff-Com:  0.748D+00
 Coeff:      0.940D-02-0.192D-01-0.170D-01-0.196D-01 0.641D-01 0.235D+00
 Coeff:      0.748D+00
 Gap=     0.255 Goal=   None    Shift=    0.000
 RMSDP=4.10D-06 MaxDP=2.52D-04 DE=-2.99D-05 OVMax= 6.37D-04

 Initial convergence to 1.0D-05 achieved.  Increase integral accuracy.
 Cycle   8  Pass 1  IDiag  1:
 FoFJK:  IHMeth= 1 ICntrl=     0 DoSepK=T KAlg= 1 I1Cent= 0 FoldK=F
 E= -1581.45833927432     Delta-E=        0.002309235069 Rises=F Damp=F
 DIIS: error= 1.18D-04 at cycle   1 NSaved=   1.
 NSaved= 1 IEnMin= 1 EnMin= -1581.45833927432     IErMin= 1 ErrMin= 1.18D-04
 ErrMax= 1.18D-04 EMaxC= 1.00D-01 BMatC= 1.37D-05 BMatP= 1.37D-05
 IDIUse=3 WtCom= 9.99D-01 WtEn= 1.18D-03
 Coeff-Com:  0.100D+01
 Coeff-En:   0.100D+01
 Coeff:      0.100D+01
 Gap=     0.255 Goal=   None    Shift=    0.000
 RMSDP=4.10D-06 MaxDP=2.52D-04 DE= 2.31D-03 OVMax= 4.19D-04

 Cycle   9  Pass 1  IDiag  1:
 RMSU=  1.81D-05    CP:  1.00D+00
 FoFJK:  IHMeth= 1 ICntrl=     0 DoSepK=T KAlg= 1 I1Cent= 0 FoldK=F
 E= -1581.45835011419     Delta-E=       -0.000010839863 Rises=F Damp=F
 DIIS: error= 4.19D-05 at cycle   2 NSaved=   2.
 NSaved= 2 IEnMin= 2 EnMin= -1581.45835011419     IErMin= 2 ErrMin= 4.19D-05
 ErrMax= 4.19D-05 EMaxC= 1.00D-01 BMatC= 8.19D-07 BMatP= 1.37D-05
 IDIUse=1 WtCom= 1.00D+00 WtEn= 0.00D+00
 Coeff-Com:  0.388D-01 0.961D+00
 Coeff:      0.388D-01 0.961D+00
 Gap=     0.255 Goal=   None    Shift=    0.000
 RMSDP=3.22D-06 MaxDP=2.83D-04 DE=-1.08D-05 OVMax= 3.58D-04

 Cycle  10  Pass 1  IDiag  1:
 RMSU=  2.12D-06    CP:  1.00D+00  1.05D+00
 FoFJK:  IHMeth= 1 ICntrl=     0 DoSepK=T KAlg= 1 I1Cent= 0 FoldK=F
 E= -1581.45835017759     Delta-E=       -0.000000063407 Rises=F Damp=F
 DIIS: error= 5.40D-05 at cycle   3 NSaved=   3.
 NSaved= 3 IEnMin= 3 EnMin= -1581.45835017759     IErMin= 2 ErrMin= 4.19D-05
 ErrMax= 5.40D-05 EMaxC= 1.00D-01 BMatC= 1.02D-06 BMatP= 8.19D-07
 IDIUse=1 WtCom= 1.00D+00 WtEn= 0.00D+00
 Coeff-Com: -0.384D-01 0.543D+00 0.495D+00
 Coeff:     -0.384D-01 0.543D+00 0.495D+00
 Gap=     0.255 Goal=   None    Shift=    0.000
 RMSDP=1.61D-06 MaxDP=1.57D-04 DE=-6.34D-08 OVMax= 1.60D-04

 Cycle  11  Pass 1  IDiag  1:
 RMSU=  6.63D-07    CP:  1.00D+00  1.06D+00  5.73D-01
 FoFJK:  IHMeth= 1 ICntrl=     0 DoSepK=T KAlg= 1 I1Cent= 0 FoldK=F
 E= -1581.45835104464     Delta-E=       -0.000000867049 Rises=F Damp=F
 DIIS: error= 8.94D-06 at cycle   4 NSaved=   4.
 NSaved= 4 IEnMin= 4 EnMin= -1581.45835104464     IErMin= 4 ErrMin= 8.94D-06
 ErrMax= 8.94D-06 EMaxC= 1.00D-01 BMatC= 2.42D-08 BMatP= 8.19D-07
 IDIUse=1 WtCom= 1.00D+00 WtEn= 0.00D+00
 Coeff-Com: -0.173D-01 0.131D+00 0.171D+00 0.715D+00
 Coeff:     -0.173D-01 0.131D+00 0.171D+00 0.715D+00
 Gap=     0.255 Goal=   None    Shift=    0.000
 RMSDP=3.57D-07 MaxDP=3.51D-05 DE=-8.67D-07 OVMax= 4.59D-05

 Cycle  12  Pass 1  IDiag  1:
 RMSU=  2.25D-07    CP:  1.00D+00  1.06D+00  6.24D-01  1.04D+00
 FoFJK:  IHMeth= 1 ICntrl=     0 DoSepK=T KAlg= 1 I1Cent= 0 FoldK=F
 E= -1581.45835107002     Delta-E=       -0.000000025372 Rises=F Damp=F
 DIIS: error= 3.68D-06 at cycle   5 NSaved=   5.
 NSaved= 5 IEnMin= 5 EnMin= -1581.45835107002     IErMin= 5 ErrMin= 3.68D-06
 ErrMax= 3.68D-06 EMaxC= 1.00D-01 BMatC= 5.40D-09 BMatP= 2.42D-08
 IDIUse=1 WtCom= 1.00D+00 WtEn= 0.00D+00
 Coeff-Com: -0.346D-03-0.387D-01-0.163D-01 0.308D+00 0.747D+00
 Coeff:     -0.346D-03-0.387D-01-0.163D-01 0.308D+00 0.747D+00
 Gap=     0.255 Goal=   None    Shift=    0.000
 RMSDP=2.01D-07 MaxDP=1.32D-05 DE=-2.54D-08 OVMax= 2.90D-05

 Cycle  13  Pass 1  IDiag  1:
 RMSU=  9.58D-08    CP:  1.00D+00  1.06D+00  6.41D-01  1.18D+00  9.54D-01
 FoFJK:  IHMeth= 1 ICntrl=     0 DoSepK=T KAlg= 1 I1Cent= 0 FoldK=F
 E= -1581.45835107812     Delta-E=       -0.000000008105 Rises=F Damp=F
 DIIS: error= 8.07D-07 at cycle   6 NSaved=   6.
 NSaved= 6 IEnMin= 6 EnMin= -1581.45835107812     IErMin= 6 ErrMin= 8.07D-07
 ErrMax= 8.07D-07 EMaxC= 1.00D-01 BMatC= 5.99D-10 BMatP= 5.40D-09
 IDIUse=1 WtCom= 1.00D+00 WtEn= 0.00D+00
 Coeff-Com:  0.205D-02-0.283D-01-0.278D-01 0.109D-01 0.248D+00 0.795D+00
 Coeff:      0.205D-02-0.283D-01-0.278D-01 0.109D-01 0.248D+00 0.795D+00
 Gap=     0.255 Goal=   None    Shift=    0.000
 RMSDP=9.07D-08 MaxDP=3.76D-06 DE=-8.11D-09 OVMax= 2.00D-05

 Cycle  14  Pass 1  IDiag  1:
 RMSU=  3.80D-08    CP:  1.00D+00  1.06D+00  6.46D-01  1.24D+00  1.11D+00
                    CP:  1.10D+00
 FoFJK:  IHMeth= 1 ICntrl=     0 DoSepK=T KAlg= 1 I1Cent= 0 FoldK=F
 E= -1581.45835107959     Delta-E=       -0.000000001466 Rises=F Damp=F
 DIIS: error= 4.03D-07 at cycle   7 NSaved=   7.
 NSaved= 7 IEnMin= 7 EnMin= -1581.45835107959     IErMin= 7 ErrMin= 4.03D-07
 ErrMax= 4.03D-07 EMaxC= 1.00D-01 BMatC= 1.51D-10 BMatP= 5.99D-10
 IDIUse=1 WtCom= 1.00D+00 WtEn= 0.00D+00
 Coeff-Com:  0.854D-03-0.344D-02-0.888D-02-0.654D-01-0.594D-01 0.330D+00
 Coeff-Com:  0.806D+00
 Coeff:      0.854D-03-0.344D-02-0.888D-02-0.654D-01-0.594D-01 0.330D+00
 Coeff:      0.806D+00
 Gap=     0.255 Goal=   None    Shift=    0.000
 RMSDP=5.12D-08 MaxDP=2.19D-06 DE=-1.47D-09 OVMax= 1.02D-05

 Cycle  15  Pass 1  IDiag  1:
 RMSU=  1.66D-08    CP:  1.00D+00  1.06D+00  6.50D-01  1.27D+00  1.16D+00
                    CP:  1.33D+00  1.04D+00
 FoFJK:  IHMeth= 1 ICntrl=     0 DoSepK=T KAlg= 1 I1Cent= 0 FoldK=F
 E= -1581.45835108006     Delta-E=       -0.000000000468 Rises=F Damp=F
 DIIS: error= 1.76D-07 at cycle   8 NSaved=   8.
 NSaved= 8 IEnMin= 8 EnMin= -1581.45835108006     IErMin= 8 ErrMin= 1.76D-07
 ErrMax= 1.76D-07 EMaxC= 1.00D-01 BMatC= 2.09D-11 BMatP= 1.51D-10
 IDIUse=1 WtCom= 1.00D+00 WtEn= 0.00D+00
 Coeff-Com: -0.513D-04 0.366D-02 0.169D-02-0.237D-01-0.592D-01-0.169D-01
 Coeff-Com:  0.287D+00 0.808D+00
 Coeff:     -0.513D-04 0.366D-02 0.169D-02-0.237D-01-0.592D-01-0.169D-01
 Coeff:      0.287D+00 0.808D+00
 Gap=     0.255 Goal=   None    Shift=    0.000
 RMSDP=1.91D-08 MaxDP=9.74D-07 DE=-4.68D-10 OVMax= 5.15D-06

 Cycle  16  Pass 1  IDiag  1:
 RMSU=  6.65D-09    CP:  1.00D+00  1.06D+00  6.50D-01  1.27D+00  1.18D+00
                    CP:  1.40D+00  1.22D+00  1.06D+00
 FoFJK:  IHMeth= 1 ICntrl=     0 DoSepK=T KAlg= 1 I1Cent= 0 FoldK=F
 E= -1581.45835108010     Delta-E=       -0.000000000049 Rises=F Damp=F
 DIIS: error= 5.73D-08 at cycle   9 NSaved=   9.
 NSaved= 9 IEnMin= 9 EnMin= -1581.45835108010     IErMin= 9 ErrMin= 5.73D-08
 ErrMax= 5.73D-08 EMaxC= 1.00D-01 BMatC= 3.94D-12 BMatP= 2.09D-11
 IDIUse=1 WtCom= 1.00D+00 WtEn= 0.00D+00
 Coeff-Com: -0.181D-03 0.225D-02 0.248D-02 0.182D-02-0.148D-01-0.722D-01
 Coeff-Com: -0.319D-01 0.310D+00 0.803D+00
 Coeff:     -0.181D-03 0.225D-02 0.248D-02 0.182D-02-0.148D-01-0.722D-01
 Coeff:     -0.319D-01 0.310D+00 0.803D+00
 Gap=     0.255 Goal=   None    Shift=    0.000
 RMSDP=8.31D-09 MaxDP=4.53D-07 DE=-4.91D-11 OVMax= 2.19D-06

 SCF Done:  E(RwB97XD) =  -1581.45835108     A.U. after   16 cycles
             Convg  =    0.8312D-08             -V/T =  2.0111
 KE= 1.564134274658D+03 PE=-1.101163340094D+04 EE= 4.194201665940D+03
 Leave Link  502 at Wed Mar 11 00:07:45 2020, MaxMem= 2684354560 cpu:     901.9
 (Enter /opt/g09gh/gaussian/g09/l601.exe)
 Copying SCF densities to generalized density rwf, IOpCl= 0 IROHF=0.

 **********************************************************************

            Population analysis using the SCF density.

 **********************************************************************

 Orbital symmetries:
       Occupied  (A) (A) (A) (A) (A) (A) (A) (A) (A) (A) (A) (A)
                 (A) (A) (A) (A) (A) (A) (A) (A) (A) (A) (A) (A)
                 (A) (A) (A) (A) (A) (A) (A) (A) (A) (A) (A) (A)
                 (A) (A) (A) (A) (A) (A) (A) (A) (A) (A) (A) (A)
                 (A) (A) (A) (A) (A) (A) (A) (A) (A) (A) (A) (A)
                 (A) (A) (A) (A) (A) (A) (A) (A) (A) (A) (A) (A)
                 (A) (A) (A) (A) (A) (A) (A) (A) (A) (A) (A) (A)
                 (A) (A) (A) (A) (A) (A) (A) (A) (A) (A) (A) (A)
                 (A) (A) (A) (A) (A) (A) (A) (A) (A) (A) (A) (A)
                 (A) (A) (A) (A) (A) (A) (A) (A) (A) (A) (A) (A)
                 (A) (A) (A) (A) (A) (A) (A) (A) (A) (A) (A)
       Virtual   (A) (A) (A) (A) (A) (A) (A) (A) (A) (A) (A) (A)
                 (A) (A) (A) (A) (A) (A) (A) (A) (A) (A) (A) (A)
                 (A) (A) (A) (A) (A) (A) (A) (A) (A) (A) (A) (A)
                 (A) (A) (A) (A) (A) (A) (A) (A) (A) (A) (A) (A)
                 (A) (A) (A) (A) (A) (A) (A) (A) (A) (A) (A) (A)
                 (A) (A) (A) (A) (A) (A) (A) (A) (A) (A) (A) (A)
                 (A) (A) (A) (A) (A) (A) (A) (A) (A) (A) (A) (A)
                 (A) (A) (A) (A) (A) (A) (A) (A) (A) (A) (A) (A)
                 (A) (A) (A) (A) (A) (A) (A) (A) (A) (A) (A) (A)
                 (A) (A) (A) (A) (A) (A) (A) (A) (A) (A) (A) (A)
                 (A) (A) (A) (A) (A) (A) (A) (A) (A) (A) (A) (A)
                 (A) (A) (A) (A) (A) (A) (A) (A) (A) (A) (A) (A)
                 (A) (A) (A) (A) (A) (A) (A) (A) (A) (A) (A) (A)
                 (A) (A) (A) (A) (A) (A) (A) (A) (A) (A) (A) (A)
                 (A) (A) (A) (A) (A) (A) (A) (A) (A) (A) (A) (A)
                 (A) (A) (A) (A) (A) (A) (A) (A) (A) (A) (A) (A)
                 (A) (A) (A) (A) (A) (A) (A) (A) (A) (A) (A) (A)
                 (A) (A) (A) (A) (A) (A) (A) (A) (A) (A) (A) (A)
                 (A) (A) (A) (A) (A) (A) (A) (A) (A) (A) (A) (A)
                 (A) (A) (A) (A) (A) (A) (A) (A) (A) (A) (A) (A)
                 (A) (A) (A) (A) (A) (A) (A) (A) (A) (A) (A) (A)
                 (A) (A) (A) (A) (A) (A) (A) (A) (A) (A) (A) (A)
                 (A) (A) (A) (A) (A) (A) (A) (A) (A) (A) (A) (A)
                 (A) (A) (A) (A) (A) (A) (A) (A) (A) (A) (A) (A)
                 (A) (A) (A) (A) (A) (A) (A) (A) (A) (A) (A) (A)
                 (A) (A) (A) (A) (A) (A) (A) (A) (A) (A) (A) (A)
                 (A) (A) (A) (A) (A) (A) (A) (A) (A) (A) (A) (A)
                 (A) (A) (A) (A) (A) (A) (A) (A) (A) (A) (A) (A)
                 (A) (A) (A) (A) (A) (A) (A) (A) (A) (A) (A) (A)
                 (A) (A) (A) (A) (A) (A) (A) (A) (A) (A) (A) (A)
                 (A) (A) (A) (A) (A) (A) (A) (A) (A) (A) (A) (A)
                 (A) (A) (A) (A) (A) (A) (A) (A) (A) (A) (A) (A)
                 (A) (A) (A) (A) (A) (A) (A) (A) (A) (A) (A) (A)
                 (A) (A) (A) (A) (A) (A) (A) (A) (A) (A) (A) (A)
                 (A) (A) (A) (A) (A) (A) (A) (A) (A) (A) (A) (A)
                 (A) (A) (A) (A) (A) (A) (A) (A) (A) (A) (A) (A)
                 (A) (A) (A) (A) (A) (A) (A) (A) (A) (A) (A) (A)
                 (A) (A) (A) (A) (A) (A) (A) (A) (A) (A) (A) (A)
                 (A) (A) (A) (A) (A) (A) (A) (A) (A) (A) (A) (A)
                 (A) (A) (A) (A) (A) (A) (A) (A) (A) (A) (A) (A)
                 (A) (A) (A) (A) (A) (A)
 The electronic state is 1-A.
 Alpha  occ. eigenvalues --  -19.23607 -14.49577 -14.49073 -14.46687 -14.46234
 Alpha  occ. eigenvalues --  -14.46060 -14.45853 -14.45582 -10.42159 -10.40720
 Alpha  occ. eigenvalues --  -10.38928 -10.38309 -10.37379 -10.36515 -10.36304
 Alpha  occ. eigenvalues --  -10.35889 -10.35320 -10.35270 -10.35194 -10.35115
 Alpha  occ. eigenvalues --  -10.34389 -10.34247 -10.33705 -10.32952 -10.32409
 Alpha  occ. eigenvalues --  -10.32306 -10.31962 -10.31692 -10.31490 -10.31313
 Alpha  occ. eigenvalues --  -10.31125 -10.30996 -10.30986 -10.30414 -10.30273
 Alpha  occ. eigenvalues --  -10.29804 -10.29250  -1.13692  -1.11645  -1.05677
 Alpha  occ. eigenvalues --   -1.03814  -1.03586  -1.03156  -1.00195  -0.99767
 Alpha  occ. eigenvalues --   -0.96155  -0.94632  -0.92537  -0.89458  -0.88135
 Alpha  occ. eigenvalues --   -0.87196  -0.86491  -0.84857  -0.83935  -0.83713
 Alpha  occ. eigenvalues --   -0.81883  -0.79648  -0.77999  -0.77955  -0.76059
 Alpha  occ. eigenvalues --   -0.73489  -0.73334  -0.72533  -0.71609  -0.70555
 Alpha  occ. eigenvalues --   -0.70103  -0.69533  -0.68118  -0.66385  -0.64768
 Alpha  occ. eigenvalues --   -0.63380  -0.62405  -0.61684  -0.60526  -0.59859
 Alpha  occ. eigenvalues --   -0.58652  -0.57873  -0.57011  -0.56586  -0.56173
 Alpha  occ. eigenvalues --   -0.55929  -0.55533  -0.54811  -0.54397  -0.53693
 Alpha  occ. eigenvalues --   -0.53460  -0.53349  -0.52524  -0.52038  -0.51900
 Alpha  occ. eigenvalues --   -0.51645  -0.51440  -0.51261  -0.50832  -0.50438
 Alpha  occ. eigenvalues --   -0.50213  -0.50078  -0.49943  -0.49477  -0.48122
 Alpha  occ. eigenvalues --   -0.47496  -0.47213  -0.46505  -0.46154  -0.45504
 Alpha  occ. eigenvalues --   -0.45247  -0.44605  -0.43968  -0.43759  -0.43566
 Alpha  occ. eigenvalues --   -0.43086  -0.42931  -0.42167  -0.41542  -0.40679
 Alpha  occ. eigenvalues --   -0.40184  -0.38140  -0.37733  -0.37394  -0.35745
 Alpha  occ. eigenvalues --   -0.35627  -0.35220  -0.34032  -0.33707  -0.33365
 Alpha  occ. eigenvalues --   -0.33214  -0.32094  -0.31442  -0.29538  -0.27576
 Alpha  occ. eigenvalues --   -0.26238
 Alpha virt. eigenvalues --   -0.00707   0.02575   0.03001   0.04471   0.05922
 Alpha virt. eigenvalues --    0.07128   0.07278   0.07550   0.09753   0.09910
 Alpha virt. eigenvalues --    0.11050   0.12472   0.13591   0.14116   0.14681
 Alpha virt. eigenvalues --    0.15842   0.16034   0.17077   0.18237   0.18994
 Alpha virt. eigenvalues --    0.19502   0.19809   0.20495   0.21376   0.21406
 Alpha virt. eigenvalues --    0.22108   0.22676   0.22721   0.23105   0.23549
 Alpha virt. eigenvalues --    0.23816   0.24232   0.24744   0.25004   0.25145
 Alpha virt. eigenvalues --    0.25596   0.26099   0.26405   0.26790   0.27149
 Alpha virt. eigenvalues --    0.27637   0.27954   0.28213   0.28327   0.28676
 Alpha virt. eigenvalues --    0.29001   0.29430   0.29888   0.30298   0.30841
 Alpha virt. eigenvalues --    0.31141   0.31350   0.31982   0.33299   0.33563
 Alpha virt. eigenvalues --    0.34056   0.34681   0.35328   0.35979   0.36674
 Alpha virt. eigenvalues --    0.37417   0.37808   0.38424   0.38943   0.39466
 Alpha virt. eigenvalues --    0.40278   0.41052   0.41166   0.41259   0.41846
 Alpha virt. eigenvalues --    0.43323   0.44890   0.45190   0.46142   0.46951
 Alpha virt. eigenvalues --    0.47860   0.49238   0.51515   0.52657   0.53354
 Alpha virt. eigenvalues --    0.55254   0.55921   0.57143   0.57540   0.58272
 Alpha virt. eigenvalues --    0.58702   0.59161   0.59483   0.59609   0.60013
 Alpha virt. eigenvalues --    0.60733   0.61332   0.61992   0.62030   0.62195
 Alpha virt. eigenvalues --    0.62874   0.63065   0.63363   0.63687   0.63799
 Alpha virt. eigenvalues --    0.64360   0.64725   0.64818   0.64887   0.65397
 Alpha virt. eigenvalues --    0.65585   0.65983   0.66254   0.66395   0.66740
 Alpha virt. eigenvalues --    0.66887   0.67165   0.67335   0.67882   0.68225
 Alpha virt. eigenvalues --    0.68621   0.69232   0.69554   0.70138   0.70553
 Alpha virt. eigenvalues --    0.70621   0.70905   0.70992   0.71182   0.71897
 Alpha virt. eigenvalues --    0.72213   0.72668   0.72749   0.73140   0.73901
 Alpha virt. eigenvalues --    0.74614   0.74737   0.75585   0.75671   0.75977
 Alpha virt. eigenvalues --    0.76258   0.77172   0.77689   0.78647   0.79257
 Alpha virt. eigenvalues --    0.80101   0.80497   0.81008   0.81759   0.81876
 Alpha virt. eigenvalues --    0.82551   0.83247   0.83590   0.84175   0.84426
 Alpha virt. eigenvalues --    0.84718   0.85707   0.86148   0.86410   0.86761
 Alpha virt. eigenvalues --    0.87690   0.88705   0.89095   0.89424   0.90112
 Alpha virt. eigenvalues --    0.90456   0.90706   0.91224   0.91493   0.92318
 Alpha virt. eigenvalues --    0.92762   0.92894   0.93206   0.93429   0.93639
 Alpha virt. eigenvalues --    0.93952   0.94555   0.94759   0.94856   0.95720
 Alpha virt. eigenvalues --    0.95924   0.96362   0.96999   0.97407   0.97892
 Alpha virt. eigenvalues --    0.98272   0.99153   0.99255   0.99738   1.00084
 Alpha virt. eigenvalues --    1.00902   1.01416   1.01847   1.02418   1.02565
 Alpha virt. eigenvalues --    1.03055   1.04612   1.05502   1.05921   1.06300
[...]
                 (A) (A) (A) (A) (A) (A) (A) (A) (A) (A) (A) (A)
                 (A) (A) (A) (A) (A) (A) (A) (A) (A) (A) (A) (A)
                 (A) (A) (A) (A) (A) (A) (A) (A) (A) (A) (A) (A)
                 (A) (A) (A) (A) (A) (A) (A) (A) (A) (A) (A) (A)
                 (A) (A) (A) (A) (A) (A) (A) (A) (A) (A) (A) (A)
                 (A) (A) (A) (A) (A) (A) (A) (A) (A) (A) (A) (A)
                 (A) (A) (A) (A) (A) (A) (A) (A) (A) (A) (A) (A)
                 (A) (A) (A) (A) (A) (A) (A) (A) (A) (A) (A) (A)
                 (A) (A) (A) (A) (A) (A) (A) (A) (A) (A) (A) (A)
                 (A) (A) (A) (A) (A) (A) (A) (A) (A) (A) (A) (A)
                 (A) (A) (A) (A) (A) (A) (A) (A) (A) (A) (A) (A)
                 (A) (A) (A) (A) (A) (A) (A) (A) (A) (A) (A) (A)
                 (A) (A) (A) (A) (A) (A) (A) (A) (A) (A) (A) (A)
                 (A) (A) (A) (A) (A) (A) (A) (A) (A) (A) (A) (A)
                 (A) (A) (A) (A) (A) (A) (A) (A) (A) (A) (A) (A)
                 (A) (A) (A) (A) (A) (A) (A) (A) (A) (A) (A) (A)
                 (A) (A) (A) (A) (A) (A) (A) (A) (A) (A) (A) (A)
                 (A) (A) (A) (A) (A) (A) (A) (A) (A) (A) (A) (A)
                 (A) (A) (A) (A) (A) (A) (A) (A) (A) (A) (A) (A)
                 (A) (A) (A) (A) (A) (A) (A) (A) (A) (A) (A) (A)
                 (A) (A) (A) (A) (A) (A) (A) (A) (A) (A) (A) (A)
                 (A) (A) (A) (A) (A) (A) (A) (A) (A) (A) (A) (A)
                 (A) (A) (A) (A) (A) (A) (A) (A) (A) (A) (A) (A)
                 (A) (A) (A) (A) (A) (A) (A) (A) (A) (A) (A) (A)
                 (A) (A) (A) (A) (A) (A) (A) (A) (A) (A) (A) (A)
                 (A) (A) (A) (A) (A) (A) (A) (A) (A) (A) (A) (A)
                 (A) (A) (A) (A) (A) (A) (A) (A) (A) (A) (A) (A)
                 (A) (A) (A) (A) (A) (A) (A) (A) (A) (A) (A) (A)
                 (A) (A) (A) (A) (A) (A) (A) (A) (A) (A) (A) (A)
                 (A) (A) (A) (A) (A) (A) (A) (A) (A) (A) (A) (A)
                 (A) (A) (A) (A) (A) (A) (A) (A) (A) (A) (A) (A)
                 (A) (A) (A) (A) (A) (A) (A) (A) (A) (A) (A) (A)
                 (A) (A) (A) (A) (A) (A) (A) (A) (A) (A) (A) (A)
                 (A) (A) (A) (A) (A) (A)
 The electronic state is 1-A.
 Alpha  occ. eigenvalues --  -19.23142 -14.49088 -14.48248 -14.46429 -14.45934
 Alpha  occ. eigenvalues --  -14.45554 -14.44103 -14.43655 -10.41589 -10.39893
 Alpha  occ. eigenvalues --  -10.37440 -10.36188 -10.34998 -10.34761 -10.34485
 Alpha  occ. eigenvalues --  -10.33945 -10.33923 -10.33369 -10.32607 -10.32385
 Alpha  occ. eigenvalues --  -10.31700 -10.31600 -10.31417 -10.31278 -10.31178
 Alpha  occ. eigenvalues --  -10.31107 -10.30685 -10.30535 -10.30245 -10.30151
 Alpha  occ. eigenvalues --  -10.29925 -10.29873 -10.29807 -10.29418 -10.29301
 Alpha  occ. eigenvalues --  -10.28761 -10.28208  -1.13268  -1.12141  -1.06043
 Alpha  occ. eigenvalues --   -1.04470  -1.04387  -1.03398  -1.00553  -1.00018
 Alpha  occ. eigenvalues --   -0.95690  -0.94520  -0.92873  -0.89563  -0.87952
 Alpha  occ. eigenvalues --   -0.87191  -0.86212  -0.85604  -0.84128  -0.83620
 Alpha  occ. eigenvalues --   -0.81645  -0.79635  -0.78096  -0.77977  -0.76153
 Alpha  occ. eigenvalues --   -0.73637  -0.73527  -0.72817  -0.72487  -0.70963
 Alpha  occ. eigenvalues --   -0.69940  -0.69635  -0.67835  -0.66216  -0.64977
 Alpha  occ. eigenvalues --   -0.63774  -0.63199  -0.61958  -0.61584  -0.59869
 Alpha  occ. eigenvalues --   -0.58660  -0.58473  -0.57426  -0.56519  -0.55949
 Alpha  occ. eigenvalues --   -0.55693  -0.55463  -0.55032  -0.54956  -0.54325
 Alpha  occ. eigenvalues --   -0.53736  -0.53605  -0.52982  -0.52468  -0.51999
 Alpha  occ. eigenvalues --   -0.51530  -0.51388  -0.51068  -0.50968  -0.50440
 Alpha  occ. eigenvalues --   -0.50263  -0.49886  -0.49565  -0.49367  -0.47997
 Alpha  occ. eigenvalues --   -0.47838  -0.47128  -0.46880  -0.46466  -0.46050
 Alpha  occ. eigenvalues --   -0.45872  -0.45630  -0.44381  -0.43794  -0.43288
 Alpha  occ. eigenvalues --   -0.43210  -0.42640  -0.42006  -0.41949  -0.41510
 Alpha  occ. eigenvalues --   -0.41213  -0.40757  -0.39820  -0.38005  -0.37401
 Alpha  occ. eigenvalues --   -0.35506  -0.35075  -0.33814  -0.33285  -0.33130
 Alpha  occ. eigenvalues --   -0.32461  -0.32293  -0.31031  -0.28993  -0.26964
 Alpha  occ. eigenvalues --   -0.25780
 Alpha virt. eigenvalues --   -0.00142   0.03120   0.03718   0.04761   0.07060
 Alpha virt. eigenvalues --    0.07525   0.08521   0.10521   0.14996   0.15192
 Alpha virt. eigenvalues --    0.15560   0.16397   0.17338   0.17525   0.18783
 Alpha virt. eigenvalues --    0.19695   0.19924   0.20246   0.20452   0.21534
 Alpha virt. eigenvalues --    0.21731   0.22209   0.22461   0.22911   0.23082
 Alpha virt. eigenvalues --    0.23392   0.23673   0.24154   0.24352   0.24720
 Alpha virt. eigenvalues --    0.25055   0.25336   0.25787   0.26142   0.26284
 Alpha virt. eigenvalues --    0.27172   0.27314   0.27853   0.28040   0.28265
 Alpha virt. eigenvalues --    0.28619   0.29310   0.29659   0.30002   0.30535
 Alpha virt. eigenvalues --    0.30920   0.31281   0.31682   0.31914   0.32370
 Alpha virt. eigenvalues --    0.32822   0.33113   0.33511   0.33790   0.34117
 Alpha virt. eigenvalues --    0.34577   0.34974   0.36117   0.36656   0.36839
 Alpha virt. eigenvalues --    0.38498   0.38763   0.38854   0.39044   0.40452
 Alpha virt. eigenvalues --    0.41392   0.41955   0.42201   0.43017   0.43587
 Alpha virt. eigenvalues --    0.43882   0.45258   0.46616   0.47332   0.47689
 Alpha virt. eigenvalues --    0.48656   0.49953   0.52651   0.53195   0.54601
 Alpha virt. eigenvalues --    0.56048   0.56538   0.57231   0.58422   0.59000
 Alpha virt. eigenvalues --    0.59423   0.59593   0.60257   0.60663   0.60763
 Alpha virt. eigenvalues --    0.61526   0.62266   0.62508   0.62754   0.63100
 Alpha virt. eigenvalues --    0.63442   0.63581   0.63937   0.64234   0.64802
 Alpha virt. eigenvalues --    0.65008   0.65241   0.65664   0.65784   0.66077
 Alpha virt. eigenvalues --    0.66433   0.66590   0.66749   0.67229   0.67382
 Alpha virt. eigenvalues --    0.67642   0.68148   0.68555   0.68900   0.69588
 Alpha virt. eigenvalues --    0.69709   0.69995   0.70442   0.70863   0.71292
 Alpha virt. eigenvalues --    0.71367   0.71696   0.71860   0.72925   0.73100
 Alpha virt. eigenvalues --    0.73238   0.73407   0.73545   0.74654   0.74837
 Alpha virt. eigenvalues --    0.75337   0.75742   0.76165   0.76331   0.77458
 Alpha virt. eigenvalues --    0.77777   0.78546   0.79774   0.80532   0.80805
 Alpha virt. eigenvalues --    0.81213   0.82199   0.82390   0.83362   0.84326
 Alpha virt. eigenvalues --    0.84610   0.85842   0.86162   0.87134   0.87925
 Alpha virt. eigenvalues --    0.88013   0.88326   0.88951   0.89285   0.90010
 Alpha virt. eigenvalues --    0.90696   0.90862   0.91317   0.91898   0.92568
 Alpha virt. eigenvalues --    0.92807   0.93015   0.93227   0.93397   0.93863
 Alpha virt. eigenvalues --    0.94068   0.94265   0.94625   0.94922   0.95001
 Alpha virt. eigenvalues --    0.95541   0.95873   0.95981   0.97198   0.97472
 Alpha virt. eigenvalues --    0.98300   0.98563   0.99116   0.99416   0.99485
 Alpha virt. eigenvalues --    1.00498   1.00798   1.01335   1.01736   1.01957
 Alpha virt. eigenvalues --    1.02168   1.03325   1.03648   1.04057   1.04597
 Alpha virt. eigenvalues --    1.04904   1.05801   1.05995   1.06582   1.07023
 Alpha virt. eigenvalues --    1.07810   1.07890   1.08309   1.08814   1.09122
 Alpha virt. eigenvalues --    1.09182   1.09587   1.10354   1.11627   1.11760
 Alpha virt. eigenvalues --    1.12089   1.12593   1.13770   1.14253   1.15122
 Alpha virt. eigenvalues --    1.16551   1.16563   1.17105   1.17417   1.19820
 Alpha virt. eigenvalues --    1.19909   1.20426   1.21879   1.23241   1.23851
 Alpha virt. eigenvalues --    1.24228   1.25767   1.25953   1.27381   1.28105
 Alpha virt. eigenvalues --    1.28909   1.29288   1.29512   1.30069   1.30728
 Alpha virt. eigenvalues --    1.31376   1.33024   1.33331   1.33903   1.35010
 Alpha virt. eigenvalues --    1.35910   1.37051   1.37297   1.37830   1.38674
 Alpha virt. eigenvalues --    1.39703   1.40259   1.43283   1.43575   1.44446
 Alpha virt. eigenvalues --    1.46296   1.46716   1.47537   1.48221   1.48637
 Alpha virt. eigenvalues --    1.49054   1.49071   1.49592   1.50986   1.51766
 Alpha virt. eigenvalues --    1.52836   1.52865   1.53794   1.53978   1.54358
 Alpha virt. eigenvalues --    1.54899   1.55281   1.55693   1.56232   1.56768
 Alpha virt. eigenvalues --    1.57182   1.57847   1.58035   1.58437   1.59435
 Alpha virt. eigenvalues --    1.59728   1.60198   1.61272   1.61950   1.62877
 Alpha virt. eigenvalues --    1.64344   1.65199   1.65390   1.66451   1.66776
 Alpha virt. eigenvalues --    1.68220   1.70087   1.72139   1.75243   1.76330
 Alpha virt. eigenvalues --    1.78787   1.80688   1.82185   1.83254   1.84720
 Alpha virt. eigenvalues --    1.85095   1.85715   1.86494   1.86692   1.87790
 Alpha virt. eigenvalues --    1.87976   1.88772   1.89285   1.90317   1.91003
 Alpha virt. eigenvalues --    1.91172   1.92086   1.92448   1.92861   1.94094
 Alpha virt. eigenvalues --    1.94391   1.94946   1.95307   1.96178   1.97642
 Alpha virt. eigenvalues --    1.98337   1.99362   1.99718   2.00668   2.01036
 Alpha virt. eigenvalues --    2.01638   2.01837   2.02024   2.02459   2.03197
 Alpha virt. eigenvalues --    2.03964   2.05658   2.06214   2.06348   2.07451
 Alpha virt. eigenvalues --    2.08665   2.09078   2.09678   2.10101   2.12219
 Alpha virt. eigenvalues --    2.12458   2.13168   2.13392   2.14578   2.14943
 Alpha virt. eigenvalues --    2.15331   2.16169   2.17199   2.19608   2.19808
 Alpha virt. eigenvalues --    2.20264   2.20642   2.21352   2.21996   2.22552
 Alpha virt. eigenvalues --    2.22867   2.23496   2.24127   2.24213   2.25080
 Alpha virt. eigenvalues --    2.25364   2.25994   2.26286   2.27011   2.27060
 Alpha virt. eigenvalues --    2.28142   2.29401   2.29617   2.31815   2.32785
 Alpha virt. eigenvalues --    2.33577   2.34205   2.34816   2.35233   2.37090
 Alpha virt. eigenvalues --    2.37573   2.37904   2.38883   2.38923   2.40360
 Alpha virt. eigenvalues --    2.40564   2.41383   2.42194   2.42574   2.43348
 Alpha virt. eigenvalues --    2.43588   2.44102   2.44480   2.44844   2.45190
 Alpha virt. eigenvalues --    2.45799   2.47465   2.48653   2.49500   2.49947
 Alpha virt. eigenvalues --    2.50568   2.51581   2.52511   2.53716   2.56636
 Alpha virt. eigenvalues --    2.58858   2.59871   2.61765   2.62287   2.64184
 Alpha virt. eigenvalues --    2.64712   2.65010   2.65841   2.66164   2.68200
 Alpha virt. eigenvalues --    2.68252   2.70095   2.71218   2.72055   2.72501
 Alpha virt. eigenvalues --    2.74015   2.74727   2.75280   2.75755   2.76331
 Alpha virt. eigenvalues --    2.77207   2.77390   2.78102   2.81627   2.82139
 Alpha virt. eigenvalues --    2.82894   2.83331   2.83990   2.84737   2.85286
 Alpha virt. eigenvalues --    2.85977   2.86460   2.87066   2.88159   2.89157
 Alpha virt. eigenvalues --    2.89505   2.90493   2.92773   2.94328   2.94661
 Alpha virt. eigenvalues --    2.94987   2.96369   2.98782   3.03608   3.04170
 Alpha virt. eigenvalues --    3.05942   3.06922   3.09622   3.10153   3.13473
 Alpha virt. eigenvalues --    3.18983   3.28027   3.29649   3.39351   3.41597
 Alpha virt. eigenvalues --    3.44932   3.54259   3.56575   3.57709   4.13467
 Alpha virt. eigenvalues --    4.15309   4.15820   4.18311   4.18680   4.19191
 Alpha virt. eigenvalues --    4.19638   4.20834   4.22137   4.22448   4.23434
 Alpha virt. eigenvalues --    4.25677   4.26147   4.27564   4.30368   4.31778
 Alpha virt. eigenvalues --    4.32021   4.33881   4.36898   4.39326   4.40334
 Alpha virt. eigenvalues --    4.41918   4.44581   4.44871   4.45917   4.49101
 Alpha virt. eigenvalues --    4.50072   4.54651   4.55515   4.57570   4.61025
 Alpha virt. eigenvalues --    4.62261   4.67677   4.68731   4.79255   4.84419
 Alpha virt. eigenvalues --    4.89612
          Condensed to atoms (all electrons):
 Mulliken atomic charges:
              1
     1  C   -0.199125
     2  C   -0.155376
     3  C    0.033461
     4  C    0.007521
     5  N   -0.433882
     6  C    0.030962
     7  C    0.296764
     8  C   -0.254344
     9  C    0.048131
    10  N   -0.492589
    11  C    0.708690
    12  N   -0.567681
    13  N   -0.796297
    14  C    0.288219
    15  C    0.120604
    16  C   -0.240209
    17  C   -0.190694
    18  C    0.356090
    19  C   -0.265309
    20  N   -0.766380
    21  C    0.596822
    22  C    0.018246
    23  C   -0.214561
    24  C   -0.199797
    25  C    0.113483
    26  C   -0.222870
    27  C   -0.181355
    28  C   -0.219862
    29  N   -0.402536
    30  C   -0.192323
    31  C   -0.187536
    32  N   -0.384163
    33  C   -0.349858
    34  C   -0.187279
    35  C   -0.184780
    36  O   -0.517545
    37  C   -0.607047
    38  H    0.185021
    39  H    0.184992
    40  H    0.200681
    41  H    0.186594
    42  H    0.179893
    43  H    0.188685
    44  H    0.368473
    45  H    0.160398
    46  H    0.215721
    47  H    0.194156
    48  H    0.359387
    49  H    0.187561
    50  H    0.185488
    51  H    0.162918
    52  H    0.195705
    53  H    0.179146
    54  H    0.139763
    55  H    0.175447
    56  H    0.158575
    57  H    0.160225
    58  H    0.162574
    59  H    0.133389
    60  H    0.169608
    61  H    0.168545
    62  H    0.158645
    63  H    0.163069
    64  H    0.159934
    65  H    0.159188
    66  H    0.177220
    67  H    0.183302
    68  H    0.190103
 Sum of Mulliken atomic charges =   0.00000
 Mulliken charges with hydrogens summed into heavy atoms:
              1
     1  C   -0.014104
     2  C    0.029616
     3  C    0.033461
     4  C    0.208202
     5  N   -0.433882
     6  C    0.217556
     7  C    0.296764
     8  C   -0.074451
     9  C    0.236816
    10  N   -0.492589
    11  C    0.708690
    12  N   -0.567681
    13  N   -0.427825
    14  C    0.288219
    15  C    0.120604
    16  C   -0.079811
    17  C    0.025027
    18  C    0.356090
    19  C   -0.071153
    20  N   -0.406993
    21  C    0.596822
    22  C    0.018246
    23  C   -0.027000
    24  C   -0.014309
    25  C    0.113483
    26  C   -0.059952
    27  C    0.014350
    28  C    0.099046
    29  N   -0.402536
    30  C    0.141699
    31  C    0.135262
    32  N   -0.384163
    33  C    0.121684
    34  C    0.134435
    35  C    0.134343
    36  O   -0.517545
    37  C   -0.056422
 Sum of Mulliken charges with hydrogens summed into heavy atoms =   0.00000
 Electronic spatial extent (au):  <R**2>=          26295.6716
 Charge=              0.0000 electrons
 Dipole moment (field-independent basis, Debye):
    X=              0.0152    Y=              6.8612    Z=              0.7352  Tot=              6.9005
 Quadrupole moment (field-independent basis, Debye-Ang):
   XX=           -190.9271   YY=           -200.8689   ZZ=           -219.8823
   XY=              1.9742   XZ=              4.7790   YZ=             -1.9361
 Traceless Quadrupole moment (field-independent basis, Debye-Ang):
   XX=             12.9657   YY=              3.0238   ZZ=            -15.9895
   XY=              1.9742   XZ=              4.7790   YZ=             -1.9361
 Octapole moment (field-independent basis, Debye-Ang**2):
  XXX=             96.0688  YYY=            195.6748  ZZZ=              9.6027  XYY=             31.8701
  XXY=             10.9288  XXZ=            -47.6979  XZZ=            -26.0219  YZZ=              2.4416
  YYZ=             15.3418  XYZ=             -7.0237
 Hexadecapole moment (field-independent basis, Debye-Ang**3):
 XXXX=         -26011.8550 YYYY=          -7745.9410 ZZZZ=          -1021.5353 XXXY=           -536.1654
 XXXZ=            529.3342 YYYX=            285.7550 YYYZ=            -44.3082 ZZZX=            -37.2969
 ZZZY=             23.7185 XXYY=          -5127.5934 XXZZ=          -4626.5429 YYZZ=          -1633.0436
 XXYZ=             35.6167 YYXZ=            -14.0503 ZZXY=            -38.6443
 N-N= 3.736480297284D+03 E-N=-1.114477576135D+04  KE= 1.567151456237D+03
 No NMR shielding tensors so no spin-rotation constants.
 Leave Link  601 at Wed Mar 11 01:25:44 2020, MaxMem= 2684354560 cpu:       2.5
 (Enter /opt/g09gh/gaussian/g09/l9999.exe)
 1\1\GINC-NODE44\FOpt\RwB97XD\6-31G(d)\C29H31N7O1\BDW2292\11-Mar-2020\0
 \\#P opt=(,maxcycle=400) wB97XD/6-31G* MaxDisk=100GB\\MOLECULE0 Rotata
 ble Bond Optimization on g2-node38.bme.utexas.edu\\0,1\C,-0.4601253707
 ,4.2241923203,-0.4413511453\C,0.9093710332,4.1840831681,-0.2095170065\
 C,1.6020478984,2.9997680847,-0.4551295221\C,0.8649722246,1.9104481253,
 -0.9388191613\N,-0.4485136048,1.9313892761,-1.1556677013\C,-1.09286796
 73,3.0747388944,-0.9030589204\C,3.0530328056,2.8359144951,-0.189153926
 2\C,3.9588109404,3.8910006794,-0.1204727454\C,5.2786700976,3.547050700
 6,0.1685029457\N,5.6933699498,2.3014068562,0.3566073026\C,4.739999598,
 1.3543875501,0.2452953826\N,3.4502372007,1.5746293584,-0.0049527017\N,
 5.1816322266,0.0710663969,0.4158329621\C,4.4984237179,-1.1484095453,0.
 2445430731\C,5.261303528,-2.3134255389,0.0295593914\C,4.5741743401,-3.
 5086180359,-0.1610668225\C,3.1843027854,-3.5994260158,-0.1668844135\C,
 2.4511171758,-2.4357919918,0.0526591749\C,3.1105337626,-1.2282344222,0
 .2856527474\N,1.0471320825,-2.3615241469,0.03724225\C,0.129837928,-3.3
 200785194,-0.3098079821\C,-1.2787733948,-2.8061891345,-0.4091937877\C,
 -1.5912113682,-1.4837605298,-0.7431471466\C,-2.9144755677,-1.071770055
 ,-0.8168765372\C,-3.95410245,-1.9658888883,-0.5565492459\C,-3.63861013
 71,-3.2864356573,-0.2349406856\C,-2.3160357671,-3.7084163589,-0.174428
 883\C,-5.3957818808,-1.5143584219,-0.6587656936\N,-5.5903717732,-0.173
 3747779,-0.1232646542\C,-5.3888889416,-0.0791624792,1.3255093541\C,-6.
 5718459903,-0.6362538463,2.1307133521\N,-7.8551859235,-0.0415656526,1.
 7593316208\C,-8.0500258256,1.2959078834,2.2901315375\C,-8.0529285571,-
 0.1331095913,0.3142494674\C,-6.8714140346,0.4273770134,-0.4925662898\O
 ,0.4088975927,-4.4919766113,-0.5064654534\C,6.7677352472,-2.2681292768
 ,-0.0091919806\H,-1.0317221933,5.1265690225,-0.2525866383\H,1.42267763
 54,5.056521997,0.1845288464\H,1.3799116617,0.9798392429,-1.1617065736\
 H,-2.1665413153,3.0664792667,-1.0757124152\H,3.6750452797,4.9218188837
 ,-0.2923542577\H,6.0419527334,4.3186651742,0.2475307611\H,6.1799856959
 ,0.0237290157,0.5545006356\H,5.1504894033,-4.4148110959,-0.329801464\H
 ,2.6808060217,-4.5396159692,-0.3416935143\H,2.5395417087,-0.3298279964
 ,0.4669346641\H,0.6716784985,-1.4526858647,0.263242047\H,-0.8223854022
 ,-0.7548752796,-0.9874580848\H,-3.1486523295,-0.0422487217,-1.06779268
 16\H,-4.4375663268,-3.9944742128,-0.0272120504\H,-2.0678089869,-4.7379
 041185,0.0624041645\H,-5.6769300621,-1.4794856849,-1.7196364037\H,-6.0
 420202743,-2.2829049068,-0.1981624249\H,-4.4629770394,-0.5999758838,1.
 5896627569\H,-5.2399078178,0.9810948315,1.5688118679\H,-6.4067718123,-
 0.4835039296,3.2033359689\H,-6.6479528132,-1.7204639452,1.971967547\H,
 -7.3391362592,2.0594521341,1.9268562549\H,-7.9704872243,1.2621845132,3
 .3820146786\H,-9.0598877183,1.6377769316,2.0388496367\H,-8.9800528865,
 0.3884277307,0.04933646\H,-8.1980346097,-1.1928578739,0.0634237143\H,-
 6.7900845286,1.50959186,-0.3234310284\H,-7.036710218,0.2826379436,-1.5
 66430275\H,7.1993994355,-1.9438062188,0.9477437567\H,7.1357458935,-1.5
 864366713,-0.786783699\H,7.1771512695,-3.2584724792,-0.2236434053\\Ver
 sion=EM64L-G09RevA.02\State=1-A\HF=-1581.7642854\RMSD=8.521e-09\RMSF=4
 .408e-06\Dipole=-0.1082874,2.68997,0.3504052\Quadrupole=9.8219741,2.45
 70402,-12.2790143,1.695415,2.4165557,-1.0696128\PG=C01 [X(C29H31N7O1)]
 \\@


 BLACK HOLES SUCK.
 Job cpu time:  0 days  8 hours  0 minutes 50.0 seconds.
 File lengths (MBytes):  RWF=    244 Int=      0 D2E=      0 Chk=     25 Scr=      1
 Normal termination of Gaussian 09 at Wed Mar 11 01:25:45 2020.
