68
MOLECULE0-opt-15-14-13-11-219.log	Energy: -992571.9110855
C          0.60496        4.16836       -0.06368
C         -0.77376        4.15657        0.10639
C         -1.47664        2.98227       -0.16054
C         -0.73659        1.87467       -0.59807
N          0.58474        1.86908       -0.75354
C          1.24206        3.00420       -0.48610
C         -2.94097        2.84681        0.03016
C         -3.83080        3.91811        0.08696
C         -5.16943        3.59440        0.29727
N         -5.62111        2.35167        0.42050
C         -4.68095        1.39186        0.32513
N         -3.37667        1.59102        0.15425
N         -5.14920        0.10758        0.41918
C         -4.45969       -1.10119        0.20312
C         -5.19222       -2.22439       -0.22690
C         -4.48930       -3.40279       -0.46176
C         -3.10934       -3.51106       -0.31081
C         -2.40632       -2.39006        0.12519
C         -3.08770       -1.20715        0.41013
N         -1.01062       -2.34988        0.31431
C         -0.06356       -3.22579       -0.15307
C          1.34926       -2.80265        0.13664
C          1.71001       -2.09323        1.28530
C          3.03758       -1.74983        1.50798
C          4.03069       -2.08535        0.58605
C          3.66129       -2.80520       -0.55245
C          2.33942       -3.16962       -0.77371
C          5.48349       -1.69745        0.81989
N          5.91148       -0.36515        0.43441
C          5.56220        0.75195        1.30131
C          4.31061        1.52394        0.85431
N          4.36553        1.92289       -0.55075
C          5.28631        3.01472       -0.82036
C          4.58444        0.73918       -1.38225
C          5.85107       -0.03475       -0.98387
O         -0.31710       -4.25084       -0.76344
C         -6.68213       -2.15095       -0.44411
H          1.18284        5.06356        0.14194
H         -1.28858        5.04306        0.46657
H         -1.25782        0.95143       -0.83708
H          2.32380        2.95096       -0.61276
H         -3.51863        4.94762       -0.03700
H         -5.92037        4.37915        0.36377
H         -6.15529        0.06444        0.48049
H         -5.04188       -4.27591       -0.79946
H         -2.58997       -4.43035       -0.54056
H         -2.54179       -0.34180        0.75702
H         -0.65801       -1.45714        0.62859
H          0.96407       -1.84566        2.03602
H          3.30832       -1.22499        2.42144
H          4.42426       -3.09764       -1.27027
H          2.05670       -3.74745       -1.64765
H          5.71506       -1.81776        1.88508
H          6.11943       -2.41206        0.28136
H          5.43198        0.37964        2.32352
H          6.41583        1.44644        1.32657
H          4.18016        2.42126        1.47214
H          3.41642        0.90168        0.97883
H          6.34832        2.80457       -0.60965
H          4.99467        3.88337       -0.21886
H          5.20505        3.29361       -1.87640
H          4.64620        1.05094       -2.43161
H          3.70156        0.09749       -1.27816
H          6.73666        0.56740       -1.23729
H          5.92468       -0.96006       -1.56544
H         -6.95060       -1.37049       -1.16712
H         -7.22685       -1.94271        0.48700
H         -7.06248       -3.09979       -0.83106
