 Entering Gaussian System, Link 0=g09
 Input=MOLECULE0-opt-23-22-21-20-126.com
 Output=MOLECULE0-opt-23-22-21-20-126.log
 Initial command:
 /opt/g09gh/gaussian/g09/l1.exe /scratch/bdw2292/Gau-MOLECULE0/Gau-29808.inp -scrdir=/scratch/bdw2292/Gau-MOLECULE0/
 Entering Link 1 = /opt/g09gh/gaussian/g09/l1.exe PID=     29809.
  
 Copyright (c) 1988,1990,1992,1993,1995,1998,2003,2009, Gaussian, Inc.
                  All Rights Reserved.
  
 This is part of the Gaussian(R) 09 program.  It is based on
 the Gaussian(R) 03 system (copyright 2003, Gaussian, Inc.),
 the Gaussian(R) 98 system (copyright 1998, Gaussian, Inc.),
 the Gaussian(R) 94 system (copyright 1995, Gaussian, Inc.),
 the Gaussian 92(TM) system (copyright 1992, Gaussian, Inc.),
 the Gaussian 90(TM) system (copyright 1990, Gaussian, Inc.),
 the Gaussian 88(TM) system (copyright 1988, Gaussian, Inc.),
 the Gaussian 86(TM) system (copyright 1986, Carnegie Mellon
 University), and the Gaussian 82(TM) system (copyright 1983,
 Carnegie Mellon University). Gaussian is a federally registered
 trademark of Gaussian, Inc.
  
 This software contains proprietary and confidential information,
 including trade secrets, belonging to Gaussian, Inc.
  
 This software is provided under written license and may be
 used, copied, transmitted, or stored only in accord with that
 written license.
  
 The following legend is applicable only to US Government
 contracts under FAR:
  
                    RESTRICTED RIGHTS LEGEND
  
 Use, reproduction and disclosure by the US Government is
 subject to restrictions as set forth in subparagraphs (a)
 and (c) of the Commercial Computer Software - Restricted
 Rights clause in FAR 52.227-19.
  
 Gaussian, Inc.
 340 Quinnipiac St., Bldg. 40, Wallingford CT 06492
  
  
 ---------------------------------------------------------------
 Warning -- This program may not be used in any manner that
 competes with the business of Gaussian, Inc. or will provide
 assistance to any competitor of Gaussian, Inc.  The licensee
 of this program is prohibited from giving any competitor of
 Gaussian, Inc. access to this program.  By using this program,
 the user acknowledges that Gaussian, Inc. is engaged in the
 business of creating and licensing software in the field of
 computational chemistry and represents and warrants to the
 licensee that it is not a competitor of Gaussian, Inc. and that
 it will not use this program in any manner prohibited above.
 ---------------------------------------------------------------
  

 Cite this work as:
 Gaussian 09, Revision A.02,
 M. J. Frisch, G. W. Trucks, H. B. Schlegel, G. E. Scuseria, 
 M. A. Robb, J. R. Cheeseman, G. Scalmani, V. Barone, B. Mennucci, 
 G. A. Petersson, H. Nakatsuji, M. Caricato, X. Li, H. P. Hratchian, 
 A. F. Izmaylov, J. Bloino, G. Zheng, J. L. Sonnenberg, M. Hada, 
 M. Ehara, K. Toyota, R. Fukuda, J. Hasegawa, M. Ishida, T. Nakajima, 
 Y. Honda, O. Kitao, H. Nakai, T. Vreven, J. A. Montgomery, Jr., 
 J. E. Peralta, F. Ogliaro, M. Bearpark, J. J. Heyd, E. Brothers, 
 K. N. Kudin, V. N. Staroverov, R. Kobayashi, J. Normand, 
 K. Raghavachari, A. Rendell, J. C. Burant, S. S. Iyengar, J. Tomasi, 
 M. Cossi, N. Rega, J. M. Millam, M. Klene, J. E. Knox, J. B. Cross, 
 V. Bakken, C. Adamo, J. Jaramillo, R. Gomperts, R. E. Stratmann, 
 O. Yazyev, A. J. Austin, R. Cammi, C. Pomelli, J. W. Ochterski, 
 R. L. Martin, K. Morokuma, V. G. Zakrzewski, G. A. Voth, 
 P. Salvador, J. J. Dannenberg, S. Dapprich, A. D. Daniels, 
 O. Farkas, J. B. Foresman, J. V. Ortiz, J. Cioslowski, 
 and D. J. Fox, Gaussian, Inc., Wallingford CT, 2009.
 
 ******************************************
 Gaussian 09:  EM64L-G09RevA.02 11-Jun-2009
                10-Mar-2020 
 ******************************************
 %RWF=/scratch/bdw2292/Gau-MOLECULE0/,100GB
 %Nosave
 %Chk=MOLECULE0-opt-23-22-21-20-126.chk
 %Mem=20GB
 %Nproc=6
 Will use up to    6 processors via shared memory.
 --------------------------------------------------
 #P opt=(,maxcycle=400) wB97XD/6-31G* MaxDisk=100GB
 --------------------------------------------------
 1/6=400,14=-1,18=20,19=15,26=3,38=1/1,3;
 2/9=110,12=2,17=6,18=5,40=1/2;
 3/5=1,6=6,7=1,11=2,16=1,25=1,30=1,71=1,74=-58/1,2,3;
 4//1;
 5/5=2,38=5/2;
 6/7=2,8=2,9=2,10=2,28=1/1;
 7//1,2,3,16;
 1/6=400,14=-1,18=20,19=15/3(2);
 2/9=110/2;
 99//99;
 2/9=110/2;
 3/5=1,6=6,7=1,11=2,16=1,25=1,30=1,71=1,74=-58/1,2,3;
 4/5=5,16=3/1;
 5/5=2,38=5/2;
 7//1,2,3,16;
 1/6=400,14=-1,18=20,19=15/3(-5);
 2/9=110/2;
 6/7=2,8=2,9=2,10=2,19=2,28=1/1;
 99/9=1/99;
 Leave Link    1 at Tue Mar 10 11:26:12 2020, MaxMem= 2684354560 cpu:       0.4
 (Enter /opt/g09gh/gaussian/g09/l101.exe)
 -----------------------------------------------------------------
 MOLECULE0 Rotatable Bond Optimization on g2-node38.bme.utexas.edu
 -----------------------------------------------------------------
 Symbolic Z-matrix:
 Charge =  0 Multiplicity = 1
 C                    -3.60906  -0.69643   6.21358 
 C                    -2.70968  -1.57153   6.83901 
 C                    -1.68988  -2.188     6.08727 
 C                    -1.66221  -1.85846   4.70928 
 N                    -2.50705  -1.02323   4.09533 
 C                    -3.46276  -0.45052   4.84318 
 C                    -0.62597  -3.07602   6.68567 
 C                    -0.45992  -3.35229   8.05222 
 C                     0.67783  -4.09691   8.38603 
 N                     1.57457  -4.54031   7.50839 
 C                     1.31753  -4.2546    6.21485 
 N                     0.25315  -3.56906   5.79233 
 N                     2.24886  -4.71426   5.29465 
 C                     2.37335  -4.55823   3.86484 
 C                     3.62719  -4.82216   3.23545 
 C                     3.71177  -4.58065   1.85325 
 C                     2.63916  -4.14018   1.06808 
 C                     1.39531  -3.96979   1.68481 
 C                     1.28961  -4.16066   3.07132 
 N                     0.17949  -3.58417   1.03157 
 C                    -0.05735  -3.14545  -0.24917 
 C                    -1.43411  -2.57638  -0.52129 
 C                    -1.56532  -1.29664  -1.07968 
 C                    -2.83416  -0.76629  -1.32837 
 C                    -4.00263  -1.52776  -1.12659 
 C                    -3.85361  -2.80943  -0.56391 
 C                    -2.5933   -3.31992  -0.24466 
 C                    -5.38167  -0.95557  -1.45982 
 N                    -6.09631  -0.09613  -0.50125 
 C                    -5.65486   1.30449  -0.30726 
 C                    -4.76175   1.55078   0.93891 
 N                    -5.30464   1.02071   2.21344 
 C                    -6.33117   1.84923   2.85849 
 C                    -5.63033  -0.40813   2.00942 
 C                    -6.52944  -0.69102   0.7831 
 O                     0.77167  -3.21399  -1.14098 
 C                     4.86473  -5.27212   3.99288 
 H                    -4.39453  -0.20031   6.77581 
 H                    -2.8165   -1.74299   7.90725 
 H                    -0.88236  -2.25614   4.06981 
 H                    -4.12116   0.24219   4.32272 
 H                    -1.11596  -2.9803    8.82964 
 H                     0.89282  -4.3309    9.42854 
 H                     3.00938  -5.16577   5.7803 
 H                     4.66252  -4.73593   1.34453 
 H                     2.74471  -3.97944   0.00177 
 H                     0.3389   -4.0089    3.55669 
 H                    -0.63184  -3.56705   1.6342 
 H                    -0.66564  -0.72608  -1.29448 
 H                    -2.90471   0.23384  -1.75615 
 H                    -4.73249  -3.42287  -0.36615 
 H                    -2.49524  -4.32069   0.16941 
 H                    -5.28302  -0.3861   -2.39576 
 H                    -6.06013  -1.79493  -1.67293 
 H                    -5.21429   1.68629  -1.19796 
 H                    -6.95694   2.1552   -0.05467 
 H                    -4.53608   2.88317   1.07184 
 H                    -3.46823   0.88539   0.71084 
 H                    -7.22712   1.92802   2.23285 
 H                    -5.94083   2.85599   3.04651 
 H                    -6.61539   1.41382   3.82357 
 H                    -6.07429  -0.83346   2.95336 
 H                    -4.272    -1.14479   1.74824 
 H                    -7.92392  -0.05623   1.13133 
 H                    -6.70547  -1.88904   0.65639 
 H                     4.70794  -6.24934   4.47088 
 H                     5.13552  -4.55759   4.78311 
 H                     5.74798  -5.37667   3.34767 
 
 NAtoms=     68 NQM=     68 NQMF=      0 NMic=      0 NMicF=      0 NTot=     68.
                    Isotopes and Nuclear Properties:
 (Nuclear quadrupole moments (NQMom) in fm**2, nuclear magnetic moments (NMagM)
  in nuclear magnetons)

  Atom         1           2           3           4           5           6           7           8           9          10
 IAtWgt=          12          12          12          12          14          12          12          12          12          14
 AtmWgt=  12.0000000  12.0000000  12.0000000  12.0000000  14.0030740  12.0000000  12.0000000  12.0000000  12.0000000  14.0030740
 NucSpn=           0           0           0           0           2           0           0           0           0           2
 AtZEff=   0.0000000   0.0000000   0.0000000   0.0000000   0.0000000   0.0000000   0.0000000   0.0000000   0.0000000   0.0000000
 NQMom=    0.0000000   0.0000000   0.0000000   0.0000000   2.0440000   0.0000000   0.0000000   0.0000000   0.0000000   2.0440000
 NMagM=    0.0000000   0.0000000   0.0000000   0.0000000   0.4037610   0.0000000   0.0000000   0.0000000   0.0000000   0.4037610

  Atom        11          12          13          14          15          16          17          18          19          20
 IAtWgt=          12          14          14          12          12          12          12          12          12          14
 AtmWgt=  12.0000000  14.0030740  14.0030740  12.0000000  12.0000000  12.0000000  12.0000000  12.0000000  12.0000000  14.0030740
 NucSpn=           0           2           2           0           0           0           0           0           0           2
 AtZEff=   0.0000000   0.0000000   0.0000000   0.0000000   0.0000000   0.0000000   0.0000000   0.0000000   0.0000000   0.0000000
 NQMom=    0.0000000   2.0440000   2.0440000   0.0000000   0.0000000   0.0000000   0.0000000   0.0000000   0.0000000   2.0440000
 NMagM=    0.0000000   0.4037610   0.4037610   0.0000000   0.0000000   0.0000000   0.0000000   0.0000000   0.0000000   0.4037610

  Atom        21          22          23          24          25          26          27          28          29          30
 IAtWgt=          12          12          12          12          12          12          12          12          14          12
 AtmWgt=  12.0000000  12.0000000  12.0000000  12.0000000  12.0000000  12.0000000  12.0000000  12.0000000  14.0030740  12.0000000
 NucSpn=           0           0           0           0           0           0           0           0           2           0
 AtZEff=   0.0000000   0.0000000   0.0000000   0.0000000   0.0000000   0.0000000   0.0000000   0.0000000   0.0000000   0.0000000
 NQMom=    0.0000000   0.0000000   0.0000000   0.0000000   0.0000000   0.0000000   0.0000000   0.0000000   2.0440000   0.0000000
 NMagM=    0.0000000   0.0000000   0.0000000   0.0000000   0.0000000   0.0000000   0.0000000   0.0000000   0.4037610   0.0000000

  Atom        31          32          33          34          35          36          37          38          39          40
 IAtWgt=          12          14          12          12          12          16          12           1           1           1
 AtmWgt=  12.0000000  14.0030740  12.0000000  12.0000000  12.0000000  15.9949146  12.0000000   1.0078250   1.0078250   1.0078250
 NucSpn=           0           2           0           0           0           0           0           1           1           1
 AtZEff=   0.0000000   0.0000000   0.0000000   0.0000000   0.0000000   0.0000000   0.0000000   0.0000000   0.0000000   0.0000000
 NQMom=    0.0000000   2.0440000   0.0000000   0.0000000   0.0000000   0.0000000   0.0000000   0.0000000   0.0000000   0.0000000
 NMagM=    0.0000000   0.4037610   0.0000000   0.0000000   0.0000000   0.0000000   0.0000000   2.7928460   2.7928460   2.7928460

  Atom        41          42          43          44          45          46          47          48          49          50
 IAtWgt=           1           1           1           1           1           1           1           1           1           1
 AtmWgt=   1.0078250   1.0078250   1.0078250   1.0078250   1.0078250   1.0078250   1.0078250   1.0078250   1.0078250   1.0078250
 NucSpn=           1           1           1           1           1           1           1           1           1           1
 AtZEff=   0.0000000   0.0000000   0.0000000   0.0000000   0.0000000   0.0000000   0.0000000   0.0000000   0.0000000   0.0000000
 NQMom=    0.0000000   0.0000000   0.0000000   0.0000000   0.0000000   0.0000000   0.0000000   0.0000000   0.0000000   0.0000000
 NMagM=    2.7928460   2.7928460   2.7928460   2.7928460   2.7928460   2.7928460   2.7928460   2.7928460   2.7928460   2.7928460

  Atom        51          52          53          54          55          56          57          58          59          60
 IAtWgt=           1           1           1           1           1           1           1           1           1           1
 AtmWgt=   1.0078250   1.0078250   1.0078250   1.0078250   1.0078250   1.0078250   1.0078250   1.0078250   1.0078250   1.0078250
 NucSpn=           1           1           1           1           1           1           1           1           1           1
 AtZEff=   0.0000000   0.0000000   0.0000000   0.0000000   0.0000000   0.0000000   0.0000000   0.0000000   0.0000000   0.0000000
 NQMom=    0.0000000   0.0000000   0.0000000   0.0000000   0.0000000   0.0000000   0.0000000   0.0000000   0.0000000   0.0000000
 NMagM=    2.7928460   2.7928460   2.7928460   2.7928460   2.7928460   2.7928460   2.7928460   2.7928460   2.7928460   2.7928460

  Atom        61          62          63          64          65          66          67          68
 IAtWgt=           1           1           1           1           1           1           1           1
 AtmWgt=   1.0078250   1.0078250   1.0078250   1.0078250   1.0078250   1.0078250   1.0078250   1.0078250
 NucSpn=           1           1           1           1           1           1           1           1
 AtZEff=   0.0000000   0.0000000   0.0000000   0.0000000   0.0000000   0.0000000   0.0000000   0.0000000
 NQMom=    0.0000000   0.0000000   0.0000000   0.0000000   0.0000000   0.0000000   0.0000000   0.0000000
 NMagM=    2.7928460   2.7928460   2.7928460   2.7928460   2.7928460   2.7928460   2.7928460   2.7928460
 Leave Link  101 at Tue Mar 10 11:26:12 2020, MaxMem= 2684354560 cpu:       1.0
 (Enter /opt/g09gh/gaussian/g09/l103.exe)

 GradGradGradGradGradGradGradGradGradGradGradGradGradGradGradGradGradGrad
 Berny optimization.
 Initialization pass.
                           ----------------------------
                           !    Initial Parameters    !
                           ! (Angstroms and Degrees)  !
 --------------------------                            --------------------------
 ! Name  Definition              Value          Derivative Info.                !
 --------------------------------------------------------------------------------
 ! R1    R(1,2)                  1.4021         estimate D2E/DX2                !
 ! R2    R(1,6)                  1.4            estimate D2E/DX2                !
 ! R3    R(1,38)                 1.0859         estimate D2E/DX2                !
 ! R4    R(2,3)                  1.4089         estimate D2E/DX2                !
 ! R5    R(2,39)                 1.0872         estimate D2E/DX2                !
 ! R6    R(3,4)                  1.4171         estimate D2E/DX2                !
 ! R7    R(3,7)                  1.5095         estimate D2E/DX2                !
 ! R8    R(4,5)                  1.3373         estimate D2E/DX2                !
 ! R9    R(4,40)                 1.0841         estimate D2E/DX2                !
 ! R10   R(5,6)                  1.3419         estimate D2E/DX2                !
 ! R11   R(6,41)                 1.0882         estimate D2E/DX2                !
 ! R12   R(7,8)                  1.4041         estimate D2E/DX2                !
 ! R13   R(7,12)                 1.3468         estimate D2E/DX2                !
 ! R14   R(8,9)                  1.4001         estimate D2E/DX2                !
 ! R15   R(8,42)                 1.0831         estimate D2E/DX2                !
 ! R16   R(9,10)                 1.3308         estimate D2E/DX2                !
 ! R17   R(9,43)                 1.0899         estimate D2E/DX2                !
 ! R18   R(10,11)                1.3494         estimate D2E/DX2                !
 ! R19   R(11,12)                1.3347         estimate D2E/DX2                !
 ! R20   R(11,13)                1.3876         estimate D2E/DX2                !
 ! R21   R(13,14)                1.4437         estimate D2E/DX2                !
 ! R22   R(13,44)                1.009          estimate D2E/DX2                !
 ! R23   R(14,15)                1.4276         estimate D2E/DX2                !
 ! R24   R(14,19)                1.4008         estimate D2E/DX2                !
 ! R25   R(15,16)                1.4057         estimate D2E/DX2                !
 ! R26   R(15,37)                1.5191         estimate D2E/DX2                !
 ! R27   R(16,17)                1.4004         estimate D2E/DX2                !
 ! R28   R(16,45)                1.0894         estimate D2E/DX2                !
 ! R29   R(17,18)                1.3988         estimate D2E/DX2                !
 ! R30   R(17,46)                1.0835         estimate D2E/DX2                !
 ! R31   R(18,19)                1.4036         estimate D2E/DX2                !
 ! R32   R(18,20)                1.4331         estimate D2E/DX2                !
 ! R33   R(19,47)                1.0782         estimate D2E/DX2                !
 ! R34   R(20,21)                1.3744         estimate D2E/DX2                !
 ! R35   R(20,48)                1.0108         estimate D2E/DX2                !
 ! R36   R(21,22)                1.5144         estimate D2E/DX2                !
 ! R37   R(21,36)                1.2195         estimate D2E/DX2                !
 ! R38   R(22,23)                1.4024         estimate D2E/DX2                !
 ! R39   R(22,27)                1.4047         estimate D2E/DX2                !
 ! R40   R(23,24)                1.3975         estimate D2E/DX2                !
 ! R41   R(23,49)                1.0868         estimate D2E/DX2                !
 ! R42   R(24,25)                1.4092         estimate D2E/DX2                !
 ! R43   R(24,50)                1.0901         estimate D2E/DX2                !
 ! R44   R(25,26)                1.4077         estimate D2E/DX2                !
 ! R45   R(25,28)                1.5298         estimate D2E/DX2                !
 ! R46   R(26,27)                1.3967         estimate D2E/DX2                !
 ! R47   R(26,51)                1.0899         estimate D2E/DX2                !
 ! R48   R(27,52)                1.0875         estimate D2E/DX2                !
 ! R49   R(28,29)                1.4725         estimate D2E/DX2                !
 ! R50   R(28,53)                1.1            estimate D2E/DX2                !
 ! R51   R(28,54)                1.1001         estimate D2E/DX2                !
 ! R52   R(29,30)                1.4813         estimate D2E/DX2                !
 ! R53   R(29,35)                1.4802         estimate D2E/DX2                !
 ! R54   R(30,31)                1.5528         estimate D2E/DX2                !
 ! R55   R(30,55)                1.0645         estimate D2E/DX2                !
 ! R56   R(30,56)                1.5757         estimate D2E/DX2                !
 ! R57   R(31,32)                1.4833         estimate D2E/DX2                !
 ! R58   R(31,57)                1.3579         estimate D2E/DX2                !
 ! R59   R(31,58)                1.4724         estimate D2E/DX2                !
 ! R60   R(32,33)                1.4684         estimate D2E/DX2                !
 ! R61   R(32,34)                1.4796         estimate D2E/DX2                !
 ! R62   R(33,59)                1.0956         estimate D2E/DX2                !
 ! R63   R(33,60)                1.096          estimate D2E/DX2                !
 ! R64   R(33,61)                1.0962         estimate D2E/DX2                !
 ! R65   R(34,35)                1.5467         estimate D2E/DX2                !
 ! R66   R(34,62)                1.1265         estimate D2E/DX2                !
 ! R67   R(34,63)                1.5671         estimate D2E/DX2                !
 ! R68   R(35,64)                1.5712         estimate D2E/DX2                !
 ! R69   R(35,65)                1.2175         estimate D2E/DX2                !
 ! R70   R(37,66)                1.0991         estimate D2E/DX2                !
 ! R71   R(37,67)                1.0993         estimate D2E/DX2                !
 ! R72   R(37,68)                1.0988         estimate D2E/DX2                !
 ! A1    A(2,1,6)              118.6366         estimate D2E/DX2                !
 ! A2    A(2,1,38)             121.2108         estimate D2E/DX2                !
 ! A3    A(6,1,38)             120.1426         estimate D2E/DX2                !
 ! A4    A(1,2,3)              119.9588         estimate D2E/DX2                !
 ! A5    A(1,2,39)             118.2752         estimate D2E/DX2                !
 ! A6    A(3,2,39)             121.7604         estimate D2E/DX2                !
 ! A7    A(2,3,4)              115.5436         estimate D2E/DX2                !
 ! A8    A(2,3,7)              123.7822         estimate D2E/DX2                !
 ! A9    A(4,3,7)              120.5652         estimate D2E/DX2                !
 ! A10   A(3,4,5)              125.4041         estimate D2E/DX2                !
 ! A11   A(3,4,40)             120.1542         estimate D2E/DX2                !
 ! A12   A(5,4,40)             114.3787         estimate D2E/DX2                !
 ! A13   A(4,5,6)              117.429          estimate D2E/DX2                !
 ! A14   A(1,6,5)              123.0251         estimate D2E/DX2                !
 ! A15   A(1,6,41)             121.1151         estimate D2E/DX2                !
 ! A16   A(5,6,41)             115.8516         estimate D2E/DX2                !
 ! A17   A(3,7,8)              125.799          estimate D2E/DX2                !
 ! A18   A(3,7,12)             114.3598         estimate D2E/DX2                !
 ! A19   A(8,7,12)             119.7584         estimate D2E/DX2                !
 ! A20   A(7,8,9)              115.6447         estimate D2E/DX2                !
 ! A21   A(7,8,42)             124.0128         estimate D2E/DX2                !
 ! A22   A(9,8,42)             120.2466         estimate D2E/DX2                !
 ! A23   A(8,9,10)             124.5783         estimate D2E/DX2                !
 ! A24   A(8,9,43)             120.1674         estimate D2E/DX2                !
 ! A25   A(10,9,43)            115.2381         estimate D2E/DX2                !
 ! A26   A(9,10,11)            115.6757         estimate D2E/DX2                !
 ! A27   A(10,11,12)           124.3408         estimate D2E/DX2                !
 ! A28   A(10,11,13)           115.9575         estimate D2E/DX2                !
 ! A29   A(12,11,13)           119.7005         estimate D2E/DX2                !
 ! A30   A(7,12,11)            119.9063         estimate D2E/DX2                !
 ! A31   A(11,13,14)           132.7545         estimate D2E/DX2                !
 ! A32   A(11,13,44)           109.569          estimate D2E/DX2                !
 ! A33   A(14,13,44)           117.3907         estimate D2E/DX2                !
 ! A34   A(13,14,15)           119.4986         estimate D2E/DX2                !
 ! A35   A(13,14,19)           121.6684         estimate D2E/DX2                !
 ! A36   A(15,14,19)           118.8317         estimate D2E/DX2                !
 ! A37   A(14,15,16)           117.0393         estimate D2E/DX2                !
 ! A38   A(14,15,37)           123.3985         estimate D2E/DX2                !
 ! A39   A(16,15,37)           119.4817         estimate D2E/DX2                !
 ! A40   A(15,16,17)           124.0057         estimate D2E/DX2                !
 ! A41   A(15,16,45)           119.1556         estimate D2E/DX2                !
 ! A42   A(17,16,45)           116.8382         estimate D2E/DX2                !
 ! A43   A(16,17,18)           118.179          estimate D2E/DX2                !
 ! A44   A(16,17,46)           121.5901         estimate D2E/DX2                !
 ! A45   A(18,17,46)           120.163          estimate D2E/DX2                !
 ! A46   A(17,18,19)           119.0748         estimate D2E/DX2                !
 ! A47   A(17,18,20)           125.8908         estimate D2E/DX2                !
 ! A48   A(19,18,20)           115.0241         estimate D2E/DX2                !
 ! A49   A(14,19,18)           122.6787         estimate D2E/DX2                !
 ! A50   A(14,19,47)           117.8479         estimate D2E/DX2                !
 ! A51   A(18,19,47)           119.47           estimate D2E/DX2                !
 ! A52   A(18,20,21)           131.0634         estimate D2E/DX2                !
 ! A53   A(18,20,48)           114.4424         estimate D2E/DX2                !
 ! A54   A(21,20,48)           114.3212         estimate D2E/DX2                !
 ! A55   A(20,21,22)           116.3643         estimate D2E/DX2                !
 ! A56   A(20,21,36)           123.1182         estimate D2E/DX2                !
 ! A57   A(22,21,36)           120.5114         estimate D2E/DX2                !
 ! A58   A(21,22,23)           119.9681         estimate D2E/DX2                !
 ! A59   A(21,22,27)           121.0604         estimate D2E/DX2                !
 ! A60   A(23,22,27)           118.9623         estimate D2E/DX2                !
 ! A61   A(22,23,24)           120.1389         estimate D2E/DX2                !
 ! A62   A(22,23,49)           118.706          estimate D2E/DX2                !
 ! A63   A(24,23,49)           121.1452         estimate D2E/DX2                !
 ! A64   A(23,24,25)           121.4848         estimate D2E/DX2                !
 ! A65   A(23,24,50)           118.4751         estimate D2E/DX2                !
 ! A66   A(25,24,50)           119.8881         estimate D2E/DX2                !
 ! A67   A(24,25,26)           117.4809         estimate D2E/DX2                !
 ! A68   A(24,25,28)           120.9414         estimate D2E/DX2                !
 ! A69   A(26,25,28)           121.5382         estimate D2E/DX2                !
 ! A70   A(25,26,27)           121.3096         estimate D2E/DX2                !
 ! A71   A(25,26,51)           119.9757         estimate D2E/DX2                !
 ! A72   A(27,26,51)           118.7144         estimate D2E/DX2                !
 ! A73   A(22,27,26)           120.4079         estimate D2E/DX2                !
 ! A74   A(22,27,52)           119.189          estimate D2E/DX2                !
 ! A75   A(26,27,52)           120.3144         estimate D2E/DX2                !
 ! A76   A(25,28,29)           120.932          estimate D2E/DX2                !
 ! A77   A(25,28,53)           107.3454         estimate D2E/DX2                !
 ! A78   A(25,28,54)           108.2259         estimate D2E/DX2                !
 ! A79   A(29,28,53)           107.1729         estimate D2E/DX2                !
 ! A80   A(29,28,54)           105.7909         estimate D2E/DX2                !
 ! A81   A(53,28,54)           106.5872         estimate D2E/DX2                !
 ! A82   A(28,29,30)           119.5051         estimate D2E/DX2                !
 ! A83   A(28,29,35)           118.1832         estimate D2E/DX2                !
 ! A84   A(30,29,35)           110.7061         estimate D2E/DX2                !
 ! A85   A(29,30,31)           115.2436         estimate D2E/DX2                !
 ! A86   A(29,30,55)           110.6636         estimate D2E/DX2                !
 ! A87   A(29,30,56)           106.5718         estimate D2E/DX2                !
 ! A88   A(31,30,55)           112.1207         estimate D2E/DX2                !
 ! A89   A(31,30,56)           105.1291         estimate D2E/DX2                !
 ! A90   A(55,30,56)           106.4086         estimate D2E/DX2                !
 ! A91   A(30,31,32)           114.9852         estimate D2E/DX2                !
 ! A92   A(30,31,57)           109.2551         estimate D2E/DX2                !
 ! A93   A(30,31,58)           108.0167         estimate D2E/DX2                !
 ! A94   A(32,31,57)           109.109          estimate D2E/DX2                !
 ! A95   A(32,31,58)           107.0465         estimate D2E/DX2                !
 ! A96   A(57,31,58)           108.215          estimate D2E/DX2                !
 ! A97   A(31,32,33)           115.5746         estimate D2E/DX2                !
 ! A98   A(31,32,34)           107.8893         estimate D2E/DX2                !
 ! A99   A(33,32,34)           116.8434         estimate D2E/DX2                !
 ! A100  A(32,33,59)           111.1862         estimate D2E/DX2                !
 ! A101  A(32,33,60)           110.161          estimate D2E/DX2                !
 ! A102  A(32,33,61)           110.1125         estimate D2E/DX2                !
 ! A103  A(59,33,60)           108.8528         estimate D2E/DX2                !
 ! A104  A(59,33,61)           108.6184         estimate D2E/DX2                !
 ! A105  A(60,33,61)           107.8274         estimate D2E/DX2                !
 ! A106  A(32,34,35)           114.4501         estimate D2E/DX2                !
 ! A107  A(32,34,62)           109.622          estimate D2E/DX2                !
 ! A108  A(32,34,63)           106.6264         estimate D2E/DX2                !
 ! A109  A(35,34,62)           111.4821         estimate D2E/DX2                !
 ! A110  A(35,34,63)           106.6033         estimate D2E/DX2                !
 ! A111  A(62,34,63)           107.6833         estimate D2E/DX2                !
 ! A112  A(29,35,34)           116.381          estimate D2E/DX2                !
 ! A113  A(29,35,64)           106.8363         estimate D2E/DX2                !
 ! A114  A(29,35,65)           110.3325         estimate D2E/DX2                !
 ! A115  A(34,35,64)           105.4441         estimate D2E/DX2                !
 ! A116  A(34,35,65)           110.2753         estimate D2E/DX2                !
 ! A117  A(64,35,65)           106.9955         estimate D2E/DX2                !
 ! A118  A(15,37,66)           111.3454         estimate D2E/DX2                !
 ! A119  A(15,37,67)           111.5051         estimate D2E/DX2                !
 ! A120  A(15,37,68)           112.97           estimate D2E/DX2                !
 ! A121  A(66,37,67)           107.4835         estimate D2E/DX2                !
 ! A122  A(66,37,68)           106.5857         estimate D2E/DX2                !
 ! A123  A(67,37,68)           106.6156         estimate D2E/DX2                !
 ! D1    D(6,1,2,3)             -0.343          estimate D2E/DX2                !
 ! D2    D(6,1,2,39)           178.8078         estimate D2E/DX2                !
 ! D3    D(38,1,2,3)          -179.1956         estimate D2E/DX2                !
 ! D4    D(38,1,2,39)           -0.0447         estimate D2E/DX2                !
 ! D5    D(2,1,6,5)              0.5998         estimate D2E/DX2                !
 ! D6    D(2,1,6,41)          -178.3183         estimate D2E/DX2                !
 ! D7    D(38,1,6,5)           179.465          estimate D2E/DX2                !
 ! D8    D(38,1,6,41)            0.5469         estimate D2E/DX2                !
 ! D9    D(1,2,3,4)             -0.1009         estimate D2E/DX2                !
 ! D10   D(1,2,3,7)            176.1131         estimate D2E/DX2                !
 ! D11   D(39,2,3,4)          -179.2214         estimate D2E/DX2                !
 ! D12   D(39,2,3,7)            -3.0073         estimate D2E/DX2                !
 ! D13   D(2,3,4,5)              0.366          estimate D2E/DX2                !
 ! D14   D(2,3,4,40)           177.3093         estimate D2E/DX2                !
 ! D15   D(7,3,4,5)           -175.9797         estimate D2E/DX2                !
 ! D16   D(7,3,4,40)             0.9636         estimate D2E/DX2                !
 ! D17   D(2,3,7,8)             -3.5262         estimate D2E/DX2                !
 ! D18   D(2,3,7,12)           179.8121         estimate D2E/DX2                !
 ! D19   D(4,3,7,8)            172.5064         estimate D2E/DX2                !
 ! D20   D(4,3,7,12)            -4.1553         estimate D2E/DX2                !
 ! D21   D(3,4,5,6)             -0.1436         estimate D2E/DX2                !
 ! D22   D(40,4,5,6)          -177.2421         estimate D2E/DX2                !
 ! D23   D(4,5,6,1)             -0.3574         estimate D2E/DX2                !
 ! D24   D(4,5,6,41)           178.6134         estimate D2E/DX2                !
 ! D25   D(3,7,8,9)           -173.8381         estimate D2E/DX2                !
 ! D26   D(3,7,8,42)             2.5967         estimate D2E/DX2                !
 ! D27   D(12,7,8,9)             2.6586         estimate D2E/DX2                !
 ! D28   D(12,7,8,42)          179.0934         estimate D2E/DX2                !
 ! D29   D(3,7,12,11)          173.1808         estimate D2E/DX2                !
 ! D30   D(8,7,12,11)           -3.7005         estimate D2E/DX2                !
 ! D31   D(7,8,9,10)            -0.0712         estimate D2E/DX2                !
 ! D32   D(7,8,9,43)           178.3911         estimate D2E/DX2                !
 ! D33   D(42,8,9,10)         -176.6504         estimate D2E/DX2                !
 ! D34   D(42,8,9,43)            1.8119         estimate D2E/DX2                !
 ! D35   D(8,9,10,11)           -1.4231         estimate D2E/DX2                !
 ! D36   D(43,9,10,11)        -179.9534         estimate D2E/DX2                !
 ! D37   D(9,10,11,12)           0.3968         estimate D2E/DX2                !
 ! D38   D(9,10,11,13)        -179.9982         estimate D2E/DX2                !
 ! D39   D(10,11,12,7)           2.1814         estimate D2E/DX2                !
 ! D40   D(13,11,12,7)        -177.4098         estimate D2E/DX2                !
 ! D41   D(10,11,13,14)       -176.1416         estimate D2E/DX2                !
 ! D42   D(10,11,13,44)         -2.6243         estimate D2E/DX2                !
 ! D43   D(12,11,13,14)          3.4829         estimate D2E/DX2                !
 ! D44   D(12,11,13,44)        177.0003         estimate D2E/DX2                !
 ! D45   D(11,13,14,15)        162.3082         estimate D2E/DX2                !
 ! D46   D(11,13,14,19)        -18.0965         estimate D2E/DX2                !
 ! D47   D(44,13,14,15)        -10.8104         estimate D2E/DX2                !
 ! D48   D(44,13,14,19)        168.7849         estimate D2E/DX2                !
 ! D49   D(13,14,15,16)       -176.4656         estimate D2E/DX2                !
 ! D50   D(13,14,15,37)          0.2472         estimate D2E/DX2                !
 ! D51   D(19,14,15,16)          3.9276         estimate D2E/DX2                !
 ! D52   D(19,14,15,37)       -179.3596         estimate D2E/DX2                !
 ! D53   D(13,14,19,18)        178.3504         estimate D2E/DX2                !
 ! D54   D(13,14,19,47)         -2.3219         estimate D2E/DX2                !
 ! D55   D(15,14,19,18)         -2.0517         estimate D2E/DX2                !
 ! D56   D(15,14,19,47)        177.276          estimate D2E/DX2                !
 ! D57   D(14,15,16,17)         -1.9256         estimate D2E/DX2                !
 ! D58   D(14,15,16,45)        177.8063         estimate D2E/DX2                !
 ! D59   D(37,15,16,17)       -178.7732         estimate D2E/DX2                !
 ! D60   D(37,15,16,45)          0.9587         estimate D2E/DX2                !
 ! D61   D(14,15,37,66)         63.0003         estimate D2E/DX2                !
 ! D62   D(14,15,37,67)        -57.0442         estimate D2E/DX2                !
 ! D63   D(14,15,37,68)       -177.0984         estimate D2E/DX2                !
 ! D64   D(16,15,37,66)       -120.3631         estimate D2E/DX2                !
 ! D65   D(16,15,37,67)        119.5923         estimate D2E/DX2                !
 ! D66   D(16,15,37,68)         -0.4619         estimate D2E/DX2                !
 ! D67   D(15,16,17,18)         -2.1285         estimate D2E/DX2                !
 ! D68   D(15,16,17,46)       -179.1354         estimate D2E/DX2                !
 ! D69   D(45,16,17,18)        178.1339         estimate D2E/DX2                !
 ! D70   D(45,16,17,46)          1.127          estimate D2E/DX2                !
 ! D71   D(16,17,18,19)          4.0801         estimate D2E/DX2                !
 ! D72   D(16,17,18,20)       -177.1482         estimate D2E/DX2                !
 ! D73   D(46,17,18,19)       -178.8687         estimate D2E/DX2                !
 ! D74   D(46,17,18,20)         -0.097          estimate D2E/DX2                !
 ! D75   D(17,18,19,14)         -2.0807         estimate D2E/DX2                !
 ! D76   D(17,18,19,47)        178.6021         estimate D2E/DX2                !
 ! D77   D(20,18,19,14)        179.0174         estimate D2E/DX2                !
 ! D78   D(20,18,19,47)         -0.2997         estimate D2E/DX2                !
 ! D79   D(17,18,20,21)         -8.6728         estimate D2E/DX2                !
 ! D80   D(17,18,20,48)        176.4581         estimate D2E/DX2                !
 ! D81   D(19,18,20,21)        170.1425         estimate D2E/DX2                !
 ! D82   D(19,18,20,48)         -4.7266         estimate D2E/DX2                !
 ! D83   D(18,20,21,22)       -168.7704         estimate D2E/DX2                !
 ! D84   D(18,20,21,36)         12.1213         estimate D2E/DX2                !
 ! D85   D(48,20,21,22)          6.1037         estimate D2E/DX2                !
 ! D86   D(48,20,21,36)       -173.0047         estimate D2E/DX2                !
 ! D87   D(20,21,22,23)        126.0362         estimate D2E/DX2                !
 ! D88   D(20,21,22,27)        -55.0766         estimate D2E/DX2                !
 ! D89   D(36,21,22,23)        -54.8306         estimate D2E/DX2                !
 ! D90   D(36,21,22,27)        124.0566         estimate D2E/DX2                !
 ! D91   D(21,22,23,24)       -179.7973         estimate D2E/DX2                !
 ! D92   D(21,22,23,49)         -0.9288         estimate D2E/DX2                !
 ! D93   D(27,22,23,24)          1.2921         estimate D2E/DX2                !
 ! D94   D(27,22,23,49)       -179.8393         estimate D2E/DX2                !
 ! D95   D(21,22,27,26)       -176.7267         estimate D2E/DX2                !
 ! D96   D(21,22,27,52)         -0.1397         estimate D2E/DX2                !
 ! D97   D(23,22,27,26)          2.1715         estimate D2E/DX2                !
 ! D98   D(23,22,27,52)        178.7585         estimate D2E/DX2                !
 ! D99   D(22,23,24,25)         -4.9349         estimate D2E/DX2                !
 ! D100  D(22,23,24,50)        179.5528         estimate D2E/DX2                !
 ! D101  D(49,23,24,25)        176.2246         estimate D2E/DX2                !
 ! D102  D(49,23,24,50)          0.7124         estimate D2E/DX2                !
 ! D103  D(23,24,25,26)          4.91           estimate D2E/DX2                !
 ! D104  D(23,24,25,28)       -177.3439         estimate D2E/DX2                !
 ! D105  D(50,24,25,26)       -179.6401         estimate D2E/DX2                !
 ! D106  D(50,24,25,28)         -1.894          estimate D2E/DX2                !
 ! D107  D(24,25,26,27)         -1.3846         estimate D2E/DX2                !
 ! D108  D(24,25,26,51)        178.4096         estimate D2E/DX2                !
 ! D109  D(28,25,26,27)       -179.1164         estimate D2E/DX2                !
 ! D110  D(28,25,26,51)          0.6778         estimate D2E/DX2                !
 ! D111  D(24,25,28,29)        -83.44           estimate D2E/DX2                !
 ! D112  D(24,25,28,53)         39.7744         estimate D2E/DX2                !
 ! D113  D(24,25,28,54)        154.465          estimate D2E/DX2                !
 ! D114  D(26,25,28,29)         94.2138         estimate D2E/DX2                !
 ! D115  D(26,25,28,53)       -142.5718         estimate D2E/DX2                !
 ! D116  D(26,25,28,54)        -27.8812         estimate D2E/DX2                !
 ! D117  D(25,26,27,22)         -2.1177         estimate D2E/DX2                !
 ! D118  D(25,26,27,52)       -178.6661         estimate D2E/DX2                !
 ! D119  D(51,26,27,22)        178.0855         estimate D2E/DX2                !
 ! D120  D(51,26,27,52)          1.5371         estimate D2E/DX2                !
 ! D121  D(25,28,29,30)         74.7261         estimate D2E/DX2                !
 ! D122  D(25,28,29,35)        -65.1027         estimate D2E/DX2                !
 ! D123  D(53,28,29,30)        -48.57           estimate D2E/DX2                !
 ! D124  D(53,28,29,35)        171.6012         estimate D2E/DX2                !
 ! D125  D(54,28,29,30)       -162.0175         estimate D2E/DX2                !
 ! D126  D(54,28,29,35)         58.1538         estimate D2E/DX2                !
 ! D127  D(28,29,30,31)        -99.198          estimate D2E/DX2                !
 ! D128  D(28,29,30,55)         29.3199         estimate D2E/DX2                !
 ! D129  D(28,29,30,56)        144.6112         estimate D2E/DX2                !
 ! D130  D(35,29,30,31)         43.3671         estimate D2E/DX2                !
 ! D131  D(35,29,30,55)        171.885          estimate D2E/DX2                !
 ! D132  D(35,29,30,56)        -72.8236         estimate D2E/DX2                !
 ! D133  D(28,29,35,34)         99.5428         estimate D2E/DX2                !
 ! D134  D(28,29,35,64)       -143.0276         estimate D2E/DX2                !
 ! D135  D(28,29,35,65)        -27.0632         estimate D2E/DX2                !
 ! D136  D(30,29,35,34)        -43.5741         estimate D2E/DX2                !
 ! D137  D(30,29,35,64)         73.8554         estimate D2E/DX2                !
 ! D138  D(30,29,35,65)       -170.1802         estimate D2E/DX2                !
 ! D139  D(29,30,31,32)        -51.1235         estimate D2E/DX2                !
 ! D140  D(29,30,31,57)       -174.1718         estimate D2E/DX2                !
 ! D141  D(29,30,31,58)         68.3256         estimate D2E/DX2                !
 ! D142  D(55,30,31,32)       -178.9149         estimate D2E/DX2                !
 ! D143  D(55,30,31,57)         58.0368         estimate D2E/DX2                !
 ! D144  D(55,30,31,58)        -59.4659         estimate D2E/DX2                !
 ! D145  D(56,30,31,32)         65.8852         estimate D2E/DX2                !
 ! D146  D(56,30,31,57)        -57.163          estimate D2E/DX2                !
 ! D147  D(56,30,31,58)       -174.6657         estimate D2E/DX2                !
 ! D148  D(30,31,32,33)        -79.9704         estimate D2E/DX2                !
 ! D149  D(30,31,32,34)         52.913          estimate D2E/DX2                !
 ! D150  D(57,31,32,33)         43.1558         estimate D2E/DX2                !
 ! D151  D(57,31,32,34)        176.0392         estimate D2E/DX2                !
 ! D152  D(58,31,32,33)        160.0435         estimate D2E/DX2                !
 ! D153  D(58,31,32,34)        -67.0731         estimate D2E/DX2                !
 ! D154  D(31,32,33,59)         63.6672         estimate D2E/DX2                !
 ! D155  D(31,32,33,60)        -57.096          estimate D2E/DX2                !
 ! D156  D(31,32,33,61)       -175.8966         estimate D2E/DX2                !
 ! D157  D(34,32,33,59)        -64.9321         estimate D2E/DX2                !
 ! D158  D(34,32,33,60)        174.3047         estimate D2E/DX2                !
 ! D159  D(34,32,33,61)         55.5041         estimate D2E/DX2                !
 ! D160  D(31,32,34,35)        -52.2566         estimate D2E/DX2                !
 ! D161  D(31,32,34,62)       -178.356          estimate D2E/DX2                !
 ! D162  D(31,32,34,63)         65.3476         estimate D2E/DX2                !
 ! D163  D(33,32,34,35)         79.9461         estimate D2E/DX2                !
 ! D164  D(33,32,34,62)        -46.1532         estimate D2E/DX2                !
 ! D165  D(33,32,34,63)       -162.4496         estimate D2E/DX2                !
 ! D166  D(32,34,35,29)         50.6782         estimate D2E/DX2                !
 ! D167  D(32,34,35,64)        -67.5152         estimate D2E/DX2                !
 ! D168  D(32,34,35,65)        177.3127         estimate D2E/DX2                !
 ! D169  D(62,34,35,29)        175.8038         estimate D2E/DX2                !
 ! D170  D(62,34,35,64)         57.6105         estimate D2E/DX2                !
 ! D171  D(62,34,35,65)        -57.5616         estimate D2E/DX2                !
 ! D172  D(63,34,35,29)        -66.9393         estimate D2E/DX2                !
 ! D173  D(63,34,35,64)        174.8674         estimate D2E/DX2                !
 ! D174  D(63,34,35,65)         59.6952         estimate D2E/DX2                !
 --------------------------------------------------------------------------------
 Trust Radius=3.00D-01 FncErr=1.00D-07 GrdErr=1.00D-06
 Number of steps in this run= 400 maximum allowed number of steps= 408.
 GradGradGradGradGradGradGradGradGradGradGradGradGradGradGradGradGradGrad

 Leave Link  103 at Tue Mar 10 11:26:12 2020, MaxMem= 2684354560 cpu:       0.1
 (Enter /opt/g09gh/gaussian/g09/l202.exe)
 Stoichiometry    C29H31N7O
 Framework group  C1[X(C29H31N7O)]
 Deg. of freedom   198
 Full point group                 C1      NOp   1
 Largest Abelian subgroup         C1      NOp   1
 Largest concise Abelian subgroup C1      NOp   1
                         Standard orientation:                         
 ---------------------------------------------------------------------
 Center     Atomic      Atomic             Coordinates (Angstroms)
 Number     Number       Type             X           Y           Z
 ---------------------------------------------------------------------
      1          6           0       -0.636925    4.339533   -0.210217
      2          6           0        0.735198    4.316051    0.077136
      3          6           0        1.433850    3.092525    0.074137
      4          6           0        0.657581    1.946345   -0.229003
      5          7           0       -0.649760    1.948306   -0.510353
      6          6           0       -1.281852    3.131973   -0.503032
      7          6           0        2.923664    2.976177    0.287383
      8          6           0        3.816981    4.047908    0.444737
      9          6           0        5.173210    3.703821    0.495763
     10          7           0        5.640940    2.461058    0.407596
     11          6           0        4.708777    1.492513    0.289539
     12          7           0        3.393232    1.714373    0.250729
     13          7           0        5.190082    0.194341    0.197204
     14          6           0        4.541556   -1.079100   -0.007685
     15          6           0        5.314691   -2.201329   -0.432855
     16          6           0        4.619503   -3.395705   -0.690066
     17          6           0        3.238653   -3.551087   -0.516592
     18          6           0        2.509624   -2.467086   -0.016574
     19          6           0        3.167842   -1.247981    0.208216
     20          7           0        1.107288   -2.462249    0.278506
     21          6           0        0.126928   -3.389851    0.019102
     22          6           0       -1.301472   -2.938986    0.242175
     23          6           0       -2.244512   -3.063867   -0.788274
     24          6           0       -3.562632   -2.645032   -0.587710
     25          6           0       -4.006263   -2.187227    0.669062
     26          6           0       -3.046849   -2.066152    1.691978
     27          6           0       -1.711065   -2.414396    1.479170
     28          6           0       -5.466518   -1.788611    0.890351
     29          7           0       -5.947388   -0.444691    0.528645
     30          6           0       -6.158384   -0.104720   -0.897593
     31          6           0       -5.008731    0.698726   -1.563951
     32          7           0       -4.579937    1.910254   -0.823368
     33          6           0       -5.430143    3.094572   -0.998932
     34          6           0       -4.273225    1.508163    0.567146
     35          6           0       -5.401466    0.715618    1.268036
     36          8           0        0.366455   -4.525606   -0.355048
     37          6           0        6.811650   -2.138751   -0.683573
     38          1           0       -1.192604    5.272362   -0.226223
     39          1           0        1.234197    5.259458    0.284347
     40          1           0        1.127984    0.971851   -0.294738
     41          1           0       -2.339407    3.106740   -0.758287
     42          1           0        3.516768    5.088303    0.469151
     43          1           0        5.932090    4.480360    0.590049
     44          1           0        6.198999    0.207461    0.193020
     45          1           0        5.170584   -4.263385   -1.051000
     46          1           0        2.744466   -4.494918   -0.713950
     47          1           0        2.607422   -0.401798    0.572032
     48          1           0        0.768621   -1.601515    0.686130
     49          1           0       -1.923696   -3.472707   -1.742754
     50          1           0       -4.271365   -2.747827   -1.409511
     51          1           0       -3.340449   -1.691246    2.672329
     52          1           0       -0.987648   -2.334869    2.287234
     53          1           0       -6.090343   -2.513836    0.347291
     54          1           0       -5.698856   -1.912263    1.958512
     55          1           0       -6.416911   -0.973063   -1.456488
     56          1           0       -7.411628    0.848881   -0.951653
     57          1           0       -5.380733    1.054287   -2.820555
     58          1           0       -3.834622   -0.184119   -1.663990
     59          1           0       -6.438024    2.920158   -0.606371
     60          1           0       -5.503706    3.352610   -2.061615
     61          1           0       -4.993979    3.952805   -0.474583
     62          1           0       -3.972474    2.414122    1.165322
     63          1           0       -3.033240    0.552600    0.494462
     64          1           0       -6.581616    1.737371    1.447038
     65          1           0       -5.050005    0.378812    2.383979
     66          1           0        7.361515   -1.895029    0.236358
     67          1           0        7.063338   -1.373364   -1.431362
     68          1           0        7.224461   -3.087406   -1.053731
 ---------------------------------------------------------------------
 Rotational constants (GHZ):      0.1361739      0.0627087      0.0450136
 Leave Link  202 at Tue Mar 10 11:26:12 2020, MaxMem= 2684354560 cpu:       0.0
 (Enter /opt/g09gh/gaussian/g09/l301.exe)
 Standard basis: 6-31G(d) (6D, 7F)
 Ernie: Thresh=  0.10000D-02 Tol=  0.10000D-05 Strict=F.
 There are   617 symmetry adapted basis functions of A   symmetry.
 Integral buffers will be    131072 words long.
 Raffenetti 2 integral format.
 Two-electron integral symmetry is turned on.
   617 basis functions,  1160 primitive gaussians,   617 cartesian basis functions
   131 alpha electrons      131 beta electrons
       nuclear repulsion energy      3797.2803734633 Hartrees.
 IExCor= 4639 DFT=T Ex+Corr=wB97XD ExCW=0 ScaHFX=  1.000000
 ScaDFX=  1.000000  1.000000  1.000000  1.000000 ScalE2=  1.000000  1.000000
 IRadAn=      0 IRanWt=     -1 IRanGd=            0 ICorTp=0
  HFx wShort=  0.000000 wLong=  0.200000 cFull=  0.222036 cShort=  0.000000 cLong=  0.777964
  DFx wShort=  0.000000 wLong=  0.200000 cFull=  0.000000 cShort=  0.000000 cLong=  1.000000
 NAtoms=   68 NActive=   68 NUniq=   68 SFac= 7.50D-01 NAtFMM=   80 NAOKFM=F Big=T
 R6Disp: Dispersion energy =        -0.0595252984 Hartrees.
 Nuclear repulsion after empirical dispersion term =     3797.2208481649 Hartrees.
 Leave Link  301 at Tue Mar 10 11:26:12 2020, MaxMem= 2684354560 cpu:       0.5
 (Enter /opt/g09gh/gaussian/g09/l302.exe)
 NPDir=0 NMtPBC=     1 NCelOv=     1 NCel=       1 NClECP=     1 NCelD=      1
         NCelK=      1 NCelE2=     1 NClLst=     1 CellRange=     0.0.
 One-electron integrals computed using PRISM.
 NBasis=   617 RedAO= T  NBF=   617
 NBsUse=   617 1.00D-06 NBFU=   617
 Precomputing XC quadrature grid using
 IXCGrd= 2 IRadAn=           0 IRanWt=          -1 IRanGd=           0 AccXCQ= 1.00D-10.
 NRdTot=    4374 NPtTot=      559086 NUsed=      590601 NTot=      590633
 NSgBfM=   606   606   606   606   606 NAtAll=    68    68.
 Leave Link  302 at Tue Mar 10 11:26:15 2020, MaxMem= 2684354560 cpu:      14.4
 (Enter /opt/g09gh/gaussian/g09/l303.exe)
 DipDrv:  MaxL=1.
 Leave Link  303 at Tue Mar 10 11:26:15 2020, MaxMem= 2684354560 cpu:       0.9
 (Enter /opt/g09gh/gaussian/g09/l401.exe)
 Harris functional with IExCor= 4639 diagonalized for initial guess.
 ExpMin= 1.61D-01 ExpMax= 5.48D+03 ExpMxC= 8.25D+02 IAcc=1 IRadAn=         1 AccDes= 0.00D+00
 HarFok:  IExCor= 4639 AccDes= 0.00D+00 IRadAn=         1 IDoV= 1
 ScaDFX=  1.000000  1.000000  1.000000  1.000000
 FoFCou: FMM=F IPFlag=           0 FMFlag=      100000 FMFlg1=           1
         NFxFlg=           0 DoJE=T BraDBF=F KetDBF=T FulRan=T
         Omega=  0.000000  0.000000  1.000000  0.000000  0.000000 ICntrl=     500 IOpCl=  0
         NMat0=    1 NMatS0=    1 NMatT0=    0 NMatD0=    1 NMtDS0=    0 NMtDT0=    0
         I1Cent=           4 NGrid=           0.
 Petite list used in FoFCou.
 Harris En= -1512.38470450152    
 Initial guess orbital symmetries:
       Occupied  (A) (A) (A) (A) (A) (A) (A) (A) (A) (A) (A) (A)
                 (A) (A) (A) (A) (A) (A) (A) (A) (A) (A) (A) (A)
                 (A) (A) (A) (A) (A) (A) (A) (A) (A) (A) (A) (A)
                 (A) (A) (A) (A) (A) (A) (A) (A) (A) (A) (A) (A)
                 (A) (A) (A) (A) (A) (A) (A) (A) (A) (A) (A) (A)
                 (A) (A) (A) (A) (A) (A) (A) (A) (A) (A) (A) (A)
                 (A) (A) (A) (A) (A) (A) (A) (A) (A) (A) (A) (A)
                 (A) (A) (A) (A) (A) (A) (A) (A) (A) (A) (A) (A)
                 (A) (A) (A) (A) (A) (A) (A) (A) (A) (A) (A) (A)
                 (A) (A) (A) (A) (A) (A) (A) (A) (A) (A) (A) (A)
                 (A) (A) (A) (A) (A) (A) (A) (A) (A) (A) (A)
       Virtual   (A) (A) (A) (A) (A) (A) (A) (A) (A) (A) (A) (A)
                 (A) (A) (A) (A) (A) (A) (A) (A) (A) (A) (A) (A)
                 (A) (A) (A) (A) (A) (A) (A) (A) (A) (A) (A) (A)
                 (A) (A) (A) (A) (A) (A) (A) (A) (A) (A) (A) (A)
                 (A) (A) (A) (A) (A) (A) (A) (A) (A) (A) (A) (A)
                 (A) (A) (A) (A) (A) (A) (A) (A) (A) (A) (A) (A)
                 (A) (A) (A) (A) (A) (A) (A) (A) (A) (A) (A) (A)
                 (A) (A) (A) (A) (A) (A) (A) (A) (A) (A) (A) (A)
                 (A) (A) (A) (A) (A) (A) (A) (A) (A) (A) (A) (A)
                 (A) (A) (A) (A) (A) (A) (A) (A) (A) (A) (A) (A)
                 (A) (A) (A) (A) (A) (A) (A) (A) (A) (A) (A) (A)
                 (A) (A) (A) (A) (A) (A) (A) (A) (A) (A) (A) (A)
                 (A) (A) (A) (A) (A) (A) (A) (A) (A) (A) (A) (A)
                 (A) (A) (A) (A) (A) (A) (A) (A) (A) (A) (A) (A)
                 (A) (A) (A) (A) (A) (A) (A) (A) (A) (A) (A) (A)
                 (A) (A) (A) (A) (A) (A) (A) (A) (A) (A) (A) (A)
                 (A) (A) (A) (A) (A) (A) (A) (A) (A) (A) (A) (A)
                 (A) (A) (A) (A) (A) (A) (A) (A) (A) (A) (A) (A)
                 (A) (A) (A) (A) (A) (A) (A) (A) (A) (A) (A) (A)
                 (A) (A) (A) (A) (A) (A) (A) (A) (A) (A) (A) (A)
                 (A) (A) (A) (A) (A) (A) (A) (A) (A) (A) (A) (A)
                 (A) (A) (A) (A) (A) (A) (A) (A) (A) (A) (A) (A)
                 (A) (A) (A) (A) (A) (A) (A) (A) (A) (A) (A) (A)
                 (A) (A) (A) (A) (A) (A) (A) (A) (A) (A) (A) (A)
                 (A) (A) (A) (A) (A) (A) (A) (A) (A) (A) (A) (A)
                 (A) (A) (A) (A) (A) (A) (A) (A) (A) (A) (A) (A)
                 (A) (A) (A) (A) (A) (A) (A) (A) (A) (A) (A) (A)
                 (A) (A) (A) (A) (A) (A) (A) (A) (A) (A) (A) (A)
                 (A) (A) (A) (A) (A) (A) (A) (A) (A) (A) (A) (A)
                 (A) (A) (A) (A) (A) (A) (A) (A) (A) (A) (A) (A)
                 (A) (A) (A) (A) (A) (A) (A) (A) (A) (A) (A) (A)
                 (A) (A) (A) (A) (A) (A) (A) (A) (A) (A) (A) (A)
                 (A) (A) (A) (A) (A) (A) (A) (A) (A) (A) (A) (A)
                 (A) (A) (A) (A) (A) (A) (A) (A) (A) (A) (A) (A)
                 (A) (A) (A) (A) (A) (A) (A) (A) (A) (A) (A) (A)
                 (A) (A) (A) (A) (A) (A) (A) (A) (A) (A) (A) (A)
                 (A) (A) (A) (A) (A) (A) (A) (A) (A) (A) (A) (A)
                 (A) (A) (A) (A) (A) (A) (A) (A) (A) (A) (A) (A)
                 (A) (A) (A) (A) (A) (A) (A) (A) (A) (A) (A) (A)
                 (A) (A) (A) (A) (A) (A) (A) (A) (A) (A) (A) (A)
                 (A) (A) (A) (A) (A) (A)
 The electronic state of the initial guess is 1-A.
 Leave Link  401 at Tue Mar 10 11:26:20 2020, MaxMem= 2684354560 cpu:      28.8
 (Enter /opt/g09gh/gaussian/g09/l502.exe)
 Closed shell SCF:
 Requested convergence on RMS density matrix=1.00D-08 within 128 cycles.
 Requested convergence on MAX density matrix=1.00D-06.
 Requested convergence on             energy=1.00D-06.
 No special actions if energy rises.
 Using DIIS extrapolation, IDIIS=  1040.
 Integral symmetry usage will be decided dynamically.
       589976 words used for storage of precomputed grid.
 IEnd=     1758556 IEndB=     1758556 NGot=  2684354560 MDV=  2682993951
 LenX=  2682993951 LenY=  2682612645
 Fock matrices will be formed incrementally for  20 cycles.
 Integral accuracy reduced to 1.0D-05 until final iterations.

 Cycle   1  Pass 0  IDiag  1:
 FoFJK:  IHMeth= 1 ICntrl=     0 DoSepK=T KAlg= 1 I1Cent= 0 FoldK=F
 FoFCou: FMM=T IPFlag=           0 FMFlag=      100000 FMFlg1=           1
         NFxFlg=           0 DoJE=T BraDBF=F KetDBF=F FulRan=T
         Omega=  0.000000  0.000000  1.000000  0.000000  0.000000 ICntrl=     500 IOpCl=  0
         NMat0=    1 NMatS0=    1 NMatT0=    0 NMatD0=    1 NMtDS0=    0 NMtDT0=    0
         I1Cent=           0 NGrid=           0.
 Symmetry not used in FoFCou.
 FMM levels:  10  Number of levels for PrismC:   9
 E= -1581.11869932450    
 DIIS: error= 5.02D-02 at cycle   1 NSaved=   1.
 NSaved= 1 IEnMin= 1 EnMin= -1581.11869932450     IErMin= 1 ErrMin= 5.02D-02
 ErrMax= 5.02D-02 EMaxC= 1.00D-01 BMatC= 1.46D+00 BMatP= 1.46D+00
 IDIUse=3 WtCom= 4.98D-01 WtEn= 5.02D-01
 Coeff-Com:  0.100D+01
 Coeff-En:   0.100D+01
 Coeff:      0.100D+01
 Gap=     0.289 Goal=   None    Shift=    0.000
 GapD=    0.289 DampG=1.000 DampE=0.500 DampFc=0.5000 IDamp=-1.
 Damping current iteration by 5.00D-01
 RMSDP=1.90D-03 MaxDP=8.83D-02              OVMax= 1.69D-01

 Cycle   2  Pass 0  IDiag  1:
 RMSU=  6.71D-04    CP:  1.00D+00
 FoFJK:  IHMeth= 1 ICntrl=     0 DoSepK=T KAlg= 1 I1Cent= 0 FoldK=F
 E= -1581.29697537121     Delta-E=       -0.178276046702 Rises=F Damp=T
 DIIS: error= 2.59D-02 at cycle   2 NSaved=   2.
 NSaved= 2 IEnMin= 2 EnMin= -1581.29697537121     IErMin= 2 ErrMin= 2.59D-02
 ErrMax= 2.59D-02 EMaxC= 1.00D-01 BMatC= 3.22D-01 BMatP= 1.46D+00
 IDIUse=3 WtCom= 7.41D-01 WtEn= 2.59D-01
 Coeff-Com: -0.646D+00 0.165D+01
 Coeff-En:   0.000D+00 0.100D+01
 Coeff:     -0.478D+00 0.148D+01
 Gap=     0.290 Goal=   None    Shift=    0.000
 RMSDP=8.85D-04 MaxDP=3.83D-02 DE=-1.78D-01 OVMax= 1.22D-01

 Cycle   3  Pass 0  IDiag  1:
 RMSU=  5.78D-04    CP:  1.00D+00  1.35D+00
 FoFJK:  IHMeth= 1 ICntrl=     0 DoSepK=T KAlg= 1 I1Cent= 0 FoldK=F
 E= -1581.42446590407     Delta-E=       -0.127490532868 Rises=F Damp=F
 DIIS: error= 6.96D-03 at cycle   3 NSaved=   3.
 NSaved= 3 IEnMin= 3 EnMin= -1581.42446590407     IErMin= 3 ErrMin= 6.96D-03
 ErrMax= 6.96D-03 EMaxC= 1.00D-01 BMatC= 6.75D-02 BMatP= 3.22D-01
 IDIUse=3 WtCom= 9.30D-01 WtEn= 6.96D-02
 Coeff-Com: -0.369D+00 0.763D+00 0.606D+00
 Coeff-En:   0.000D+00 0.000D+00 0.100D+01
 Coeff:     -0.343D+00 0.710D+00 0.634D+00
 Gap=     0.274 Goal=   None    Shift=    0.000
 RMSDP=4.86D-04 MaxDP=3.27D-02 DE=-1.27D-01 OVMax= 6.27D-02

 Cycle   4  Pass 0  IDiag  1:
 RMSU=  1.45D-04    CP:  1.00D+00  1.66D+00  5.92D-01
 FoFJK:  IHMeth= 1 ICntrl=     0 DoSepK=T KAlg= 1 I1Cent= 0 FoldK=F
 E= -1581.48458819260     Delta-E=       -0.060122288529 Rises=F Damp=F
 DIIS: error= 2.07D-03 at cycle   4 NSaved=   4.
 NSaved= 4 IEnMin= 4 EnMin= -1581.48458819260     IErMin= 4 ErrMin= 2.07D-03
 ErrMax= 2.07D-03 EMaxC= 1.00D-01 BMatC= 3.60D-03 BMatP= 6.75D-02
 IDIUse=3 WtCom= 9.79D-01 WtEn= 2.07D-02
 Coeff-Com: -0.167D+00 0.340D+00 0.340D+00 0.487D+00
 Coeff-En:   0.000D+00 0.000D+00 0.000D+00 0.100D+01
 Coeff:     -0.163D+00 0.333D+00 0.333D+00 0.498D+00
 Gap=     0.268 Goal=   None    Shift=    0.000
 RMSDP=1.00D-04 MaxDP=9.09D-03 DE=-6.01D-02 OVMax= 1.03D-02

 Cycle   5  Pass 0  IDiag  1:
 RMSU=  4.55D-05    CP:  1.00D+00  1.64D+00  6.54D-01  7.26D-01
 FoFJK:  IHMeth= 1 ICntrl=     0 DoSepK=T KAlg= 1 I1Cent= 0 FoldK=F
 E= -1581.48769111250     Delta-E=       -0.003102919894 Rises=F Damp=F
 DIIS: error= 3.95D-04 at cycle   5 NSaved=   5.
 NSaved= 5 IEnMin= 5 EnMin= -1581.48769111250     IErMin= 5 ErrMin= 3.95D-04
 ErrMax= 3.95D-04 EMaxC= 1.00D-01 BMatC= 9.27D-05 BMatP= 3.60D-03
 IDIUse=3 WtCom= 9.96D-01 WtEn= 3.95D-03
 Coeff-Com: -0.165D-01 0.326D-01 0.533D-01 0.160D+00 0.770D+00
 Coeff-En:   0.000D+00 0.000D+00 0.000D+00 0.000D+00 0.100D+01
 Coeff:     -0.164D-01 0.325D-01 0.531D-01 0.160D+00 0.771D+00
 Gap=     0.266 Goal=   None    Shift=    0.000
 RMSDP=2.41D-05 MaxDP=2.53D-03 DE=-3.10D-03 OVMax= 2.79D-03

 Cycle   6  Pass 0  IDiag  1:
 RMSU=  1.32D-05    CP:  1.00D+00  1.65D+00  6.61D-01  7.89D-01  9.89D-01
 FoFJK:  IHMeth= 1 ICntrl=     0 DoSepK=T KAlg= 1 I1Cent= 0 FoldK=F
 E= -1581.48778166111     Delta-E=       -0.000090548609 Rises=F Damp=F
 DIIS: error= 2.69D-04 at cycle   6 NSaved=   6.
 NSaved= 6 IEnMin= 6 EnMin= -1581.48778166111     IErMin= 6 ErrMin= 2.69D-04
 ErrMax= 2.69D-04 EMaxC= 1.00D-01 BMatC= 2.71D-05 BMatP= 9.27D-05
 IDIUse=3 WtCom= 9.97D-01 WtEn= 2.69D-03
 Coeff-Com:  0.237D-01-0.490D-01-0.362D-01-0.157D-01 0.390D+00 0.687D+00
 Coeff-En:   0.000D+00 0.000D+00 0.000D+00 0.000D+00 0.000D+00 0.100D+01
 Coeff:      0.237D-01-0.489D-01-0.361D-01-0.157D-01 0.389D+00 0.688D+00
 Gap=     0.267 Goal=   None    Shift=    0.000
 RMSDP=1.33D-05 MaxDP=8.81D-04 DE=-9.05D-05 OVMax= 1.65D-03

 Cycle   7  Pass 0  IDiag  1:
 RMSU=  5.69D-06    CP:  1.00D+00  1.65D+00  6.65D-01  8.18D-01  1.11D+00
                    CP:  8.86D-01
 FoFJK:  IHMeth= 1 ICntrl=     0 DoSepK=T KAlg= 1 I1Cent= 0 FoldK=F
 E= -1581.48781218404     Delta-E=       -0.000030522931 Rises=F Damp=F
 DIIS: error= 3.99D-05 at cycle   7 NSaved=   7.
 NSaved= 7 IEnMin= 7 EnMin= -1581.48781218404     IErMin= 7 ErrMin= 3.99D-05
 ErrMax= 3.99D-05 EMaxC= 1.00D-01 BMatC= 1.67D-06 BMatP= 2.71D-05
 IDIUse=1 WtCom= 1.00D+00 WtEn= 0.00D+00
 Coeff-Com:  0.977D-02-0.200D-01-0.167D-01-0.203D-01 0.633D-01 0.236D+00
 Coeff-Com:  0.748D+00
 Coeff:      0.977D-02-0.200D-01-0.167D-01-0.203D-01 0.633D-01 0.236D+00
 Coeff:      0.748D+00
 Gap=     0.267 Goal=   None    Shift=    0.000
 RMSDP=3.98D-06 MaxDP=2.42D-04 DE=-3.05D-05 OVMax= 6.51D-04

 Initial convergence to 1.0D-05 achieved.  Increase integral accuracy.
 Cycle   8  Pass 1  IDiag  1:
 FoFJK:  IHMeth= 1 ICntrl=     0 DoSepK=T KAlg= 1 I1Cent= 0 FoldK=F
 E= -1581.48643280548     Delta-E=        0.001379378556 Rises=F Damp=F
 DIIS: error= 7.82D-05 at cycle   1 NSaved=   1.
 NSaved= 1 IEnMin= 1 EnMin= -1581.48643280548     IErMin= 1 ErrMin= 7.82D-05
 ErrMax= 7.82D-05 EMaxC= 1.00D-01 BMatC= 1.31D-05 BMatP= 1.31D-05
 IDIUse=1 WtCom= 1.00D+00 WtEn= 0.00D+00
 Coeff-Com:  0.100D+01
 Coeff:      0.100D+01
 Gap=     0.267 Goal=   None    Shift=    0.000
 RMSDP=3.98D-06 MaxDP=2.42D-04 DE= 1.38D-03 OVMax= 3.75D-04

 Cycle   9  Pass 1  IDiag  1:
 RMSU=  2.00D-05    CP:  1.00D+00
 FoFJK:  IHMeth= 1 ICntrl=     0 DoSepK=T KAlg= 1 I1Cent= 0 FoldK=F
 E= -1581.48644342689     Delta-E=       -0.000010621409 Rises=F Damp=F
 DIIS: error= 2.01D-05 at cycle   2 NSaved=   2.
 NSaved= 2 IEnMin= 2 EnMin= -1581.48644342689     IErMin= 2 ErrMin= 2.01D-05
 ErrMax= 2.01D-05 EMaxC= 1.00D-01 BMatC= 8.02D-07 BMatP= 1.31D-05
 IDIUse=1 WtCom= 1.00D+00 WtEn= 0.00D+00
 Coeff-Com:  0.405D-01 0.960D+00
 Coeff:      0.405D-01 0.960D+00
 Gap=     0.267 Goal=   None    Shift=    0.000
 RMSDP=3.29D-06 MaxDP=2.24D-04 DE=-1.06D-05 OVMax= 3.35D-04

 Cycle  10  Pass 1  IDiag  1:
 RMSU=  2.13D-06    CP:  1.00D+00  1.05D+00
 FoFJK:  IHMeth= 1 ICntrl=     0 DoSepK=T KAlg= 1 I1Cent= 0 FoldK=F
 E= -1581.48644349269     Delta-E=       -0.000000065796 Rises=F Damp=F
 DIIS: error= 4.11D-05 at cycle   3 NSaved=   3.
 NSaved= 3 IEnMin= 3 EnMin= -1581.48644349269     IErMin= 2 ErrMin= 2.01D-05
 ErrMax= 4.11D-05 EMaxC= 1.00D-01 BMatC= 9.56D-07 BMatP= 8.02D-07
 IDIUse=1 WtCom= 1.00D+00 WtEn= 0.00D+00
 Coeff-Com: -0.388D-01 0.537D+00 0.502D+00
 Coeff:     -0.388D-01 0.537D+00 0.502D+00
 Gap=     0.267 Goal=   None    Shift=    0.000
 RMSDP=1.61D-06 MaxDP=1.33D-04 DE=-6.58D-08 OVMax= 1.62D-04

 Cycle  11  Pass 1  IDiag  1:
 RMSU=  6.47D-07    CP:  1.00D+00  1.06D+00  5.73D-01
 FoFJK:  IHMeth= 1 ICntrl=     0 DoSepK=T KAlg= 1 I1Cent= 0 FoldK=F
 E= -1581.48644433399     Delta-E=       -0.000000841304 Rises=F Damp=F
 DIIS: error= 6.27D-06 at cycle   4 NSaved=   4.
 NSaved= 4 IEnMin= 4 EnMin= -1581.48644433399     IErMin= 4 ErrMin= 6.27D-06
 ErrMax= 6.27D-06 EMaxC= 1.00D-01 BMatC= 2.27D-08 BMatP= 8.02D-07
 IDIUse=1 WtCom= 1.00D+00 WtEn= 0.00D+00
 Coeff-Com: -0.169D-01 0.127D+00 0.173D+00 0.717D+00
 Coeff:     -0.169D-01 0.127D+00 0.173D+00 0.717D+00
 Gap=     0.267 Goal=   None    Shift=    0.000
 RMSDP=3.33D-07 MaxDP=3.65D-05 DE=-8.41D-07 OVMax= 3.56D-05

 Cycle  12  Pass 1  IDiag  1:
 RMSU=  2.12D-07    CP:  1.00D+00  1.06D+00  6.19D-01  1.03D+00
 FoFJK:  IHMeth= 1 ICntrl=     0 DoSepK=T KAlg= 1 I1Cent= 0 FoldK=F
 E= -1581.48644435555     Delta-E=       -0.000000021562 Rises=F Damp=F
 DIIS: error= 3.19D-06 at cycle   5 NSaved=   5.
 NSaved= 5 IEnMin= 5 EnMin= -1581.48644435555     IErMin= 5 ErrMin= 3.19D-06
 ErrMax= 3.19D-06 EMaxC= 1.00D-01 BMatC= 5.31D-09 BMatP= 2.27D-08
 IDIUse=1 WtCom= 1.00D+00 WtEn= 0.00D+00
 Coeff-Com: -0.447D-04-0.402D-01-0.152D-01 0.324D+00 0.732D+00
 Coeff:     -0.447D-04-0.402D-01-0.152D-01 0.324D+00 0.732D+00
 Gap=     0.267 Goal=   None    Shift=    0.000
 RMSDP=1.85D-07 MaxDP=1.24D-05 DE=-2.16D-08 OVMax= 2.18D-05

 Cycle  13  Pass 1  IDiag  1:
 RMSU=  8.57D-08    CP:  1.00D+00  1.06D+00  6.35D-01  1.17D+00  9.07D-01
 FoFJK:  IHMeth= 1 ICntrl=     0 DoSepK=T KAlg= 1 I1Cent= 0 FoldK=F
 E= -1581.48644436212     Delta-E=       -0.000000006563 Rises=F Damp=F
 DIIS: error= 7.61D-07 at cycle   6 NSaved=   6.
 NSaved= 6 IEnMin= 6 EnMin= -1581.48644436212     IErMin= 6 ErrMin= 7.61D-07
 ErrMax= 7.61D-07 EMaxC= 1.00D-01 BMatC= 5.58D-10 BMatP= 5.31D-09
 IDIUse=1 WtCom= 1.00D+00 WtEn= 0.00D+00
 Coeff-Com:  0.177D-02-0.290D-01-0.256D-01 0.471D-01 0.285D+00 0.721D+00
 Coeff:      0.177D-02-0.290D-01-0.256D-01 0.471D-01 0.285D+00 0.721D+00
 Gap=     0.267 Goal=   None    Shift=    0.000
 RMSDP=7.10D-08 MaxDP=3.81D-06 DE=-6.56D-09 OVMax= 1.30D-05

 Cycle  14  Pass 1  IDiag  1:
 RMSU=  3.39D-08    CP:  1.00D+00  1.06D+00  6.37D-01  1.21D+00  1.02D+00
                    CP:  1.02D+00
 FoFJK:  IHMeth= 1 ICntrl=     0 DoSepK=T KAlg= 1 I1Cent= 0 FoldK=F
 E= -1581.48644436298     Delta-E=       -0.000000000868 Rises=F Damp=F
 DIIS: error= 3.42D-07 at cycle   7 NSaved=   7.
 NSaved= 7 IEnMin= 7 EnMin= -1581.48644436298     IErMin= 7 ErrMin= 3.42D-07
 ErrMax= 3.42D-07 EMaxC= 1.00D-01 BMatC= 1.03D-10 BMatP= 5.58D-10
 IDIUse=1 WtCom= 1.00D+00 WtEn= 0.00D+00
 Coeff-Com:  0.690D-03-0.327D-02-0.777D-02-0.510D-01-0.345D-01 0.281D+00
 Coeff-Com:  0.815D+00
 Coeff:      0.690D-03-0.327D-02-0.777D-02-0.510D-01-0.345D-01 0.281D+00
 Coeff:      0.815D+00
 Gap=     0.267 Goal=   None    Shift=    0.000
 RMSDP=3.87D-08 MaxDP=1.50D-06 DE=-8.68D-10 OVMax= 6.54D-06

 Cycle  15  Pass 1  IDiag  1:
 RMSU=  1.35D-08    CP:  1.00D+00  1.06D+00  6.40D-01  1.23D+00  1.07D+00
                    CP:  1.21D+00  1.05D+00
 FoFJK:  IHMeth= 1 ICntrl=     0 DoSepK=T KAlg= 1 I1Cent= 0 FoldK=F
 E= -1581.48644436326     Delta-E=       -0.000000000277 Rises=F Damp=F
 DIIS: error= 1.02D-07 at cycle   8 NSaved=   8.
 NSaved= 8 IEnMin= 8 EnMin= -1581.48644436326     IErMin= 8 ErrMin= 1.02D-07
 ErrMax= 1.02D-07 EMaxC= 1.00D-01 BMatC= 1.37D-11 BMatP= 1.03D-10
 IDIUse=1 WtCom= 1.00D+00 WtEn= 0.00D+00
 Coeff-Com: -0.158D-04 0.316D-02 0.106D-02-0.240D-01-0.496D-01-0.100D-01
 Coeff-Com:  0.277D+00 0.802D+00
 Coeff:     -0.158D-04 0.316D-02 0.106D-02-0.240D-01-0.496D-01-0.100D-01
 Coeff:      0.277D+00 0.802D+00
 Gap=     0.267 Goal=   None    Shift=    0.000
 RMSDP=1.45D-08 MaxDP=6.27D-07 DE=-2.77D-10 OVMax= 3.42D-06

 Cycle  16  Pass 1  IDiag  1:
 RMSU=  5.83D-09    CP:  1.00D+00  1.06D+00  6.40D-01  1.24D+00  1.08D+00
                    CP:  1.26D+00  1.22D+00  1.09D+00
 FoFJK:  IHMeth= 1 ICntrl=     0 DoSepK=T KAlg= 1 I1Cent= 0 FoldK=F
 E= -1581.48644436334     Delta-E=       -0.000000000083 Rises=F Damp=F
 DIIS: error= 6.04D-08 at cycle   9 NSaved=   9.
 NSaved= 9 IEnMin= 9 EnMin= -1581.48644436334     IErMin= 9 ErrMin= 6.04D-08
 ErrMax= 6.04D-08 EMaxC= 1.00D-01 BMatC= 2.75D-12 BMatP= 1.37D-11
 IDIUse=1 WtCom= 1.00D+00 WtEn= 0.00D+00
 Coeff-Com: -0.140D-03 0.178D-02 0.189D-02 0.968D-03-0.118D-01-0.622D-01
 Coeff-Com: -0.631D-01 0.289D+00 0.843D+00
 Coeff:     -0.140D-03 0.178D-02 0.189D-02 0.968D-03-0.118D-01-0.622D-01
 Coeff:     -0.631D-01 0.289D+00 0.843D+00
 Gap=     0.267 Goal=   None    Shift=    0.000
 RMSDP=7.10D-09 MaxDP=3.29D-07 DE=-8.28D-11 OVMax= 1.62D-06

 SCF Done:  E(RwB97XD) =  -1581.48644436     A.U. after   16 cycles
             Convg  =    0.7096D-08             -V/T =  2.0111
 KE= 1.564092111208D+03 PE=-1.126287629615D+04 EE= 4.320076892411D+03
 Leave Link  502 at Tue Mar 10 11:32:14 2020, MaxMem= 2684354560 cpu:    2111.7
 (Enter /opt/g09gh/gaussian/g09/l601.exe)
 Copying SCF densities to generalized density rwf, IOpCl= 0 IROHF=0.

 **********************************************************************

            Population analysis using the SCF density.

 **********************************************************************

 Orbital symmetries:
       Occupied  (A) (A) (A) (A) (A) (A) (A) (A) (A) (A) (A) (A)
                 (A) (A) (A) (A) (A) (A) (A) (A) (A) (A) (A) (A)
                 (A) (A) (A) (A) (A) (A) (A) (A) (A) (A) (A) (A)
                 (A) (A) (A) (A) (A) (A) (A) (A) (A) (A) (A) (A)
                 (A) (A) (A) (A) (A) (A) (A) (A) (A) (A) (A) (A)
                 (A) (A) (A) (A) (A) (A) (A) (A) (A) (A) (A) (A)
                 (A) (A) (A) (A) (A) (A) (A) (A) (A) (A) (A) (A)
                 (A) (A) (A) (A) (A) (A) (A) (A) (A) (A) (A) (A)
                 (A) (A) (A) (A) (A) (A) (A) (A) (A) (A) (A) (A)
                 (A) (A) (A) (A) (A) (A) (A) (A) (A) (A) (A) (A)
                 (A) (A) (A) (A) (A) (A) (A) (A) (A) (A) (A)
       Virtual   (A) (A) (A) (A) (A) (A) (A) (A) (A) (A) (A) (A)
                 (A) (A) (A) (A) (A) (A) (A) (A) (A) (A) (A) (A)
                 (A) (A) (A) (A) (A) (A) (A) (A) (A) (A) (A) (A)
                 (A) (A) (A) (A) (A) (A) (A) (A) (A) (A) (A) (A)
                 (A) (A) (A) (A) (A) (A) (A) (A) (A) (A) (A) (A)
                 (A) (A) (A) (A) (A) (A) (A) (A) (A) (A) (A) (A)
                 (A) (A) (A) (A) (A) (A) (A) (A) (A) (A) (A) (A)
                 (A) (A) (A) (A) (A) (A) (A) (A) (A) (A) (A) (A)
                 (A) (A) (A) (A) (A) (A) (A) (A) (A) (A) (A) (A)
                 (A) (A) (A) (A) (A) (A) (A) (A) (A) (A) (A) (A)
                 (A) (A) (A) (A) (A) (A) (A) (A) (A) (A) (A) (A)
                 (A) (A) (A) (A) (A) (A) (A) (A) (A) (A) (A) (A)
                 (A) (A) (A) (A) (A) (A) (A) (A) (A) (A) (A) (A)
                 (A) (A) (A) (A) (A) (A) (A) (A) (A) (A) (A) (A)
                 (A) (A) (A) (A) (A) (A) (A) (A) (A) (A) (A) (A)
                 (A) (A) (A) (A) (A) (A) (A) (A) (A) (A) (A) (A)
                 (A) (A) (A) (A) (A) (A) (A) (A) (A) (A) (A) (A)
                 (A) (A) (A) (A) (A) (A) (A) (A) (A) (A) (A) (A)
                 (A) (A) (A) (A) (A) (A) (A) (A) (A) (A) (A) (A)
                 (A) (A) (A) (A) (A) (A) (A) (A) (A) (A) (A) (A)
                 (A) (A) (A) (A) (A) (A) (A) (A) (A) (A) (A) (A)
                 (A) (A) (A) (A) (A) (A) (A) (A) (A) (A) (A) (A)
                 (A) (A) (A) (A) (A) (A) (A) (A) (A) (A) (A) (A)
                 (A) (A) (A) (A) (A) (A) (A) (A) (A) (A) (A) (A)
                 (A) (A) (A) (A) (A) (A) (A) (A) (A) (A) (A) (A)
                 (A) (A) (A) (A) (A) (A) (A) (A) (A) (A) (A) (A)
                 (A) (A) (A) (A) (A) (A) (A) (A) (A) (A) (A) (A)
                 (A) (A) (A) (A) (A) (A) (A) (A) (A) (A) (A) (A)
                 (A) (A) (A) (A) (A) (A) (A) (A) (A) (A) (A) (A)
                 (A) (A) (A) (A) (A) (A) (A) (A) (A) (A) (A) (A)
                 (A) (A) (A) (A) (A) (A) (A) (A) (A) (A) (A) (A)
                 (A) (A) (A) (A) (A) (A) (A) (A) (A) (A) (A) (A)
                 (A) (A) (A) (A) (A) (A) (A) (A) (A) (A) (A) (A)
                 (A) (A) (A) (A) (A) (A) (A) (A) (A) (A) (A) (A)
                 (A) (A) (A) (A) (A) (A) (A) (A) (A) (A) (A) (A)
                 (A) (A) (A) (A) (A) (A) (A) (A) (A) (A) (A) (A)
                 (A) (A) (A) (A) (A) (A) (A) (A) (A) (A) (A) (A)
                 (A) (A) (A) (A) (A) (A) (A) (A) (A) (A) (A) (A)
                 (A) (A) (A) (A) (A) (A) (A) (A) (A) (A) (A) (A)
                 (A) (A) (A) (A) (A) (A) (A) (A) (A) (A) (A) (A)
                 (A) (A) (A) (A) (A) (A)
 The electronic state is 1-A.
 Alpha  occ. eigenvalues --  -19.23752 -14.49288 -14.49095 -14.46941 -14.45938
 Alpha  occ. eigenvalues --  -14.45830 -14.45342 -14.45251 -10.41738 -10.40754
 Alpha  occ. eigenvalues --  -10.37788 -10.37740 -10.37650 -10.36556 -10.36234
 Alpha  occ. eigenvalues --  -10.36119 -10.35734 -10.35010 -10.34281 -10.34078
 Alpha  occ. eigenvalues --  -10.33764 -10.33478 -10.33308 -10.32099 -10.31986
 Alpha  occ. eigenvalues --  -10.31959 -10.31884 -10.31833 -10.31635 -10.31360
 Alpha  occ. eigenvalues --  -10.31334 -10.31307 -10.31217 -10.30301 -10.30169
 Alpha  occ. eigenvalues --  -10.29647 -10.29156  -1.13810  -1.11256  -1.04478
 Alpha  occ. eigenvalues --   -1.03867  -1.03630  -1.02963  -1.00251  -0.99734
 Alpha  occ. eigenvalues --   -0.96316  -0.94473  -0.91690  -0.88886  -0.88112
 Alpha  occ. eigenvalues --   -0.86522  -0.86235  -0.85169  -0.83714  -0.83655
 Alpha  occ. eigenvalues --   -0.82233  -0.79641  -0.78149  -0.77265  -0.75620
 Alpha  occ. eigenvalues --   -0.73061  -0.72631  -0.71896  -0.71740  -0.71084
 Alpha  occ. eigenvalues --   -0.70316  -0.69415  -0.68214  -0.66312  -0.64355
 Alpha  occ. eigenvalues --   -0.62947  -0.62322  -0.60972  -0.60258  -0.59625
 Alpha  occ. eigenvalues --   -0.58427  -0.58057  -0.56928  -0.56403  -0.55933
 Alpha  occ. eigenvalues --   -0.55703  -0.55265  -0.54677  -0.54320  -0.54111
 Alpha  occ. eigenvalues --   -0.53597  -0.53069  -0.52651  -0.52311  -0.51515
 Alpha  occ. eigenvalues --   -0.51247  -0.51157  -0.50849  -0.50793  -0.50245
 Alpha  occ. eigenvalues --   -0.49848  -0.49588  -0.49226  -0.48900  -0.48505
 Alpha  occ. eigenvalues --   -0.47397  -0.46916  -0.46223  -0.45745  -0.45391
 Alpha  occ. eigenvalues --   -0.45148  -0.44989  -0.44410  -0.43893  -0.43865
 Alpha  occ. eigenvalues --   -0.43391  -0.42885  -0.42311  -0.41385  -0.41047
 Alpha  occ. eigenvalues --   -0.39780  -0.38190  -0.37814  -0.36585  -0.35140
 Alpha  occ. eigenvalues --   -0.34799  -0.34458  -0.34115  -0.33103  -0.32915
 Alpha  occ. eigenvalues --   -0.32604  -0.32088  -0.31565  -0.29373  -0.27402
 Alpha  occ. eigenvalues --   -0.26747
 Alpha virt. eigenvalues --   -0.00021   0.03387   0.03823   0.05093   0.05524
 Alpha virt. eigenvalues --    0.07173   0.07316   0.07882   0.09929   0.10096
 Alpha virt. eigenvalues --    0.11929   0.13025   0.13959   0.14946   0.15324
 Alpha virt. eigenvalues --    0.15923   0.16335   0.17374   0.17967   0.18579
 Alpha virt. eigenvalues --    0.18957   0.19736   0.20129   0.20585   0.21357
 Alpha virt. eigenvalues --    0.22459   0.22602   0.22976   0.23164   0.23469
 Alpha virt. eigenvalues --    0.24093   0.24274   0.24535   0.24958   0.25604
 Alpha virt. eigenvalues --    0.25664   0.25799   0.26378   0.26612   0.27032
 Alpha virt. eigenvalues --    0.27246   0.27442   0.28312   0.28536   0.28848
 Alpha virt. eigenvalues --    0.29111   0.29347   0.29991   0.30571   0.31111
 Alpha virt. eigenvalues --    0.31555   0.31969   0.32483   0.32791   0.33574
 Alpha virt. eigenvalues --    0.34167   0.34609   0.35217   0.36540   0.37597
 Alpha virt. eigenvalues --    0.37766   0.38374   0.38893   0.39253   0.39612
 Alpha virt. eigenvalues --    0.40054   0.40675   0.41115   0.41502   0.42129
 Alpha virt. eigenvalues --    0.43475   0.44800   0.45298   0.46448   0.47448
 Alpha virt. eigenvalues --    0.48326   0.49812   0.51328   0.52882   0.54074
 Alpha virt. eigenvalues --    0.55460   0.55941   0.56120   0.57594   0.57907
 Alpha virt. eigenvalues --    0.58493   0.58792   0.59155   0.59465   0.60006
 Alpha virt. eigenvalues --    0.60196   0.60926   0.61084   0.61616   0.62135
 Alpha virt. eigenvalues --    0.62363   0.62464   0.62878   0.63713   0.63943
 Alpha virt. eigenvalues --    0.64165   0.64408   0.64917   0.65376   0.65473
 Alpha virt. eigenvalues --    0.65754   0.66064   0.66356   0.66436   0.66573
 Alpha virt. eigenvalues --    0.66910   0.67139   0.67544   0.67916   0.68060
 Alpha virt. eigenvalues --    0.68703   0.69261   0.69587   0.70131   0.70425
 Alpha virt. eigenvalues --    0.70797   0.70872   0.70997   0.71284   0.72381
 Alpha virt. eigenvalues --    0.72586   0.73005   0.73215   0.73542   0.74371
 Alpha virt. eigenvalues --    0.74797   0.75076   0.75429   0.76362   0.76755
 Alpha virt. eigenvalues --    0.77269   0.77734   0.78616   0.79673   0.80387
 Alpha virt. eigenvalues --    0.80493   0.81159   0.81960   0.82442   0.83132
 Alpha virt. eigenvalues --    0.83488   0.83926   0.84052   0.84346   0.85890
 Alpha virt. eigenvalues --    0.85985   0.86342   0.86917   0.87540   0.88402
 Alpha virt. eigenvalues --    0.88590   0.89298   0.89693   0.89825   0.90430
 Alpha virt. eigenvalues --    0.90903   0.91431   0.91895   0.92272   0.92797
 Alpha virt. eigenvalues --    0.93208   0.93400   0.93505   0.93649   0.94250
 Alpha virt. eigenvalues --    0.94585   0.94721   0.95197   0.95469   0.95861
 Alpha virt. eigenvalues --    0.96315   0.96750   0.97613   0.97789   0.98316
 Alpha virt. eigenvalues --    0.98643   0.98999   0.99325   1.00092   1.00290
 Alpha virt. eigenvalues --    1.00583   1.01292   1.01551   1.02757   1.03415
 Alpha virt. eigenvalues --    1.03709   1.04409   1.04985   1.05507   1.06344
 Alpha virt. eigenvalues --    1.06933   1.07522   1.07785   1.07969   1.08304
[...]
                 (A) (A) (A) (A) (A) (A) (A) (A) (A) (A) (A) (A)
                 (A) (A) (A) (A) (A) (A) (A) (A) (A) (A) (A) (A)
                 (A) (A) (A) (A) (A) (A) (A) (A) (A) (A) (A) (A)
                 (A) (A) (A) (A) (A) (A) (A) (A) (A) (A) (A) (A)
                 (A) (A) (A) (A) (A) (A) (A) (A) (A) (A) (A) (A)
                 (A) (A) (A) (A) (A) (A) (A) (A) (A) (A) (A) (A)
                 (A) (A) (A) (A) (A) (A) (A) (A) (A) (A) (A) (A)
                 (A) (A) (A) (A) (A) (A) (A) (A) (A) (A) (A) (A)
                 (A) (A) (A) (A) (A) (A) (A) (A) (A) (A) (A) (A)
                 (A) (A) (A) (A) (A) (A) (A) (A) (A) (A) (A) (A)
                 (A) (A) (A) (A) (A) (A) (A) (A) (A) (A) (A) (A)
                 (A) (A) (A) (A) (A) (A) (A) (A) (A) (A) (A) (A)
                 (A) (A) (A) (A) (A) (A) (A) (A) (A) (A) (A) (A)
                 (A) (A) (A) (A) (A) (A) (A) (A) (A) (A) (A) (A)
                 (A) (A) (A) (A) (A) (A) (A) (A) (A) (A) (A) (A)
                 (A) (A) (A) (A) (A) (A) (A) (A) (A) (A) (A) (A)
                 (A) (A) (A) (A) (A) (A) (A) (A) (A) (A) (A) (A)
                 (A) (A) (A) (A) (A) (A) (A) (A) (A) (A) (A) (A)
                 (A) (A) (A) (A) (A) (A) (A) (A) (A) (A) (A) (A)
                 (A) (A) (A) (A) (A) (A) (A) (A) (A) (A) (A) (A)
                 (A) (A) (A) (A) (A) (A) (A) (A) (A) (A) (A) (A)
                 (A) (A) (A) (A) (A) (A) (A) (A) (A) (A) (A) (A)
                 (A) (A) (A) (A) (A) (A) (A) (A) (A) (A) (A) (A)
                 (A) (A) (A) (A) (A) (A) (A) (A) (A) (A) (A) (A)
                 (A) (A) (A) (A) (A) (A) (A) (A) (A) (A) (A) (A)
                 (A) (A) (A) (A) (A) (A) (A) (A) (A) (A) (A) (A)
                 (A) (A) (A) (A) (A) (A) (A) (A) (A) (A) (A) (A)
                 (A) (A) (A) (A) (A) (A) (A) (A) (A) (A) (A) (A)
                 (A) (A) (A) (A) (A) (A) (A) (A) (A) (A) (A) (A)
                 (A) (A) (A) (A) (A) (A) (A) (A) (A) (A) (A) (A)
                 (A) (A) (A) (A) (A) (A) (A) (A) (A) (A) (A) (A)
                 (A) (A) (A) (A) (A) (A)
 The electronic state is 1-A.
 Alpha  occ. eigenvalues --  -19.23556 -14.48721 -14.48568 -14.45460 -14.44977
 Alpha  occ. eigenvalues --  -14.44765 -14.44137 -14.43887 -10.41116 -10.40305
 Alpha  occ. eigenvalues --  -10.36856 -10.35717 -10.34350 -10.33983 -10.33482
 Alpha  occ. eigenvalues --  -10.32915 -10.32837 -10.32721 -10.32242 -10.31836
 Alpha  occ. eigenvalues --  -10.31575 -10.31414 -10.31339 -10.31310 -10.31296
 Alpha  occ. eigenvalues --  -10.31273 -10.31168 -10.31105 -10.30972 -10.30726
 Alpha  occ. eigenvalues --  -10.30583 -10.30492 -10.30243 -10.29845 -10.29422
 Alpha  occ. eigenvalues --  -10.28842 -10.28341  -1.13695  -1.11703  -1.04647
 Alpha  occ. eigenvalues --   -1.04394  -1.04049  -1.03463  -1.00137  -1.00022
 Alpha  occ. eigenvalues --   -0.96429  -0.94465  -0.91892  -0.88887  -0.88039
 Alpha  occ. eigenvalues --   -0.86392  -0.86119  -0.85844  -0.85004  -0.83468
 Alpha  occ. eigenvalues --   -0.82347  -0.79696  -0.78120  -0.77202  -0.75695
 Alpha  occ. eigenvalues --   -0.73774  -0.73098  -0.72603  -0.71672  -0.71038
 Alpha  occ. eigenvalues --   -0.70627  -0.69356  -0.68046  -0.66242  -0.64617
 Alpha  occ. eigenvalues --   -0.64070  -0.62983  -0.62089  -0.60746  -0.59868
 Alpha  occ. eigenvalues --   -0.58435  -0.57889  -0.56934  -0.56374  -0.55759
 Alpha  occ. eigenvalues --   -0.55570  -0.55417  -0.54931  -0.54689  -0.54306
 Alpha  occ. eigenvalues --   -0.54048  -0.53541  -0.53294  -0.52909  -0.52324
 Alpha  occ. eigenvalues --   -0.51325  -0.51263  -0.50941  -0.50650  -0.50494
 Alpha  occ. eigenvalues --   -0.50266  -0.49625  -0.49164  -0.48818  -0.48575
 Alpha  occ. eigenvalues --   -0.47282  -0.47190  -0.46796  -0.46459  -0.45869
 Alpha  occ. eigenvalues --   -0.45412  -0.45208  -0.44747  -0.44207  -0.43766
 Alpha  occ. eigenvalues --   -0.43347  -0.42640  -0.42508  -0.41969  -0.41446
 Alpha  occ. eigenvalues --   -0.41368  -0.40930  -0.39491  -0.37745  -0.36533
 Alpha  occ. eigenvalues --   -0.34520  -0.34376  -0.33745  -0.33305  -0.32952
 Alpha  occ. eigenvalues --   -0.32254  -0.32164  -0.31175  -0.28989  -0.27017
 Alpha  occ. eigenvalues --   -0.25577
 Alpha virt. eigenvalues --    0.00605   0.03183   0.04123   0.05507   0.06078
 Alpha virt. eigenvalues --    0.08110   0.08593   0.10657   0.14269   0.15048
 Alpha virt. eigenvalues --    0.16203   0.16663   0.16932   0.18004   0.18857
 Alpha virt. eigenvalues --    0.19193   0.19646   0.20239   0.20554   0.21048
 Alpha virt. eigenvalues --    0.21433   0.21924   0.22409   0.22941   0.23294
 Alpha virt. eigenvalues --    0.23386   0.23793   0.23944   0.24689   0.24963
 Alpha virt. eigenvalues --    0.25321   0.25836   0.26031   0.26209   0.26730
 Alpha virt. eigenvalues --    0.27230   0.27455   0.27858   0.28153   0.28535
 Alpha virt. eigenvalues --    0.28969   0.29034   0.29396   0.29651   0.30329
 Alpha virt. eigenvalues --    0.30956   0.31415   0.31419   0.32044   0.32383
 Alpha virt. eigenvalues --    0.32956   0.33266   0.33370   0.33980   0.34356
 Alpha virt. eigenvalues --    0.35019   0.35334   0.36182   0.37631   0.37732
 Alpha virt. eigenvalues --    0.38468   0.38992   0.39810   0.40263   0.40523
 Alpha virt. eigenvalues --    0.41058   0.41714   0.42263   0.42377   0.42630
 Alpha virt. eigenvalues --    0.44075   0.45196   0.46313   0.47406   0.47826
 Alpha virt. eigenvalues --    0.48863   0.50046   0.51296   0.53098   0.54777
 Alpha virt. eigenvalues --    0.56418   0.57012   0.57588   0.57874   0.58307
 Alpha virt. eigenvalues --    0.59194   0.59593   0.59957   0.60290   0.60764
 Alpha virt. eigenvalues --    0.61195   0.61628   0.61791   0.62468   0.62912
 Alpha virt. eigenvalues --    0.63199   0.63325   0.63847   0.64563   0.64973
 Alpha virt. eigenvalues --    0.65127   0.65421   0.65607   0.65946   0.66335
 Alpha virt. eigenvalues --    0.66655   0.66868   0.66993   0.67132   0.67399
 Alpha virt. eigenvalues --    0.67809   0.68272   0.68992   0.69144   0.69341
 Alpha virt. eigenvalues --    0.69966   0.70336   0.70578   0.70957   0.71206
 Alpha virt. eigenvalues --    0.71780   0.71858   0.72498   0.72606   0.73319
 Alpha virt. eigenvalues --    0.73449   0.73820   0.74291   0.75299   0.75452
 Alpha virt. eigenvalues --    0.76061   0.76629   0.76788   0.77684   0.78339
 Alpha virt. eigenvalues --    0.78766   0.78778   0.80543   0.80704   0.81473
 Alpha virt. eigenvalues --    0.82431   0.82677   0.83319   0.83475   0.84103
 Alpha virt. eigenvalues --    0.85038   0.85475   0.85769   0.86943   0.88503
 Alpha virt. eigenvalues --    0.88697   0.88888   0.89718   0.89993   0.90285
 Alpha virt. eigenvalues --    0.90456   0.90777   0.91238   0.91409   0.92746
 Alpha virt. eigenvalues --    0.93093   0.93120   0.93449   0.93800   0.93995
 Alpha virt. eigenvalues --    0.94245   0.94901   0.95077   0.95218   0.95287
 Alpha virt. eigenvalues --    0.95661   0.96299   0.97130   0.97557   0.98076
 Alpha virt. eigenvalues --    0.98412   0.98697   0.98827   0.99653   1.00071
 Alpha virt. eigenvalues --    1.00549   1.00895   1.01106   1.01679   1.01877
 Alpha virt. eigenvalues --    1.02216   1.03077   1.03858   1.04020   1.04532
 Alpha virt. eigenvalues --    1.05545   1.05706   1.06158   1.06709   1.07495
 Alpha virt. eigenvalues --    1.07718   1.07935   1.08352   1.08748   1.09113
 Alpha virt. eigenvalues --    1.09868   1.10521   1.10799   1.11013   1.11984
 Alpha virt. eigenvalues --    1.12304   1.12662   1.13897   1.14923   1.16045
 Alpha virt. eigenvalues --    1.16277   1.16933   1.17408   1.18195   1.19003
 Alpha virt. eigenvalues --    1.20237   1.21502   1.22381   1.23731   1.23872
 Alpha virt. eigenvalues --    1.25112   1.25634   1.25918   1.26825   1.27819
 Alpha virt. eigenvalues --    1.28854   1.29605   1.30160   1.31169   1.31328
 Alpha virt. eigenvalues --    1.32366   1.33082   1.33306   1.34222   1.34495
 Alpha virt. eigenvalues --    1.36614   1.36981   1.37726   1.38012   1.39600
 Alpha virt. eigenvalues --    1.40253   1.41569   1.42150   1.43928   1.44528
 Alpha virt. eigenvalues --    1.46004   1.47364   1.47545   1.47972   1.48258
 Alpha virt. eigenvalues --    1.49421   1.49934   1.50457   1.50817   1.51500
 Alpha virt. eigenvalues --    1.53473   1.53705   1.54595   1.54670   1.54951
 Alpha virt. eigenvalues --    1.55731   1.55763   1.56168   1.56810   1.57518
 Alpha virt. eigenvalues --    1.57996   1.58422   1.59013   1.59245   1.59348
 Alpha virt. eigenvalues --    1.60129   1.60724   1.61501   1.63046   1.63267
 Alpha virt. eigenvalues --    1.63930   1.64859   1.66055   1.67144   1.67709
 Alpha virt. eigenvalues --    1.68543   1.69543   1.72627   1.74124   1.77169
 Alpha virt. eigenvalues --    1.79391   1.79973   1.81212   1.81620   1.83157
 Alpha virt. eigenvalues --    1.85147   1.85627   1.87039   1.87485   1.88018
 Alpha virt. eigenvalues --    1.88437   1.89336   1.89663   1.90750   1.91143
 Alpha virt. eigenvalues --    1.91620   1.92612   1.92849   1.93495   1.93562
 Alpha virt. eigenvalues --    1.94272   1.94824   1.96136   1.96426   1.98339
 Alpha virt. eigenvalues --    1.98484   1.99533   1.99880   2.00085   2.00713
 Alpha virt. eigenvalues --    2.01730   2.02477   2.03015   2.03699   2.04920
 Alpha virt. eigenvalues --    2.05286   2.06437   2.06908   2.07169   2.07799
 Alpha virt. eigenvalues --    2.08280   2.09084   2.09370   2.09838   2.11272
 Alpha virt. eigenvalues --    2.11740   2.12411   2.13472   2.14326   2.14774
 Alpha virt. eigenvalues --    2.15240   2.16802   2.17092   2.19868   2.20265
 Alpha virt. eigenvalues --    2.20772   2.21371   2.21470   2.22252   2.22446
 Alpha virt. eigenvalues --    2.23454   2.23814   2.24211   2.24722   2.25509
 Alpha virt. eigenvalues --    2.25770   2.26651   2.26894   2.27033   2.27476
 Alpha virt. eigenvalues --    2.28911   2.29626   2.29700   2.32712   2.33831
 Alpha virt. eigenvalues --    2.34997   2.35629   2.35806   2.36279   2.36873
 Alpha virt. eigenvalues --    2.37377   2.38671   2.38805   2.39564   2.40234
 Alpha virt. eigenvalues --    2.40752   2.41680   2.42323   2.43022   2.43380
 Alpha virt. eigenvalues --    2.43827   2.44681   2.45016   2.45548   2.46066
 Alpha virt. eigenvalues --    2.46664   2.47455   2.48333   2.49100   2.49799
 Alpha virt. eigenvalues --    2.50229   2.50753   2.52450   2.53282   2.54999
 Alpha virt. eigenvalues --    2.59508   2.60166   2.60322   2.61899   2.62596
 Alpha virt. eigenvalues --    2.64490   2.65305   2.65991   2.67293   2.67978
 Alpha virt. eigenvalues --    2.69690   2.70808   2.71308   2.72001   2.73036
 Alpha virt. eigenvalues --    2.73750   2.74324   2.74737   2.76602   2.76967
 Alpha virt. eigenvalues --    2.77587   2.77956   2.79556   2.80174   2.82329
 Alpha virt. eigenvalues --    2.82862   2.83378   2.83725   2.85194   2.85614
 Alpha virt. eigenvalues --    2.86622   2.86891   2.87602   2.88484   2.88583
 Alpha virt. eigenvalues --    2.89575   2.91579   2.92107   2.93952   2.94558
 Alpha virt. eigenvalues --    2.95527   2.96120   2.97494   3.00551   3.03157
 Alpha virt. eigenvalues --    3.04292   3.07317   3.08704   3.10574   3.11635
 Alpha virt. eigenvalues --    3.19038   3.26950   3.30032   3.38618   3.41834
 Alpha virt. eigenvalues --    3.45314   3.53292   3.57141   3.57291   4.12231
 Alpha virt. eigenvalues --    4.13651   4.16257   4.18008   4.18786   4.19077
 Alpha virt. eigenvalues --    4.20392   4.21149   4.22372   4.23404   4.25346
 Alpha virt. eigenvalues --    4.25803   4.27487   4.27811   4.30132   4.32356
 Alpha virt. eigenvalues --    4.33219   4.34314   4.37528   4.39873   4.40539
 Alpha virt. eigenvalues --    4.42599   4.44589   4.45744   4.48294   4.49424
 Alpha virt. eigenvalues --    4.50654   4.52707   4.57177   4.60042   4.62061
 Alpha virt. eigenvalues --    4.64338   4.66595   4.68340   4.80314   4.84361
 Alpha virt. eigenvalues --    4.89451
          Condensed to atoms (all electrons):
 Mulliken atomic charges:
              1
     1  C   -0.201447
     2  C   -0.158960
     3  C    0.030057
     4  C   -0.001194
     5  N   -0.435051
     6  C    0.012258
     7  C    0.296501
     8  C   -0.253075
     9  C    0.046131
    10  N   -0.493815
    11  C    0.700658
    12  N   -0.566128
    13  N   -0.790137
    14  C    0.284648
    15  C    0.122444
    16  C   -0.240673
    17  C   -0.186820
    18  C    0.351575
    19  C   -0.258268
    20  N   -0.762672
    21  C    0.588998
    22  C    0.019451
    23  C   -0.174033
    24  C   -0.222858
    25  C    0.158333
    26  C   -0.216609
    27  C   -0.202569
    28  C   -0.267483
    29  N   -0.382148
    30  C   -0.186836
    31  C   -0.184055
    32  N   -0.393825
    33  C   -0.352079
    34  C   -0.184484
    35  C   -0.181598
    36  O   -0.511639
    37  C   -0.604371
    38  H    0.175087
    39  H    0.178082
    40  H    0.197058
    41  H    0.218938
    42  H    0.178672
    43  H    0.186354
    44  H    0.366469
    45  H    0.160432
    46  H    0.212398
    47  H    0.191912
    48  H    0.363574
    49  H    0.199353
    50  H    0.165263
    51  H    0.162874
    52  H    0.174375
    53  H    0.170826
    54  H    0.171333
    55  H    0.158434
    56  H    0.159164
    57  H    0.156977
    58  H    0.187076
    59  H    0.144164
    60  H    0.171640
    61  H    0.162072
    62  H    0.150148
    63  H    0.175595
    64  H    0.159393
    65  H    0.154196
    66  H    0.176599
    67  H    0.184456
    68  H    0.188862
 Sum of Mulliken atomic charges =   0.00000
 Mulliken charges with hydrogens summed into heavy atoms:
              1
     1  C   -0.026360
     2  C    0.019122
     3  C    0.030057
     4  C    0.195864
     5  N   -0.435051
     6  C    0.231196
     7  C    0.296501
     8  C   -0.074403
     9  C    0.232486
    10  N   -0.493815
    11  C    0.700658
    12  N   -0.566128
    13  N   -0.423668
    14  C    0.284648
    15  C    0.122444
    16  C   -0.080241
    17  C    0.025578
    18  C    0.351575
    19  C   -0.066356
    20  N   -0.399098
    21  C    0.588998
    22  C    0.019451
    23  C    0.025319
    24  C   -0.057595
    25  C    0.158333
    26  C   -0.053736
    27  C   -0.028194
    28  C    0.074676
    29  N   -0.382148
    30  C    0.130762
    31  C    0.159997
    32  N   -0.393825
    33  C    0.125797
    34  C    0.141259
    35  C    0.131991
    36  O   -0.511639
    37  C   -0.054454
 Sum of Mulliken charges with hydrogens summed into heavy atoms =   0.00000
 Electronic spatial extent (au):  <R**2>=          21899.0335
 Charge=              0.0000 electrons
 Dipole moment (field-independent basis, Debye):
    X=             -0.9895    Y=              5.3041    Z=              1.5276  Tot=              5.6077
 Quadrupole moment (field-independent basis, Debye-Ang):
   XX=           -192.0721   YY=           -207.5067   ZZ=           -213.4581
   XY=             -0.0242   XZ=             -0.3630   YZ=              1.5965
 Traceless Quadrupole moment (field-independent basis, Debye-Ang):
   XX=             12.2735   YY=             -3.1611   ZZ=             -9.1124
   XY=             -0.0242   XZ=             -0.3630   YZ=              1.5965
 Octapole moment (field-independent basis, Debye-Ang**2):
  XXX=             61.3603  YYY=            196.8089  ZZZ=              1.4111  XYY=             26.3118
  XXY=            -15.8656  XXZ=            -36.0452  XZZ=            -40.3065  YZZ=             -7.1362
  YYZ=              6.1449  XYZ=             -3.0569
 Hexadecapole moment (field-independent basis, Debye-Ang**3):
 XXXX=         -19810.6023 YYYY=          -8337.3573 ZZZZ=           -884.9587 XXXY=           -355.3667
 XXXZ=             61.2057 YYYX=            126.5461 YYYZ=             70.6196 ZZZX=             -2.1673
 ZZZY=              6.6273 XXYY=          -4352.0745 XXZZ=          -3472.7969 YYZZ=          -1637.8593
 XXYZ=             73.5894 YYXZ=             14.4831 ZZXY=              2.5828
 N-N= 3.875116150090D+03 E-N=-1.142234511367D+04  KE= 1.567151753604D+03
 No NMR shielding tensors so no spin-rotation constants.
 Leave Link  601 at Tue Mar 10 15:52:06 2020, MaxMem= 2684354560 cpu:       4.1
 (Enter /opt/g09gh/gaussian/g09/l9999.exe)
 1\1\GINC-NODE37\FOpt\RwB97XD\6-31G(d)\C29H31N7O1\BDW2292\10-Mar-2020\0
 \\#P opt=(,maxcycle=400) wB97XD/6-31G* MaxDisk=100GB\\MOLECULE0 Rotata
 ble Bond Optimization on g2-node38.bme.utexas.edu\\0,1\C,-3.6392464936
 ,-0.8749095069,6.0610967728\C,-2.6760125216,-1.6375495149,6.7095491066
 \C,-1.5240906115,-2.0032949371,6.0141505882\C,-1.4064492993,-1.5641343
 975,4.6878154255\N,-2.3264377501,-0.8438523831,4.0514791998\C,-3.42791
 15612,-0.5082471518,4.7342613051\C,-0.4554395201,-2.851609935,6.594949
 7218\C,-0.252630342,-3.0383954622,7.9612132596\C,0.7886346981,-3.89306
 19481,8.3165613894\N,1.581699017,-4.4994156983,7.4408082456\C,1.314211
 8152,-4.2301708763,6.1484581776\N,0.3304382106,-3.4548145836,5.7000800
 295\N,2.1516534688,-4.8288176924,5.2441550237\C,2.2379670783,-4.626611
 0336,3.8531274115\C,3.4743037798,-4.8511275848,3.2174384595\C,3.547341
 024,-4.6194282833,1.8467166218\C,2.4703539302,-4.1624116294,1.09172780
 66\C,1.2542563432,-3.9566268807,1.7396121687\C,1.1377122204,-4.2209797
 466,3.103883613\N,0.0847239427,-3.4898215278,1.1073826283\C,-0.0344988
 003,-2.875665563,-0.1137717436\C,-1.4259968792,-2.3958251968,-0.417929
 0945\C,-1.5643889585,-1.2582388112,-1.2120133058\C,-2.8281456152,-0.77
 39417188,-1.5241721378\C,-3.9807957413,-1.4191724768,-1.0703840117\C,-
 3.8330157022,-2.5756248954,-0.3025588695\C,-2.5728896632,-3.0561887237
 ,0.0307895322\C,-5.3598092673,-0.8818649037,-1.4243942879\N,-6.0395157
 219,-0.0384664954,-0.4582077481\C,-5.4135928362,1.2381088325,-0.137338
 3325\C,-4.5720287567,1.2053002604,1.1482314427\N,-5.3149240822,0.67511
 62133,2.2916768709\C,-6.3272255368,1.5794683982,2.8112648425\C,-5.8184
 727641,-0.6577541714,1.9657633763\C,-6.6740212147,-0.6730430555,0.6890
 290674\O,0.8896184871,-2.7078875768,-0.8918609668\C,4.6824761115,-5.30
 81784034,3.9945106565\H,-4.5503117806,-0.5792386733,6.5711327227\H,-2.
 8339758682,-1.9631354029,7.7340835493\H,-0.5098448533,-1.8125703736,4.
 1260891977\H,-4.1612986301,0.069214986,4.1706360145\H,-0.8516257245,-2
 .5448425669,8.7164028671\H,0.9996615343,-4.0954516868,9.3647348328\H,2
 .9005109898,-5.3395524693,5.6871106717\H,4.4973832755,-4.7835284213,1.
 3444924097\H,2.5727782379,-3.9544573012,0.0363196106\H,0.191308205,-4.
 06971865,3.6025057843\H,-0.7101077129,-3.3897698029,1.7224655463\H,-0.
 6698023841,-0.7686140287,-1.5829178236\H,-2.9225298626,0.1144170895,-2
 .1445147568\H,-4.7166175251,-3.1173555822,0.0275074475\H,-2.4895089472
 ,-3.9760972268,0.6036117606\H,-5.2743355868,-0.3064931038,-2.355381939
 9\H,-6.0239442533,-1.7270206463,-1.6420149843\H,-4.7935134653,1.550193
 163,-0.9846679106\H,-6.2053628463,1.9951127406,-0.0311598008\H,-4.2175
 393596,2.2133492757,1.393826347\H,-3.6905400918,0.5690197522,1.0063538
 86\H,-7.1517789368,1.8189871885,2.119021329\H,-5.8472382786,2.52176446
 27,3.0963813967\H,-6.7687206377,1.1396641881,3.7129740249\H,-6.4023867
 336,-1.0330828847,2.8155435199\H,-4.9468715375,-1.3122398223,1.8463065
 874\H,-7.6203303506,-0.148456824,0.8912031615\H,-6.9381380673,-1.70259
 87661,0.4229793357\H,4.5386411379,-6.3037165794,4.4364002916\H,4.92868
 97608,-4.6159501127,4.8094622303\H,5.5582028051,-5.3713938604,3.343511
 4463\\Version=EM64L-G09RevA.02\State=1-A\HF=-1581.7640372\RMSD=3.879e-
 09\RMSF=5.506e-06\Dipole=-1.4606025,0.1568346,1.6460603\Quadrupole=3.8
 178094,-4.0724017,0.2545923,-5.4067874,3.683232,-3.2271545\PG=C01 [X(C
 29H31N7O1)]\\@


 SEEN ON A WALL AT THE UNIVERSITY OF ILLINOIS AT CHICAGO CIRCLE:

 TO DO IS TO BE  -- SOCRATES
 TO BE IS TO DO  -- SARTRE
 OO BE DO BE DO  -- SINATRA
 Job cpu time:  1 days  1 hours  4 minutes 57.9 seconds.
 File lengths (MBytes):  RWF=    244 Int=      0 D2E=      0 Chk=     25 Scr=      1
 Normal termination of Gaussian 09 at Tue Mar 10 15:52:06 2020.
