 Entering Gaussian System, Link 0=g09
 Input=MOLECULE0-opt-25-28-29-35-272.com
 Output=MOLECULE0-opt-25-28-29-35-272.log
 Initial command:
 /opt/g09gh/gaussian/g09/l1.exe /scratch/bdw2292/Gau-MOLECULE0/Gau-47712.inp -scrdir=/scratch/bdw2292/Gau-MOLECULE0/
 Entering Link 1 = /opt/g09gh/gaussian/g09/l1.exe PID=     47713.
  
 Copyright (c) 1988,1990,1992,1993,1995,1998,2003,2009, Gaussian, Inc.
                  All Rights Reserved.
  
 This is part of the Gaussian(R) 09 program.  It is based on
 the Gaussian(R) 03 system (copyright 2003, Gaussian, Inc.),
 the Gaussian(R) 98 system (copyright 1998, Gaussian, Inc.),
 the Gaussian(R) 94 system (copyright 1995, Gaussian, Inc.),
 the Gaussian 92(TM) system (copyright 1992, Gaussian, Inc.),
 the Gaussian 90(TM) system (copyright 1990, Gaussian, Inc.),
 the Gaussian 88(TM) system (copyright 1988, Gaussian, Inc.),
 the Gaussian 86(TM) system (copyright 1986, Carnegie Mellon
 University), and the Gaussian 82(TM) system (copyright 1983,
 Carnegie Mellon University). Gaussian is a federally registered
 trademark of Gaussian, Inc.
  
 This software contains proprietary and confidential information,
 including trade secrets, belonging to Gaussian, Inc.
  
 This software is provided under written license and may be
 used, copied, transmitted, or stored only in accord with that
 written license.
  
 The following legend is applicable only to US Government
 contracts under FAR:
  
                    RESTRICTED RIGHTS LEGEND
  
 Use, reproduction and disclosure by the US Government is
 subject to restrictions as set forth in subparagraphs (a)
 and (c) of the Commercial Computer Software - Restricted
 Rights clause in FAR 52.227-19.
  
 Gaussian, Inc.
 340 Quinnipiac St., Bldg. 40, Wallingford CT 06492
  
  
 ---------------------------------------------------------------
 Warning -- This program may not be used in any manner that
 competes with the business of Gaussian, Inc. or will provide
 assistance to any competitor of Gaussian, Inc.  The licensee
 of this program is prohibited from giving any competitor of
 Gaussian, Inc. access to this program.  By using this program,
 the user acknowledges that Gaussian, Inc. is engaged in the
 business of creating and licensing software in the field of
 computational chemistry and represents and warrants to the
 licensee that it is not a competitor of Gaussian, Inc. and that
 it will not use this program in any manner prohibited above.
 ---------------------------------------------------------------
  

 Cite this work as:
 Gaussian 09, Revision A.02,
 M. J. Frisch, G. W. Trucks, H. B. Schlegel, G. E. Scuseria, 
 M. A. Robb, J. R. Cheeseman, G. Scalmani, V. Barone, B. Mennucci, 
 G. A. Petersson, H. Nakatsuji, M. Caricato, X. Li, H. P. Hratchian, 
 A. F. Izmaylov, J. Bloino, G. Zheng, J. L. Sonnenberg, M. Hada, 
 M. Ehara, K. Toyota, R. Fukuda, J. Hasegawa, M. Ishida, T. Nakajima, 
 Y. Honda, O. Kitao, H. Nakai, T. Vreven, J. A. Montgomery, Jr., 
 J. E. Peralta, F. Ogliaro, M. Bearpark, J. J. Heyd, E. Brothers, 
 K. N. Kudin, V. N. Staroverov, R. Kobayashi, J. Normand, 
 K. Raghavachari, A. Rendell, J. C. Burant, S. S. Iyengar, J. Tomasi, 
 M. Cossi, N. Rega, J. M. Millam, M. Klene, J. E. Knox, J. B. Cross, 
 V. Bakken, C. Adamo, J. Jaramillo, R. Gomperts, R. E. Stratmann, 
 O. Yazyev, A. J. Austin, R. Cammi, C. Pomelli, J. W. Ochterski, 
 R. L. Martin, K. Morokuma, V. G. Zakrzewski, G. A. Voth, 
 P. Salvador, J. J. Dannenberg, S. Dapprich, A. D. Daniels, 
 O. Farkas, J. B. Foresman, J. V. Ortiz, J. Cioslowski, 
 and D. J. Fox, Gaussian, Inc., Wallingford CT, 2009.
 
 ******************************************
 Gaussian 09:  EM64L-G09RevA.02 11-Jun-2009
                 8-Apr-2020 
 ******************************************
 %RWF=/scratch/bdw2292/Gau-MOLECULE0/,100GB
 %Nosave
 %Chk=MOLECULE0-opt-25-28-29-35-272.chk
 %Mem=20GB
 %Nproc=6
 Will use up to    6 processors via shared memory.
 --------------------------------------------------
 #P opt=(,maxcycle=400) wB97XD/6-31G* MaxDisk=100GB
 --------------------------------------------------
 1/6=400,14=-1,18=20,19=15,26=3,38=1/1,3;
 2/9=110,12=2,17=6,18=5,40=1/2;
 3/5=1,6=6,7=1,11=2,16=1,25=1,30=1,71=1,74=-58/1,2,3;
 4//1;
 5/5=2,38=5/2;
 6/7=2,8=2,9=2,10=2,28=1/1;
 7//1,2,3,16;
 1/6=400,14=-1,18=20,19=15/3(2);
 2/9=110/2;
 99//99;
 2/9=110/2;
 3/5=1,6=6,7=1,11=2,16=1,25=1,30=1,71=1,74=-58/1,2,3;
 4/5=5,16=3/1;
 5/5=2,38=5/2;
 7//1,2,3,16;
 1/6=400,14=-1,18=20,19=15/3(-5);
 2/9=110/2;
 6/7=2,8=2,9=2,10=2,19=2,28=1/1;
 99/9=1/99;
 Leave Link    1 at Wed Apr  8 22:21:00 2020, MaxMem= 2684354560 cpu:       0.4
 (Enter /opt/g09gh/gaussian/g09/l101.exe)
 --------------------------------------------------------------
 MOLECULE0 Rotatable Bond Optimization on node37.bme.utexas.edu
 --------------------------------------------------------------
 Symbolic Z-matrix:
 Charge =  0 Multiplicity = 1
 C                     0.25845   3.65354  -3.90209 
 C                     1.61202   3.56727  -3.54817 
 C                     2.09067   2.4316   -2.8643 
 C                     1.12849   1.42645  -2.59755 
 N                    -0.16802   1.48745  -2.92793 
 C                    -0.58702   2.58988  -3.56752 
 C                     3.52682   2.25943  -2.43226 
 C                     4.57081   3.16109  -2.6946 
 C                     5.82808   2.79278  -2.20349 
 N                     6.07179   1.67906  -1.51893 
 C                     5.00797   0.87749  -1.3003 
 N                     3.76937   1.13465  -1.73066 
 N                     5.27359  -0.27348  -0.57335 
 C                     4.47706  -1.41131  -0.18434 
 C                     5.12818  -2.60386   0.25644 
 C                     4.31023  -3.69126   0.60802 
 C                     2.91233  -3.66767   0.54709 
 C                     2.29032  -2.48434   0.13811 
 C                     3.07776  -1.38058  -0.22459 
 N                     0.88272  -2.28465   0.02133 
 C                    -0.12114  -3.16069  -0.31625 
 C                    -1.48919  -2.58199  -0.61809 
 C                    -1.67405  -1.34811  -1.26339 
 C                    -2.9596   -0.84927  -1.48027 
 C                    -4.10261  -1.56389  -1.07562 
 C                    -3.9032   -2.81086  -0.45195 
 C                    -2.6208   -3.32165  -0.23769 
 C                    -5.50503  -0.97892  -1.25024 
 N                    -6.01471  -0.04043  -0.2326 
 C                    -5.48887   1.34302  -0.20352 
 C                    -4.30313   1.56157   0.77116 
 N                    -4.57132   1.11779   2.15924 
 C                    -5.31525   2.04777   3.01715 
 C                    -5.05598  -0.28384   2.13157 
 C                    -6.22766  -0.53819   1.14671 
 O                     0.05763  -4.36744  -0.35682 
 C                     6.63775  -2.75233   0.33976 
 H                    -0.13217   4.52223  -4.42381 
 H                     2.26308   4.39951  -3.80402 
 H                     1.43179   0.50934  -2.10462 
 H                    -1.64407   2.61624  -3.82717 
 H                     4.45249   4.08375  -3.2495 
 H                     6.69256   3.43427  -2.37219 
 H                     6.25984  -0.3188   -0.36533 
 H                     4.77319  -4.62229   0.93255 
 H                     2.31551  -4.53521   0.8013 
 H                     2.60021  -0.47054  -0.54931 
 H                     0.59271  -1.32341   0.13825 
 H                    -0.80956  -0.77744  -1.59342 
 H                    -3.06209   0.12035  -1.96715 
 H                    -4.75907  -3.39414  -0.11285 
 H                    -2.47468  -4.28297   0.24865 
 H                    -5.54918  -0.45882  -2.21813 
 H                    -6.22459  -1.80879  -1.3015 
 H                    -5.28596   1.68475  -1.17249 
 H                    -6.65313   2.25504   0.35274 
 H                    -4.01684   3.02846   0.79113 
 H                    -3.35502   1.02364   0.40286 
 H                    -6.33836   2.18948   2.65112 
 H                    -4.81176   3.02066   3.04695 
 H                    -5.35841   1.6618    4.04213 
 H                    -5.32622  -0.61379   3.19101 
 H                    -3.90726  -1.1264    1.68125 
 H                    -7.45012   0.26745   1.74159 
 H                    -6.52623  -1.59821   1.13192 
 H                     7.06826  -2.05801   1.07509 
 H                     7.11641  -2.54796  -0.62835 
 H                     6.95381  -3.7615    0.63814 
 
 NAtoms=     68 NQM=     68 NQMF=      0 NMic=      0 NMicF=      0 NTot=     68.
                    Isotopes and Nuclear Properties:
 (Nuclear quadrupole moments (NQMom) in fm**2, nuclear magnetic moments (NMagM)
  in nuclear magnetons)

  Atom         1           2           3           4           5           6           7           8           9          10
 IAtWgt=          12          12          12          12          14          12          12          12          12          14
 AtmWgt=  12.0000000  12.0000000  12.0000000  12.0000000  14.0030740  12.0000000  12.0000000  12.0000000  12.0000000  14.0030740
 NucSpn=           0           0           0           0           2           0           0           0           0           2
 AtZEff=   0.0000000   0.0000000   0.0000000   0.0000000   0.0000000   0.0000000   0.0000000   0.0000000   0.0000000   0.0000000
 NQMom=    0.0000000   0.0000000   0.0000000   0.0000000   2.0440000   0.0000000   0.0000000   0.0000000   0.0000000   2.0440000
 NMagM=    0.0000000   0.0000000   0.0000000   0.0000000   0.4037610   0.0000000   0.0000000   0.0000000   0.0000000   0.4037610

  Atom        11          12          13          14          15          16          17          18          19          20
 IAtWgt=          12          14          14          12          12          12          12          12          12          14
 AtmWgt=  12.0000000  14.0030740  14.0030740  12.0000000  12.0000000  12.0000000  12.0000000  12.0000000  12.0000000  14.0030740
 NucSpn=           0           2           2           0           0           0           0           0           0           2
 AtZEff=   0.0000000   0.0000000   0.0000000   0.0000000   0.0000000   0.0000000   0.0000000   0.0000000   0.0000000   0.0000000
 NQMom=    0.0000000   2.0440000   2.0440000   0.0000000   0.0000000   0.0000000   0.0000000   0.0000000   0.0000000   2.0440000
 NMagM=    0.0000000   0.4037610   0.4037610   0.0000000   0.0000000   0.0000000   0.0000000   0.0000000   0.0000000   0.4037610

  Atom        21          22          23          24          25          26          27          28          29          30
 IAtWgt=          12          12          12          12          12          12          12          12          14          12
 AtmWgt=  12.0000000  12.0000000  12.0000000  12.0000000  12.0000000  12.0000000  12.0000000  12.0000000  14.0030740  12.0000000
 NucSpn=           0           0           0           0           0           0           0           0           2           0
 AtZEff=   0.0000000   0.0000000   0.0000000   0.0000000   0.0000000   0.0000000   0.0000000   0.0000000   0.0000000   0.0000000
 NQMom=    0.0000000   0.0000000   0.0000000   0.0000000   0.0000000   0.0000000   0.0000000   0.0000000   2.0440000   0.0000000
 NMagM=    0.0000000   0.0000000   0.0000000   0.0000000   0.0000000   0.0000000   0.0000000   0.0000000   0.4037610   0.0000000

  Atom        31          32          33          34          35          36          37          38          39          40
 IAtWgt=          12          14          12          12          12          16          12           1           1           1
 AtmWgt=  12.0000000  14.0030740  12.0000000  12.0000000  12.0000000  15.9949146  12.0000000   1.0078250   1.0078250   1.0078250
 NucSpn=           0           2           0           0           0           0           0           1           1           1
 AtZEff=   0.0000000   0.0000000   0.0000000   0.0000000   0.0000000   0.0000000   0.0000000   0.0000000   0.0000000   0.0000000
 NQMom=    0.0000000   2.0440000   0.0000000   0.0000000   0.0000000   0.0000000   0.0000000   0.0000000   0.0000000   0.0000000
 NMagM=    0.0000000   0.4037610   0.0000000   0.0000000   0.0000000   0.0000000   0.0000000   2.7928460   2.7928460   2.7928460

  Atom        41          42          43          44          45          46          47          48          49          50
 IAtWgt=           1           1           1           1           1           1           1           1           1           1
 AtmWgt=   1.0078250   1.0078250   1.0078250   1.0078250   1.0078250   1.0078250   1.0078250   1.0078250   1.0078250   1.0078250
 NucSpn=           1           1           1           1           1           1           1           1           1           1
 AtZEff=   0.0000000   0.0000000   0.0000000   0.0000000   0.0000000   0.0000000   0.0000000   0.0000000   0.0000000   0.0000000
 NQMom=    0.0000000   0.0000000   0.0000000   0.0000000   0.0000000   0.0000000   0.0000000   0.0000000   0.0000000   0.0000000
 NMagM=    2.7928460   2.7928460   2.7928460   2.7928460   2.7928460   2.7928460   2.7928460   2.7928460   2.7928460   2.7928460

  Atom        51          52          53          54          55          56          57          58          59          60
 IAtWgt=           1           1           1           1           1           1           1           1           1           1
 AtmWgt=   1.0078250   1.0078250   1.0078250   1.0078250   1.0078250   1.0078250   1.0078250   1.0078250   1.0078250   1.0078250
 NucSpn=           1           1           1           1           1           1           1           1           1           1
 AtZEff=   0.0000000   0.0000000   0.0000000   0.0000000   0.0000000   0.0000000   0.0000000   0.0000000   0.0000000   0.0000000
 NQMom=    0.0000000   0.0000000   0.0000000   0.0000000   0.0000000   0.0000000   0.0000000   0.0000000   0.0000000   0.0000000
 NMagM=    2.7928460   2.7928460   2.7928460   2.7928460   2.7928460   2.7928460   2.7928460   2.7928460   2.7928460   2.7928460

  Atom        61          62          63          64          65          66          67          68
 IAtWgt=           1           1           1           1           1           1           1           1
 AtmWgt=   1.0078250   1.0078250   1.0078250   1.0078250   1.0078250   1.0078250   1.0078250   1.0078250
 NucSpn=           1           1           1           1           1           1           1           1
 AtZEff=   0.0000000   0.0000000   0.0000000   0.0000000   0.0000000   0.0000000   0.0000000   0.0000000
 NQMom=    0.0000000   0.0000000   0.0000000   0.0000000   0.0000000   0.0000000   0.0000000   0.0000000
 NMagM=    2.7928460   2.7928460   2.7928460   2.7928460   2.7928460   2.7928460   2.7928460   2.7928460
 Leave Link  101 at Wed Apr  8 22:21:00 2020, MaxMem= 2684354560 cpu:       0.4
 (Enter /opt/g09gh/gaussian/g09/l103.exe)

 GradGradGradGradGradGradGradGradGradGradGradGradGradGradGradGradGradGrad
 Berny optimization.
 Initialization pass.
                           ----------------------------
                           !    Initial Parameters    !
                           ! (Angstroms and Degrees)  !
 --------------------------                            --------------------------
 ! Name  Definition              Value          Derivative Info.                !
 --------------------------------------------------------------------------------
 ! R1    R(1,2)                  1.4017         estimate D2E/DX2                !
 ! R2    R(1,6)                  1.3993         estimate D2E/DX2                !
 ! R3    R(1,38)                 1.086          estimate D2E/DX2                !
 ! R4    R(2,3)                  1.4094         estimate D2E/DX2                !
 ! R5    R(2,39)                 1.0872         estimate D2E/DX2                !
 ! R6    R(3,4)                  1.4168         estimate D2E/DX2                !
 ! R7    R(3,7)                  1.5096         estimate D2E/DX2                !
 ! R8    R(4,5)                  1.3393         estimate D2E/DX2                !
 ! R9    R(4,40)                 1.0845         estimate D2E/DX2                !
 ! R10   R(5,6)                  1.3416         estimate D2E/DX2                !
 ! R11   R(6,41)                 1.0888         estimate D2E/DX2                !
 ! R12   R(7,8)                  1.4042         estimate D2E/DX2                !
 ! R13   R(7,12)                 1.3477         estimate D2E/DX2                !
 ! R14   R(8,9)                  1.3991         estimate D2E/DX2                !
 ! R15   R(8,42)                 1.0831         estimate D2E/DX2                !
 ! R16   R(9,10)                 1.3298         estimate D2E/DX2                !
 ! R17   R(9,43)                 1.0896         estimate D2E/DX2                !
 ! R18   R(10,11)                1.3498         estimate D2E/DX2                !
 ! R19   R(11,12)                1.3362         estimate D2E/DX2                !
 ! R20   R(11,13)                1.387          estimate D2E/DX2                !
 ! R21   R(13,14)                1.4424         estimate D2E/DX2                !
 ! R22   R(13,44)                1.009          estimate D2E/DX2                !
 ! R23   R(14,15)                1.4284         estimate D2E/DX2                !
 ! R24   R(14,19)                1.4002         estimate D2E/DX2                !
 ! R25   R(15,16)                1.4054         estimate D2E/DX2                !
 ! R26   R(15,37)                1.5191         estimate D2E/DX2                !
 ! R27   R(16,17)                1.3994         estimate D2E/DX2                !
 ! R28   R(16,45)                1.0893         estimate D2E/DX2                !
 ! R29   R(17,18)                1.398          estimate D2E/DX2                !
 ! R30   R(17,46)                1.0833         estimate D2E/DX2                !
 ! R31   R(18,19)                1.4035         estimate D2E/DX2                !
 ! R32   R(18,20)                1.4265         estimate D2E/DX2                !
 ! R33   R(19,47)                1.0778         estimate D2E/DX2                !
 ! R34   R(20,21)                1.3745         estimate D2E/DX2                !
 ! R35   R(20,48)                1.0108         estimate D2E/DX2                !
 ! R36   R(21,22)                1.5158         estimate D2E/DX2                !
 ! R37   R(21,36)                1.2206         estimate D2E/DX2                !
 ! R38   R(22,23)                1.4047         estimate D2E/DX2                !
 ! R39   R(22,27)                1.4044         estimate D2E/DX2                !
 ! R40   R(23,24)                1.3959         estimate D2E/DX2                !
 ! R41   R(23,49)                1.0872         estimate D2E/DX2                !
 ! R42   R(24,25)                1.4074         estimate D2E/DX2                !
 ! R43   R(24,50)                1.0898         estimate D2E/DX2                !
 ! R44   R(25,26)                1.4084         estimate D2E/DX2                !
 ! R45   R(25,28)                1.5295         estimate D2E/DX2                !
 ! R46   R(26,27)                1.3969         estimate D2E/DX2                !
 ! R47   R(26,51)                1.0898         estimate D2E/DX2                !
 ! R48   R(27,52)                1.0872         estimate D2E/DX2                !
 ! R49   R(28,29)                1.4752         estimate D2E/DX2                !
 ! R50   R(28,53)                1.0997         estimate D2E/DX2                !
 ! R51   R(28,54)                1.0996         estimate D2E/DX2                !
 ! R52   R(29,30)                1.4803         estimate D2E/DX2                !
 ! R53   R(29,35)                1.4818         estimate D2E/DX2                !
 ! R54   R(30,31)                1.5504         estimate D2E/DX2                !
 ! R55   R(30,55)                1.0473         estimate D2E/DX2                !
 ! R56   R(30,56)                1.5801         estimate D2E/DX2                !
 ! R57   R(31,32)                1.4818         estimate D2E/DX2                !
 ! R58   R(31,57)                1.4947         estimate D2E/DX2                !
 ! R59   R(31,58)                1.1506         estimate D2E/DX2                !
 ! R60   R(32,33)                1.4678         estimate D2E/DX2                !
 ! R61   R(32,34)                1.4833         estimate D2E/DX2                !
 ! R62   R(33,59)                1.0958         estimate D2E/DX2                !
 ! R63   R(33,60)                1.0959         estimate D2E/DX2                !
 ! R64   R(33,61)                1.0961         estimate D2E/DX2                !
 ! R65   R(34,35)                1.5516         estimate D2E/DX2                !
 ! R66   R(34,62)                1.1421         estimate D2E/DX2                !
 ! R67   R(34,63)                1.4941         estimate D2E/DX2                !
 ! R68   R(35,64)                1.5803         estimate D2E/DX2                !
 ! R69   R(35,65)                1.1014         estimate D2E/DX2                !
 ! R70   R(37,66)                1.0992         estimate D2E/DX2                !
 ! R71   R(37,67)                1.0991         estimate D2E/DX2                !
 ! R72   R(37,68)                1.0988         estimate D2E/DX2                !
 ! A1    A(2,1,6)              118.4433         estimate D2E/DX2                !
 ! A2    A(2,1,38)             121.1885         estimate D2E/DX2                !
 ! A3    A(6,1,38)             120.3683         estimate D2E/DX2                !
 ! A4    A(1,2,3)              120.0021         estimate D2E/DX2                !
 ! A5    A(1,2,39)             118.1476         estimate D2E/DX2                !
 ! A6    A(3,2,39)             121.8451         estimate D2E/DX2                !
 ! A7    A(2,3,4)              115.6186         estimate D2E/DX2                !
 ! A8    A(2,3,7)              123.6311         estimate D2E/DX2                !
 ! A9    A(4,3,7)              120.7501         estimate D2E/DX2                !
 ! A10   A(3,4,5)              125.3562         estimate D2E/DX2                !
 ! A11   A(3,4,40)             119.7109         estimate D2E/DX2                !
 ! A12   A(5,4,40)             114.9213         estimate D2E/DX2                !
 ! A13   A(4,5,6)              117.2159         estimate D2E/DX2                !
 ! A14   A(1,6,5)              123.3586         estimate D2E/DX2                !
 ! A15   A(1,6,41)             120.7409         estimate D2E/DX2                !
 ! A16   A(5,6,41)             115.8993         estimate D2E/DX2                !
 ! A17   A(3,7,8)              125.4941         estimate D2E/DX2                !
 ! A18   A(3,7,12)             114.5446         estimate D2E/DX2                !
 ! A19   A(8,7,12)             119.9591         estimate D2E/DX2                !
 ! A20   A(7,8,9)              115.689          estimate D2E/DX2                !
 ! A21   A(7,8,42)             124.1579         estimate D2E/DX2                !
 ! A22   A(9,8,42)             120.1474         estimate D2E/DX2                !
 ! A23   A(8,9,10)             124.4615         estimate D2E/DX2                !
 ! A24   A(8,9,43)             120.2387         estimate D2E/DX2                !
 ! A25   A(10,9,43)            115.2998         estimate D2E/DX2                !
 ! A26   A(9,10,11)            115.8663         estimate D2E/DX2                !
 ! A27   A(10,11,12)           124.3394         estimate D2E/DX2                !
 ! A28   A(10,11,13)           115.261          estimate D2E/DX2                !
 ! A29   A(12,11,13)           120.3994         estimate D2E/DX2                !
 ! A30   A(7,12,11)            119.6779         estimate D2E/DX2                !
 ! A31   A(11,13,14)           133.648          estimate D2E/DX2                !
 ! A32   A(11,13,44)           109.4225         estimate D2E/DX2                !
 ! A33   A(14,13,44)           116.6637         estimate D2E/DX2                !
 ! A34   A(13,14,15)           119.3467         estimate D2E/DX2                !
 ! A35   A(13,14,19)           121.7893         estimate D2E/DX2                !
 ! A36   A(15,14,19)           118.864          estimate D2E/DX2                !
 ! A37   A(14,15,16)           117.2495         estimate D2E/DX2                !
 ! A38   A(14,15,37)           123.4684         estimate D2E/DX2                !
 ! A39   A(16,15,37)           119.2753         estimate D2E/DX2                !
 ! A40   A(15,16,17)           123.8794         estimate D2E/DX2                !
 ! A41   A(15,16,45)           119.2429         estimate D2E/DX2                !
 ! A42   A(17,16,45)           116.8683         estimate D2E/DX2                !
 ! A43   A(16,17,18)           118.1278         estimate D2E/DX2                !
 ! A44   A(16,17,46)           121.7783         estimate D2E/DX2                !
 ! A45   A(18,17,46)           120.093          estimate D2E/DX2                !
 ! A46   A(17,18,19)           119.4479         estimate D2E/DX2                !
 ! A47   A(17,18,20)           125.5543         estimate D2E/DX2                !
 ! A48   A(19,18,20)           114.9844         estimate D2E/DX2                !
 ! A49   A(14,19,18)           122.4105         estimate D2E/DX2                !
 ! A50   A(14,19,47)           118.0337         estimate D2E/DX2                !
 ! A51   A(18,19,47)           119.5557         estimate D2E/DX2                !
 ! A52   A(18,20,21)           130.6608         estimate D2E/DX2                !
 ! A53   A(18,20,48)           114.0018         estimate D2E/DX2                !
 ! A54   A(21,20,48)           115.1487         estimate D2E/DX2                !
 ! A55   A(20,21,22)           117.6946         estimate D2E/DX2                !
 ! A56   A(20,21,36)           122.0964         estimate D2E/DX2                !
 ! A57   A(22,21,36)           120.1995         estimate D2E/DX2                !
 ! A58   A(21,22,23)           123.0676         estimate D2E/DX2                !
 ! A59   A(21,22,27)           118.1787         estimate D2E/DX2                !
 ! A60   A(23,22,27)           118.753          estimate D2E/DX2                !
 ! A61   A(22,23,24)           120.4309         estimate D2E/DX2                !
 ! A62   A(22,23,49)           119.7297         estimate D2E/DX2                !
 ! A63   A(24,23,49)           119.8392         estimate D2E/DX2                !
 ! A64   A(23,24,25)           121.4536         estimate D2E/DX2                !
 ! A65   A(23,24,50)           118.2927         estimate D2E/DX2                !
 ! A66   A(25,24,50)           120.2515         estimate D2E/DX2                !
 ! A67   A(24,25,26)           117.507          estimate D2E/DX2                !
 ! A68   A(24,25,28)           121.1731         estimate D2E/DX2                !
 ! A69   A(26,25,28)           121.264          estimate D2E/DX2                !
 ! A70   A(25,26,27)           121.4425         estimate D2E/DX2                !
 ! A71   A(25,26,51)           120.0291         estimate D2E/DX2                !
 ! A72   A(27,26,51)           118.5237         estimate D2E/DX2                !
 ! A73   A(22,27,26)           120.3697         estimate D2E/DX2                !
 ! A74   A(22,27,52)           118.5918         estimate D2E/DX2                !
 ! A75   A(26,27,52)           121.0184         estimate D2E/DX2                !
 ! A76   A(25,28,29)           118.7737         estimate D2E/DX2                !
 ! A77   A(25,28,53)           108.5532         estimate D2E/DX2                !
 ! A78   A(25,28,54)           108.4633         estimate D2E/DX2                !
 ! A79   A(29,28,53)           107.0019         estimate D2E/DX2                !
 ! A80   A(29,28,54)           106.6308         estimate D2E/DX2                !
 ! A81   A(53,28,54)           106.8367         estimate D2E/DX2                !
 ! A82   A(28,29,30)           119.0378         estimate D2E/DX2                !
 ! A83   A(28,29,35)           118.5606         estimate D2E/DX2                !
 ! A84   A(30,29,35)           110.2863         estimate D2E/DX2                !
 ! A85   A(29,30,31)           114.5675         estimate D2E/DX2                !
 ! A86   A(29,30,55)           110.83           estimate D2E/DX2                !
 ! A87   A(29,30,56)           106.5352         estimate D2E/DX2                !
 ! A88   A(31,30,55)           112.7968         estimate D2E/DX2                !
 ! A89   A(31,30,56)           105.1201         estimate D2E/DX2                !
 ! A90   A(55,30,56)           106.2682         estimate D2E/DX2                !
 ! A91   A(30,31,32)           114.0965         estimate D2E/DX2                !
 ! A92   A(30,31,57)           107.0509         estimate D2E/DX2                !
 ! A93   A(30,31,58)           111.2883         estimate D2E/DX2                !
 ! A94   A(32,31,57)           108.4256         estimate D2E/DX2                !
 ! A95   A(32,31,58)           107.9974         estimate D2E/DX2                !
 ! A96   A(57,31,58)           107.7742         estimate D2E/DX2                !
 ! A97   A(31,32,33)           116.7133         estimate D2E/DX2                !
 ! A98   A(31,32,34)           108.9449         estimate D2E/DX2                !
 ! A99   A(33,32,34)           116.3598         estimate D2E/DX2                !
 ! A100  A(32,33,59)           111.0954         estimate D2E/DX2                !
 ! A101  A(32,33,60)           110.2144         estimate D2E/DX2                !
 ! A102  A(32,33,61)           110.086          estimate D2E/DX2                !
 ! A103  A(59,33,60)           108.8588         estimate D2E/DX2                !
 ! A104  A(59,33,61)           108.7308         estimate D2E/DX2                !
 ! A105  A(60,33,61)           107.7751         estimate D2E/DX2                !
 ! A106  A(32,34,35)           114.4237         estimate D2E/DX2                !
 ! A107  A(32,34,62)           109.4513         estimate D2E/DX2                !
 ! A108  A(32,34,63)           106.6955         estimate D2E/DX2                !
 ! A109  A(35,34,62)           111.271          estimate D2E/DX2                !
 ! A110  A(35,34,63)           107.2675         estimate D2E/DX2                !
 ! A111  A(62,34,63)           107.3731         estimate D2E/DX2                !
 ! A112  A(29,35,34)           115.2942         estimate D2E/DX2                !
 ! A113  A(29,35,64)           106.8776         estimate D2E/DX2                !
 ! A114  A(29,35,65)           110.4737         estimate D2E/DX2                !
 ! A115  A(34,35,64)           105.1672         estimate D2E/DX2                !
 ! A116  A(34,35,65)           111.7776         estimate D2E/DX2                !
 ! A117  A(64,35,65)           106.6191         estimate D2E/DX2                !
 ! A118  A(15,37,66)           111.3562         estimate D2E/DX2                !
 ! A119  A(15,37,67)           111.4854         estimate D2E/DX2                !
 ! A120  A(15,37,68)           112.985          estimate D2E/DX2                !
 ! A121  A(66,37,67)           107.5311         estimate D2E/DX2                !
 ! A122  A(66,37,68)           106.6084         estimate D2E/DX2                !
 ! A123  A(67,37,68)           106.5397         estimate D2E/DX2                !
 ! D1    D(6,1,2,3)             -0.3799         estimate D2E/DX2                !
 ! D2    D(6,1,2,39)          -179.5637         estimate D2E/DX2                !
 ! D3    D(38,1,2,3)           179.623          estimate D2E/DX2                !
 ! D4    D(38,1,2,39)            0.4392         estimate D2E/DX2                !
 ! D5    D(2,1,6,5)             -0.2159         estimate D2E/DX2                !
 ! D6    D(2,1,6,41)          -179.8039         estimate D2E/DX2                !
 ! D7    D(38,1,6,5)           179.7812         estimate D2E/DX2                !
 ! D8    D(38,1,6,41)            0.1932         estimate D2E/DX2                !
 ! D9    D(1,2,3,4)              0.8163         estimate D2E/DX2                !
 ! D10   D(1,2,3,7)           -179.3723         estimate D2E/DX2                !
 ! D11   D(39,2,3,4)           179.9691         estimate D2E/DX2                !
 ! D12   D(39,2,3,7)            -0.2195         estimate D2E/DX2                !
 ! D13   D(2,3,4,5)             -0.7693         estimate D2E/DX2                !
 ! D14   D(2,3,4,40)           177.9257         estimate D2E/DX2                !
 ! D15   D(7,3,4,5)            179.4135         estimate D2E/DX2                !
 ! D16   D(7,3,4,40)            -1.8916         estimate D2E/DX2                !
 ! D17   D(2,3,7,8)             -2.7298         estimate D2E/DX2                !
 ! D18   D(2,3,7,12)           176.7279         estimate D2E/DX2                !
 ! D19   D(4,3,7,8)            177.0724         estimate D2E/DX2                !
 ! D20   D(4,3,7,12)            -3.47           estimate D2E/DX2                !
 ! D21   D(3,4,5,6)              0.2174         estimate D2E/DX2                !
 ! D22   D(40,4,5,6)          -178.5327         estimate D2E/DX2                !
 ! D23   D(4,5,6,1)              0.3014         estimate D2E/DX2                !
 ! D24   D(4,5,6,41)           179.9077         estimate D2E/DX2                !
 ! D25   D(3,7,8,9)           -179.6405         estimate D2E/DX2                !
 ! D26   D(3,7,8,42)            -0.5111         estimate D2E/DX2                !
 ! D27   D(12,7,8,9)             0.9289         estimate D2E/DX2                !
 ! D28   D(12,7,8,42)         -179.9417         estimate D2E/DX2                !
 ! D29   D(3,7,12,11)          179.8071         estimate D2E/DX2                !
 ! D30   D(8,7,12,11)           -0.7026         estimate D2E/DX2                !
 ! D31   D(7,8,9,10)            -0.4887         estimate D2E/DX2                !
 ! D32   D(7,8,9,43)           179.4876         estimate D2E/DX2                !
 ! D33   D(42,8,9,10)         -179.6555         estimate D2E/DX2                !
 ! D34   D(42,8,9,43)            0.3208         estimate D2E/DX2                !
 ! D35   D(8,9,10,11)           -0.1903         estimate D2E/DX2                !
 ! D36   D(43,9,10,11)         179.8324         estimate D2E/DX2                !
 ! D37   D(9,10,11,12)           0.4797         estimate D2E/DX2                !
 ! D38   D(9,10,11,13)        -179.358          estimate D2E/DX2                !
 ! D39   D(10,11,12,7)          -0.0348         estimate D2E/DX2                !
 ! D40   D(13,11,12,7)         179.795          estimate D2E/DX2                !
 ! D41   D(10,11,13,14)       -176.0035         estimate D2E/DX2                !
 ! D42   D(10,11,13,44)         -2.3189         estimate D2E/DX2                !
 ! D43   D(12,11,13,14)          4.1519         estimate D2E/DX2                !
 ! D44   D(12,11,13,44)        177.8365         estimate D2E/DX2                !
 ! D45   D(11,13,14,15)        163.1162         estimate D2E/DX2                !
 ! D46   D(11,13,14,19)        -16.9676         estimate D2E/DX2                !
 ! D47   D(44,13,14,15)        -10.2175         estimate D2E/DX2                !
 ! D48   D(44,13,14,19)        169.6987         estimate D2E/DX2                !
 ! D49   D(13,14,15,16)       -179.1827         estimate D2E/DX2                !
 ! D50   D(13,14,15,37)         -0.1415         estimate D2E/DX2                !
 ! D51   D(19,14,15,16)          0.8986         estimate D2E/DX2                !
 ! D52   D(19,14,15,37)        179.9399         estimate D2E/DX2                !
 ! D53   D(13,14,19,18)        179.3463         estimate D2E/DX2                !
 ! D54   D(13,14,19,47)         -0.5533         estimate D2E/DX2                !
 ! D55   D(15,14,19,18)         -0.7371         estimate D2E/DX2                !
 ! D56   D(15,14,19,47)        179.3633         estimate D2E/DX2                !
 ! D57   D(14,15,16,17)          0.1321         estimate D2E/DX2                !
 ! D58   D(14,15,16,45)        178.9784         estimate D2E/DX2                !
 ! D59   D(37,15,16,17)       -178.951          estimate D2E/DX2                !
 ! D60   D(37,15,16,45)         -0.1048         estimate D2E/DX2                !
 ! D61   D(14,15,37,66)         63.7818         estimate D2E/DX2                !
 ! D62   D(14,15,37,67)        -56.3171         estimate D2E/DX2                !
 ! D63   D(14,15,37,68)       -176.2695         estimate D2E/DX2                !
 ! D64   D(16,15,37,66)       -117.1953         estimate D2E/DX2                !
 ! D65   D(16,15,37,67)        122.7058         estimate D2E/DX2                !
 ! D66   D(16,15,37,68)          2.7534         estimate D2E/DX2                !
 ! D67   D(15,16,17,18)         -1.3393         estimate D2E/DX2                !
 ! D68   D(15,16,17,46)        178.3352         estimate D2E/DX2                !
 ! D69   D(45,16,17,18)        179.7892         estimate D2E/DX2                !
 ! D70   D(45,16,17,46)         -0.5363         estimate D2E/DX2                !
 ! D71   D(16,17,18,19)          1.4849         estimate D2E/DX2                !
 ! D72   D(16,17,18,20)       -179.9129         estimate D2E/DX2                !
 ! D73   D(46,17,18,19)       -178.1953         estimate D2E/DX2                !
 ! D74   D(46,17,18,20)          0.407          estimate D2E/DX2                !
 ! D75   D(17,18,19,14)         -0.489          estimate D2E/DX2                !
 ! D76   D(17,18,19,47)        179.4091         estimate D2E/DX2                !
 ! D77   D(20,18,19,14)       -179.2345         estimate D2E/DX2                !
 ! D78   D(20,18,19,47)          0.6636         estimate D2E/DX2                !
 ! D79   D(17,18,20,21)        -32.3149         estimate D2E/DX2                !
 ! D80   D(17,18,20,48)        153.0005         estimate D2E/DX2                !
 ! D81   D(19,18,20,21)        146.3423         estimate D2E/DX2                !
 ! D82   D(19,18,20,48)        -28.3423         estimate D2E/DX2                !
 ! D83   D(18,20,21,22)       -168.2158         estimate D2E/DX2                !
 ! D84   D(18,20,21,36)         12.9033         estimate D2E/DX2                !
 ! D85   D(48,20,21,22)          6.4198         estimate D2E/DX2                !
 ! D86   D(48,20,21,36)       -172.4611         estimate D2E/DX2                !
 ! D87   D(20,21,22,23)         35.4431         estimate D2E/DX2                !
 ! D88   D(20,21,22,27)       -144.8528         estimate D2E/DX2                !
 ! D89   D(36,21,22,23)       -145.6538         estimate D2E/DX2                !
 ! D90   D(36,21,22,27)         34.0502         estimate D2E/DX2                !
 ! D91   D(21,22,23,24)       -178.1758         estimate D2E/DX2                !
 ! D92   D(21,22,23,49)          1.6658         estimate D2E/DX2                !
 ! D93   D(27,22,23,24)          2.1218         estimate D2E/DX2                !
 ! D94   D(27,22,23,49)       -178.0366         estimate D2E/DX2                !
 ! D95   D(21,22,27,26)        177.7909         estimate D2E/DX2                !
 ! D96   D(21,22,27,52)         -0.5913         estimate D2E/DX2                !
 ! D97   D(23,22,27,26)         -2.492          estimate D2E/DX2                !
 ! D98   D(23,22,27,52)        179.1258         estimate D2E/DX2                !
 ! D99   D(22,23,24,25)         -0.6121         estimate D2E/DX2                !
 ! D100  D(22,23,24,50)        178.8513         estimate D2E/DX2                !
 ! D101  D(49,23,24,25)        179.5464         estimate D2E/DX2                !
 ! D102  D(49,23,24,50)         -0.9902         estimate D2E/DX2                !
 ! D103  D(23,24,25,26)         -0.5443         estimate D2E/DX2                !
 ! D104  D(23,24,25,28)        176.7695         estimate D2E/DX2                !
 ! D105  D(50,24,25,26)       -179.9973         estimate D2E/DX2                !
 ! D106  D(50,24,25,28)         -2.6835         estimate D2E/DX2                !
 ! D107  D(24,25,26,27)          0.167          estimate D2E/DX2                !
 ! D108  D(24,25,26,51)        179.3659         estimate D2E/DX2                !
 ! D109  D(28,25,26,27)       -177.1442         estimate D2E/DX2                !
 ! D110  D(28,25,26,51)          2.0547         estimate D2E/DX2                !
 ! D111  D(24,25,28,29)        -82.8574         estimate D2E/DX2                !
 ! D112  D(24,25,28,53)         39.5675         estimate D2E/DX2                !
 ! D113  D(24,25,28,54)        155.2996         estimate D2E/DX2                !
 ! D114  D(26,25,28,29)         94.3552         estimate D2E/DX2                !
 ! D115  D(26,25,28,53)       -143.2199         estimate D2E/DX2                !
 ! D116  D(26,25,28,54)        -27.4878         estimate D2E/DX2                !
 ! D117  D(25,26,27,22)          1.3685         estimate D2E/DX2                !
 ! D118  D(25,26,27,52)        179.7109         estimate D2E/DX2                !
 ! D119  D(51,26,27,22)       -177.8421         estimate D2E/DX2                !
 ! D120  D(51,26,27,52)          0.5003         estimate D2E/DX2                !
 ! D121  D(25,28,29,30)         74.5493         estimate D2E/DX2                !
 ! D122  D(25,28,29,35)        -64.3621         estimate D2E/DX2                !
 ! D123  D(53,28,29,30)        -48.6472         estimate D2E/DX2                !
 ! D124  D(53,28,29,35)        172.4414         estimate D2E/DX2                !
 ! D125  D(54,28,29,30)       -162.6911         estimate D2E/DX2                !
 ! D126  D(54,28,29,35)         58.3975         estimate D2E/DX2                !
 ! D127  D(28,29,30,31)        -94.1329         estimate D2E/DX2                !
 ! D128  D(28,29,30,55)         34.899          estimate D2E/DX2                !
 ! D129  D(28,29,30,56)        150.0882         estimate D2E/DX2                !
 ! D130  D(35,29,30,31)         47.8844         estimate D2E/DX2                !
 ! D131  D(35,29,30,55)        176.9164         estimate D2E/DX2                !
 ! D132  D(35,29,30,56)        -67.8945         estimate D2E/DX2                !
 ! D133  D(28,29,35,34)         95.5631         estimate D2E/DX2                !
 ! D134  D(28,29,35,64)       -147.9635         estimate D2E/DX2                !
 ! D135  D(28,29,35,65)        -32.3492         estimate D2E/DX2                !
 ! D136  D(30,29,35,34)        -46.6584         estimate D2E/DX2                !
 ! D137  D(30,29,35,64)         69.815          estimate D2E/DX2                !
 ! D138  D(30,29,35,65)       -174.5706         estimate D2E/DX2                !
 ! D139  D(29,30,31,32)        -53.3538         estimate D2E/DX2                !
 ! D140  D(29,30,31,57)       -173.3099         estimate D2E/DX2                !
 ! D141  D(29,30,31,58)         69.1615         estimate D2E/DX2                !
 ! D142  D(55,30,31,32)        178.6026         estimate D2E/DX2                !
 ! D143  D(55,30,31,57)         58.6465         estimate D2E/DX2                !
 ! D144  D(55,30,31,58)        -58.8821         estimate D2E/DX2                !
 ! D145  D(56,30,31,32)         63.2409         estimate D2E/DX2                !
 ! D146  D(56,30,31,57)        -56.7152         estimate D2E/DX2                !
 ! D147  D(56,30,31,58)       -174.2438         estimate D2E/DX2                !
 ! D148  D(30,31,32,33)        -81.9354         estimate D2E/DX2                !
 ! D149  D(30,31,32,34)         52.3525         estimate D2E/DX2                !
 ! D150  D(57,31,32,33)         37.2456         estimate D2E/DX2                !
 ! D151  D(57,31,32,34)        171.5335         estimate D2E/DX2                !
 ! D152  D(58,31,32,33)        153.768          estimate D2E/DX2                !
 ! D153  D(58,31,32,34)        -71.9442         estimate D2E/DX2                !
 ! D154  D(31,32,33,59)         65.5877         estimate D2E/DX2                !
 ! D155  D(31,32,33,60)        -55.159          estimate D2E/DX2                !
 ! D156  D(31,32,33,61)       -173.9118         estimate D2E/DX2                !
 ! D157  D(34,32,33,59)        -65.3316         estimate D2E/DX2                !
 ! D158  D(34,32,33,60)        173.9217         estimate D2E/DX2                !
 ! D159  D(34,32,33,61)         55.1689         estimate D2E/DX2                !
 ! D160  D(31,32,34,35)        -50.9047         estimate D2E/DX2                !
 ! D161  D(31,32,34,62)       -176.5615         estimate D2E/DX2                !
 ! D162  D(31,32,34,63)         67.5561         estimate D2E/DX2                !
 ! D163  D(33,32,34,35)         83.5635         estimate D2E/DX2                !
 ! D164  D(33,32,34,62)        -42.0933         estimate D2E/DX2                !
 ! D165  D(33,32,34,63)       -157.9757         estimate D2E/DX2                !
 ! D166  D(32,34,35,29)         50.4956         estimate D2E/DX2                !
 ! D167  D(32,34,35,64)        -66.9436         estimate D2E/DX2                !
 ! D168  D(32,34,35,65)        177.7533         estimate D2E/DX2                !
 ! D169  D(62,34,35,29)        175.1942         estimate D2E/DX2                !
 ! D170  D(62,34,35,64)         57.7549         estimate D2E/DX2                !
 ! D171  D(62,34,35,65)        -57.5481         estimate D2E/DX2                !
 ! D172  D(63,34,35,29)        -67.6407         estimate D2E/DX2                !
 ! D173  D(63,34,35,64)        174.92           estimate D2E/DX2                !
 ! D174  D(63,34,35,65)         59.617          estimate D2E/DX2                !
 --------------------------------------------------------------------------------
 Trust Radius=3.00D-01 FncErr=1.00D-07 GrdErr=1.00D-06
 Number of steps in this run= 400 maximum allowed number of steps= 408.
 GradGradGradGradGradGradGradGradGradGradGradGradGradGradGradGradGradGrad

 Leave Link  103 at Wed Apr  8 22:21:00 2020, MaxMem= 2684354560 cpu:       0.1
 (Enter /opt/g09gh/gaussian/g09/l202.exe)
 Stoichiometry    C29H31N7O
 Framework group  C1[X(C29H31N7O)]
 Deg. of freedom   198
 Full point group                 C1      NOp   1
 Largest Abelian subgroup         C1      NOp   1
 Largest concise Abelian subgroup C1      NOp   1
                         Standard orientation:                         
 ---------------------------------------------------------------------
 Center     Atomic      Atomic             Coordinates (Angstroms)
 Number     Number       Type             X           Y           Z
 ---------------------------------------------------------------------
      1          6           0        0.765366    4.822447   -1.226790
      2          6           0        2.038709    4.480777   -0.750658
      3          6           0        2.373581    3.127625   -0.542417
      4          6           0        1.360546    2.189818   -0.861075
      5          7           0        0.139005    2.493910   -1.318430
      6          6           0       -0.145141    3.793539   -1.492251
      7          6           0        3.713567    2.668753   -0.020191
      8          6           0        4.804449    3.503566    0.270986
      9          6           0        5.954319    2.858041    0.738596
     10          7           0        6.057934    1.545140    0.922850
     11          6           0        4.956800    0.820862    0.631400
     12          7           0        3.812955    1.338944    0.174566
     13          7           0        5.074173   -0.545122    0.841278
     14          6           0        4.201337   -1.667956    0.600738
     15          6           0        4.745733   -2.988544    0.591917
     16          6           0        3.859041   -4.048381    0.335767
     17          6           0        2.491761   -3.879511    0.089970
     18          6           0        1.970560   -2.582833    0.127658
     19          6           0        2.829364   -1.500913    0.376275
     20          7           0        0.606557   -2.230304   -0.096119
     21          6           0       -0.343949   -2.800186   -0.909080
     22          6           0       -1.630488   -2.031185   -1.134971
     23          6           0       -1.680264   -0.630327   -1.225369
     24          6           0       -2.901260    0.024175   -1.396510
     25          6           0       -4.109835   -0.690195   -1.496141
     26          6           0       -4.042356   -2.095380   -1.428521
     27          6           0       -2.824256   -2.759397   -1.265174
     28          6           0       -5.451387    0.035518   -1.610207
     29          7           0       -6.105281    0.516879   -0.378600
     30          6           0       -5.564289    1.715695    0.300694
     31          6           0       -4.554099    1.411949    1.436928
     32          7           0       -5.059386    0.465014    2.458511
     33          6           0       -5.917642    1.024450    3.509571
     34          6           0       -5.560390   -0.754502    1.778803
     35          6           0       -6.555717   -0.480353    0.620515
     36          8           0       -0.184965   -3.895549   -1.423620
     37          6           0        6.216857   -3.289804    0.821716
     38          1           0        0.484841    5.859079   -1.388364
     39          1           0        2.739810    5.284314   -0.539148
     40          1           0        1.558849    1.128621   -0.758113
     41          1           0       -1.143156    4.016271   -1.866184
     42          1           0        4.798962    4.578907    0.141317
     43          1           0        6.847429    3.433972    0.979355
     44          1           0        6.010654   -0.757770    1.150795
     45          1           0        4.242606   -5.067396    0.304787
     46          1           0        1.843696   -4.719208   -0.129952
     47          1           0        2.431024   -0.499612    0.396223
     48          1           0        0.320258   -1.379428    0.368415
     49          1           0       -0.761573   -0.052797   -1.158925
     50          1           0       -2.901594    1.113002   -1.443260
     51          1           0       -4.954315   -2.688826   -1.490851
     52          1           0       -2.780671   -3.844281   -1.209176
     53          1           0       -5.322725    0.907453   -2.267821
     54          1           0       -6.168610   -0.634346   -2.106131
     55          1           0       -5.195454    2.404361   -0.396839
     56          1           0       -6.786790    2.418946    1.013183
     57          1           0       -4.246058    2.711293    2.108444
     58          1           0       -3.568654    0.990677    1.018200
     59          1           0       -6.862125    1.392471    3.093234
     60          1           0       -5.406972    1.851958    4.014889
     61          1           0       -6.139255    0.258699    4.261858
     62          1           0       -6.010473   -1.463542    2.552747
     63          1           0       -4.369538   -1.436593    1.188137
     64          1           0       -7.844165    0.115566    1.314872
     65          1           0       -6.868639   -1.411118    0.121752
     66          1           0        6.532082   -2.997308    1.833261
     67          1           0        6.854627   -2.750449    0.107247
     68          1           0        6.458442   -4.356244    0.713530
 ---------------------------------------------------------------------
 Rotational constants (GHZ):      0.1329140      0.0557242      0.0443376
 Leave Link  202 at Wed Apr  8 22:21:00 2020, MaxMem= 2684354560 cpu:       0.0
 (Enter /opt/g09gh/gaussian/g09/l301.exe)
 Standard basis: 6-31G(d) (6D, 7F)
 Ernie: Thresh=  0.10000D-02 Tol=  0.10000D-05 Strict=F.
 There are   617 symmetry adapted basis functions of A   symmetry.
 Integral buffers will be    131072 words long.
 Raffenetti 2 integral format.
 Two-electron integral symmetry is turned on.
   617 basis functions,  1160 primitive gaussians,   617 cartesian basis functions
   131 alpha electrons      131 beta electrons
       nuclear repulsion energy      3750.0358480440 Hartrees.
 IExCor= 4639 DFT=T Ex+Corr=wB97XD ExCW=0 ScaHFX=  1.000000
 ScaDFX=  1.000000  1.000000  1.000000  1.000000 ScalE2=  1.000000  1.000000
 IRadAn=      0 IRanWt=     -1 IRanGd=            0 ICorTp=0
  HFx wShort=  0.000000 wLong=  0.200000 cFull=  0.222036 cShort=  0.000000 cLong=  0.777964
  DFx wShort=  0.000000 wLong=  0.200000 cFull=  0.000000 cShort=  0.000000 cLong=  1.000000
 NAtoms=   68 NActive=   68 NUniq=   68 SFac= 7.50D-01 NAtFMM=   80 NAOKFM=F Big=T
 R6Disp: Dispersion energy =        -0.0580847298 Hartrees.
 Nuclear repulsion after empirical dispersion term =     3749.9777633143 Hartrees.
 Leave Link  301 at Wed Apr  8 22:21:00 2020, MaxMem= 2684354560 cpu:       0.3
 (Enter /opt/g09gh/gaussian/g09/l302.exe)
 NPDir=0 NMtPBC=     1 NCelOv=     1 NCel=       1 NClECP=     1 NCelD=      1
         NCelK=      1 NCelE2=     1 NClLst=     1 CellRange=     0.0.
 One-electron integrals computed using PRISM.
 NBasis=   617 RedAO= T  NBF=   617
 NBsUse=   617 1.00D-06 NBFU=   617
 Precomputing XC quadrature grid using
 IXCGrd= 2 IRadAn=           0 IRanWt=          -1 IRanGd=           0 AccXCQ= 1.00D-10.
 NRdTot=    4378 NPtTot=      559524 NUsed=      591067 NTot=      591099
 NSgBfM=   605   605   605   605   605 NAtAll=    68    68.
 Leave Link  302 at Wed Apr  8 22:21:01 2020, MaxMem= 2684354560 cpu:       7.5
 (Enter /opt/g09gh/gaussian/g09/l303.exe)
 DipDrv:  MaxL=1.
 Leave Link  303 at Wed Apr  8 22:21:01 2020, MaxMem= 2684354560 cpu:       0.5
 (Enter /opt/g09gh/gaussian/g09/l401.exe)
 Harris functional with IExCor= 4639 diagonalized for initial guess.
 ExpMin= 1.61D-01 ExpMax= 5.48D+03 ExpMxC= 8.25D+02 IAcc=1 IRadAn=         1 AccDes= 0.00D+00
 HarFok:  IExCor= 4639 AccDes= 0.00D+00 IRadAn=         1 IDoV= 1
 ScaDFX=  1.000000  1.000000  1.000000  1.000000
 FoFCou: FMM=F IPFlag=           0 FMFlag=      100000 FMFlg1=           1
         NFxFlg=           0 DoJE=T BraDBF=F KetDBF=T FulRan=T
         Omega=  0.000000  0.000000  1.000000  0.000000  0.000000 ICntrl=     500 IOpCl=  0
         NMat0=    1 NMatS0=    1 NMatT0=    0 NMatD0=    1 NMtDS0=    0 NMtDT0=    0
         I1Cent=           4 NGrid=           0.
 Petite list used in FoFCou.
 Harris En= -1512.39792829988    
 Initial guess orbital symmetries:
       Occupied  (A) (A) (A) (A) (A) (A) (A) (A) (A) (A) (A) (A)
                 (A) (A) (A) (A) (A) (A) (A) (A) (A) (A) (A) (A)
                 (A) (A) (A) (A) (A) (A) (A) (A) (A) (A) (A) (A)
                 (A) (A) (A) (A) (A) (A) (A) (A) (A) (A) (A) (A)
                 (A) (A) (A) (A) (A) (A) (A) (A) (A) (A) (A) (A)
                 (A) (A) (A) (A) (A) (A) (A) (A) (A) (A) (A) (A)
                 (A) (A) (A) (A) (A) (A) (A) (A) (A) (A) (A) (A)
                 (A) (A) (A) (A) (A) (A) (A) (A) (A) (A) (A) (A)
                 (A) (A) (A) (A) (A) (A) (A) (A) (A) (A) (A) (A)
                 (A) (A) (A) (A) (A) (A) (A) (A) (A) (A) (A) (A)
                 (A) (A) (A) (A) (A) (A) (A) (A) (A) (A) (A)
       Virtual   (A) (A) (A) (A) (A) (A) (A) (A) (A) (A) (A) (A)
                 (A) (A) (A) (A) (A) (A) (A) (A) (A) (A) (A) (A)
                 (A) (A) (A) (A) (A) (A) (A) (A) (A) (A) (A) (A)
                 (A) (A) (A) (A) (A) (A) (A) (A) (A) (A) (A) (A)
                 (A) (A) (A) (A) (A) (A) (A) (A) (A) (A) (A) (A)
                 (A) (A) (A) (A) (A) (A) (A) (A) (A) (A) (A) (A)
                 (A) (A) (A) (A) (A) (A) (A) (A) (A) (A) (A) (A)
                 (A) (A) (A) (A) (A) (A) (A) (A) (A) (A) (A) (A)
                 (A) (A) (A) (A) (A) (A) (A) (A) (A) (A) (A) (A)
                 (A) (A) (A) (A) (A) (A) (A) (A) (A) (A) (A) (A)
                 (A) (A) (A) (A) (A) (A) (A) (A) (A) (A) (A) (A)
                 (A) (A) (A) (A) (A) (A) (A) (A) (A) (A) (A) (A)
                 (A) (A) (A) (A) (A) (A) (A) (A) (A) (A) (A) (A)
                 (A) (A) (A) (A) (A) (A) (A) (A) (A) (A) (A) (A)
                 (A) (A) (A) (A) (A) (A) (A) (A) (A) (A) (A) (A)
                 (A) (A) (A) (A) (A) (A) (A) (A) (A) (A) (A) (A)
                 (A) (A) (A) (A) (A) (A) (A) (A) (A) (A) (A) (A)
                 (A) (A) (A) (A) (A) (A) (A) (A) (A) (A) (A) (A)
                 (A) (A) (A) (A) (A) (A) (A) (A) (A) (A) (A) (A)
                 (A) (A) (A) (A) (A) (A) (A) (A) (A) (A) (A) (A)
                 (A) (A) (A) (A) (A) (A) (A) (A) (A) (A) (A) (A)
                 (A) (A) (A) (A) (A) (A) (A) (A) (A) (A) (A) (A)
                 (A) (A) (A) (A) (A) (A) (A) (A) (A) (A) (A) (A)
                 (A) (A) (A) (A) (A) (A) (A) (A) (A) (A) (A) (A)
                 (A) (A) (A) (A) (A) (A) (A) (A) (A) (A) (A) (A)
                 (A) (A) (A) (A) (A) (A) (A) (A) (A) (A) (A) (A)
                 (A) (A) (A) (A) (A) (A) (A) (A) (A) (A) (A) (A)
                 (A) (A) (A) (A) (A) (A) (A) (A) (A) (A) (A) (A)
                 (A) (A) (A) (A) (A) (A) (A) (A) (A) (A) (A) (A)
                 (A) (A) (A) (A) (A) (A) (A) (A) (A) (A) (A) (A)
                 (A) (A) (A) (A) (A) (A) (A) (A) (A) (A) (A) (A)
                 (A) (A) (A) (A) (A) (A) (A) (A) (A) (A) (A) (A)
                 (A) (A) (A) (A) (A) (A) (A) (A) (A) (A) (A) (A)
                 (A) (A) (A) (A) (A) (A) (A) (A) (A) (A) (A) (A)
                 (A) (A) (A) (A) (A) (A) (A) (A) (A) (A) (A) (A)
                 (A) (A) (A) (A) (A) (A) (A) (A) (A) (A) (A) (A)
                 (A) (A) (A) (A) (A) (A) (A) (A) (A) (A) (A) (A)
                 (A) (A) (A) (A) (A) (A) (A) (A) (A) (A) (A) (A)
                 (A) (A) (A) (A) (A) (A) (A) (A) (A) (A) (A) (A)
                 (A) (A) (A) (A) (A) (A) (A) (A) (A) (A) (A) (A)
                 (A) (A) (A) (A) (A) (A)
 The electronic state of the initial guess is 1-A.
 Leave Link  401 at Wed Apr  8 22:21:04 2020, MaxMem= 2684354560 cpu:      14.3
 (Enter /opt/g09gh/gaussian/g09/l502.exe)
 Closed shell SCF:
 Requested convergence on RMS density matrix=1.00D-08 within 128 cycles.
 Requested convergence on MAX density matrix=1.00D-06.
 Requested convergence on             energy=1.00D-06.
 No special actions if energy rises.
 Using DIIS extrapolation, IDIIS=  1040.
 Integral symmetry usage will be decided dynamically.
       590442 words used for storage of precomputed grid.
 IEnd=     1759022 IEndB=     1759022 NGot=  2684354560 MDV=  2682993485
 LenX=  2682993485 LenY=  2682612179
 Fock matrices will be formed incrementally for  20 cycles.
 Integral accuracy reduced to 1.0D-05 until final iterations.

 Cycle   1  Pass 0  IDiag  1:
 FoFJK:  IHMeth= 1 ICntrl=     0 DoSepK=T KAlg= 1 I1Cent= 0 FoldK=F
 FoFCou: FMM=T IPFlag=           0 FMFlag=      100000 FMFlg1=           1
         NFxFlg=           0 DoJE=T BraDBF=F KetDBF=F FulRan=T
         Omega=  0.000000  0.000000  1.000000  0.000000  0.000000 ICntrl=     500 IOpCl=  0
         NMat0=    1 NMatS0=    1 NMatT0=    0 NMatD0=    1 NMtDS0=    0 NMtDT0=    0
         I1Cent=           0 NGrid=           0.
 Symmetry not used in FoFCou.
 FMM levels:  10  Number of levels for PrismC:   9
 E= -1581.16402000238    
 DIIS: error= 6.03D-02 at cycle   1 NSaved=   1.
 NSaved= 1 IEnMin= 1 EnMin= -1581.16402000238     IErMin= 1 ErrMin= 6.03D-02
 ErrMax= 6.03D-02 EMaxC= 1.00D-01 BMatC= 1.45D+00 BMatP= 1.45D+00
 IDIUse=3 WtCom= 3.97D-01 WtEn= 6.03D-01
 Coeff-Com:  0.100D+01
 Coeff-En:   0.100D+01
 Coeff:      0.100D+01
 Gap=     0.267 Goal=   None    Shift=    0.000
 GapD=    0.267 DampG=1.000 DampE=0.500 DampFc=0.5000 IDamp=-1.
 Damping current iteration by 5.00D-01
 RMSDP=1.88D-03 MaxDP=8.94D-02              OVMax= 1.64D-01

 Cycle   2  Pass 0  IDiag  1:
 RMSU=  6.64D-04    CP:  1.00D+00
 FoFJK:  IHMeth= 1 ICntrl=     0 DoSepK=T KAlg= 1 I1Cent= 0 FoldK=F
 E= -1581.33916204243     Delta-E=       -0.175142040049 Rises=F Damp=T
 DIIS: error= 3.06D-02 at cycle   2 NSaved=   2.
 NSaved= 2 IEnMin= 2 EnMin= -1581.33916204243     IErMin= 2 ErrMin= 3.06D-02
 ErrMax= 3.06D-02 EMaxC= 1.00D-01 BMatC= 3.22D-01 BMatP= 1.45D+00
 IDIUse=3 WtCom= 6.94D-01 WtEn= 3.06D-01
 Coeff-Com: -0.653D+00 0.165D+01
 Coeff-En:   0.000D+00 0.100D+01
 Coeff:     -0.453D+00 0.145D+01
 Gap=     0.286 Goal=   None    Shift=    0.000
 RMSDP=8.75D-04 MaxDP=3.87D-02 DE=-1.75D-01 OVMax= 1.19D-01

 Cycle   3  Pass 0  IDiag  1:
 RMSU=  5.63D-04    CP:  1.00D+00  1.39D+00
 FoFJK:  IHMeth= 1 ICntrl=     0 DoSepK=T KAlg= 1 I1Cent= 0 FoldK=F
 E= -1581.46923344720     Delta-E=       -0.130071404773 Rises=F Damp=F
 DIIS: error= 7.77D-03 at cycle   3 NSaved=   3.
 NSaved= 3 IEnMin= 3 EnMin= -1581.46923344720     IErMin= 3 ErrMin= 7.77D-03
 ErrMax= 7.77D-03 EMaxC= 1.00D-01 BMatC= 6.15D-02 BMatP= 3.22D-01
 IDIUse=3 WtCom= 9.22D-01 WtEn= 7.77D-02
 Coeff-Com: -0.361D+00 0.747D+00 0.614D+00
 Coeff-En:   0.000D+00 0.000D+00 0.100D+01
 Coeff:     -0.333D+00 0.689D+00 0.644D+00
 Gap=     0.259 Goal=   None    Shift=    0.000
 RMSDP=4.69D-04 MaxDP=3.05D-02 DE=-1.30D-01 OVMax= 6.17D-02

 Cycle   4  Pass 0  IDiag  1:
 RMSU=  1.44D-04    CP:  1.00D+00  1.67D+00  5.92D-01
 FoFJK:  IHMeth= 1 ICntrl=     0 DoSepK=T KAlg= 1 I1Cent= 0 FoldK=F
 E= -1581.52345484894     Delta-E=       -0.054221401738 Rises=F Damp=F
 DIIS: error= 2.46D-03 at cycle   4 NSaved=   4.
 NSaved= 4 IEnMin= 4 EnMin= -1581.52345484894     IErMin= 4 ErrMin= 2.46D-03
 ErrMax= 2.46D-03 EMaxC= 1.00D-01 BMatC= 3.76D-03 BMatP= 6.15D-02
 IDIUse=3 WtCom= 9.75D-01 WtEn= 2.46D-02
 Coeff-Com: -0.161D+00 0.327D+00 0.346D+00 0.488D+00
 Coeff-En:   0.000D+00 0.000D+00 0.000D+00 0.100D+01
 Coeff:     -0.157D+00 0.319D+00 0.337D+00 0.500D+00
 Gap=     0.253 Goal=   None    Shift=    0.000
 RMSDP=1.04D-04 MaxDP=8.40D-03 DE=-5.42D-02 OVMax= 1.01D-02

 Cycle   5  Pass 0  IDiag  1:
 RMSU=  4.64D-05    CP:  1.00D+00  1.66D+00  6.61D-01  7.18D-01
 FoFJK:  IHMeth= 1 ICntrl=     0 DoSepK=T KAlg= 1 I1Cent= 0 FoldK=F
 E= -1581.52672773419     Delta-E=       -0.003272885257 Rises=F Damp=F
 DIIS: error= 4.12D-04 at cycle   5 NSaved=   5.
 NSaved= 5 IEnMin= 5 EnMin= -1581.52672773419     IErMin= 5 ErrMin= 4.12D-04
 ErrMax= 4.12D-04 EMaxC= 1.00D-01 BMatC= 9.05D-05 BMatP= 3.76D-03
 IDIUse=3 WtCom= 9.96D-01 WtEn= 4.12D-03
 Coeff-Com: -0.148D-01 0.292D-01 0.529D-01 0.159D+00 0.773D+00
 Coeff-En:   0.000D+00 0.000D+00 0.000D+00 0.000D+00 0.100D+01
 Coeff:     -0.147D-01 0.291D-01 0.527D-01 0.159D+00 0.774D+00
 Gap=     0.251 Goal=   None    Shift=    0.000
 RMSDP=2.45D-05 MaxDP=2.23D-03 DE=-3.27D-03 OVMax= 2.78D-03

 Cycle   6  Pass 0  IDiag  1:
 RMSU=  1.34D-05    CP:  1.00D+00  1.66D+00  6.68D-01  7.84D-01  9.91D-01
 FoFJK:  IHMeth= 1 ICntrl=     0 DoSepK=T KAlg= 1 I1Cent= 0 FoldK=F
 E= -1581.52681776396     Delta-E=       -0.000090029766 Rises=F Damp=F
 DIIS: error= 3.08D-04 at cycle   6 NSaved=   6.
 NSaved= 6 IEnMin= 6 EnMin= -1581.52681776396     IErMin= 6 ErrMin= 3.08D-04
 ErrMax= 3.08D-04 EMaxC= 1.00D-01 BMatC= 2.65D-05 BMatP= 9.05D-05
 IDIUse=3 WtCom= 9.97D-01 WtEn= 3.08D-03
 Coeff-Com:  0.229D-01-0.473D-01-0.363D-01-0.147D-01 0.391D+00 0.684D+00
 Coeff-En:   0.000D+00 0.000D+00 0.000D+00 0.000D+00 0.000D+00 0.100D+01
 Coeff:      0.228D-01-0.471D-01-0.362D-01-0.146D-01 0.390D+00 0.685D+00
 Gap=     0.252 Goal=   None    Shift=    0.000
 RMSDP=1.33D-05 MaxDP=8.37D-04 DE=-9.00D-05 OVMax= 1.66D-03

 Cycle   7  Pass 0  IDiag  1:
 RMSU=  5.87D-06    CP:  1.00D+00  1.66D+00  6.72D-01  8.11D-01  1.11D+00
                    CP:  9.00D-01
 FoFJK:  IHMeth= 1 ICntrl=     0 DoSepK=T KAlg= 1 I1Cent= 0 FoldK=F
 E= -1581.52684782204     Delta-E=       -0.000030058077 Rises=F Damp=F
 DIIS: error= 4.31D-05 at cycle   7 NSaved=   7.
 NSaved= 7 IEnMin= 7 EnMin= -1581.52684782204     IErMin= 7 ErrMin= 4.31D-05
 ErrMax= 4.31D-05 EMaxC= 1.00D-01 BMatC= 1.77D-06 BMatP= 2.65D-05
 IDIUse=1 WtCom= 1.00D+00 WtEn= 0.00D+00
 Coeff-Com:  0.969D-02-0.198D-01-0.175D-01-0.209D-01 0.645D-01 0.242D+00
 Coeff-Com:  0.742D+00
 Coeff:      0.969D-02-0.198D-01-0.175D-01-0.209D-01 0.645D-01 0.242D+00
 Coeff:      0.742D+00
 Gap=     0.252 Goal=   None    Shift=    0.000
 RMSDP=4.19D-06 MaxDP=1.93D-04 DE=-3.01D-05 OVMax= 6.62D-04

 Initial convergence to 1.0D-05 achieved.  Increase integral accuracy.
 Cycle   8  Pass 1  IDiag  1:
 FoFJK:  IHMeth= 1 ICntrl=     0 DoSepK=T KAlg= 1 I1Cent= 0 FoldK=F
 E= -1581.52458369653     Delta-E=        0.002264125505 Rises=F Damp=F
 DIIS: error= 9.77D-05 at cycle   1 NSaved=   1.
 NSaved= 1 IEnMin= 1 EnMin= -1581.52458369653     IErMin= 1 ErrMin= 9.77D-05
 ErrMax= 9.77D-05 EMaxC= 1.00D-01 BMatC= 1.37D-05 BMatP= 1.37D-05
 IDIUse=1 WtCom= 1.00D+00 WtEn= 0.00D+00
 Coeff-Com:  0.100D+01
 Coeff:      0.100D+01
 Gap=     0.252 Goal=   None    Shift=    0.000
 RMSDP=4.19D-06 MaxDP=1.93D-04 DE= 2.26D-03 OVMax= 4.14D-04

 Cycle   9  Pass 1  IDiag  1:
 RMSU=  1.85D-05    CP:  1.00D+00
 FoFJK:  IHMeth= 1 ICntrl=     0 DoSepK=T KAlg= 1 I1Cent= 0 FoldK=F
 E= -1581.52459469498     Delta-E=       -0.000010998449 Rises=F Damp=F
 DIIS: error= 2.92D-05 at cycle   2 NSaved=   2.
 NSaved= 2 IEnMin= 2 EnMin= -1581.52459469498     IErMin= 2 ErrMin= 2.92D-05
 ErrMax= 2.92D-05 EMaxC= 1.00D-01 BMatC= 7.64D-07 BMatP= 1.37D-05
 IDIUse=1 WtCom= 1.00D+00 WtEn= 0.00D+00
 Coeff-Com:  0.317D-01 0.968D+00
 Coeff:      0.317D-01 0.968D+00
 Gap=     0.252 Goal=   None    Shift=    0.000
 RMSDP=3.29D-06 MaxDP=2.03D-04 DE=-1.10D-05 OVMax= 3.44D-04

 Cycle  10  Pass 1  IDiag  1:
 RMSU=  2.14D-06    CP:  1.00D+00  1.05D+00
 FoFJK:  IHMeth= 1 ICntrl=     0 DoSepK=T KAlg= 1 I1Cent= 0 FoldK=F
 E= -1581.52459474178     Delta-E=       -0.000000046802 Rises=F Damp=F
 DIIS: error= 5.23D-05 at cycle   3 NSaved=   3.
 NSaved= 3 IEnMin= 3 EnMin= -1581.52459474178     IErMin= 2 ErrMin= 2.92D-05
 ErrMax= 5.23D-05 EMaxC= 1.00D-01 BMatC= 9.82D-07 BMatP= 7.64D-07
 IDIUse=1 WtCom= 1.00D+00 WtEn= 0.00D+00
 Coeff-Com: -0.378D-01 0.549D+00 0.489D+00
 Coeff:     -0.378D-01 0.549D+00 0.489D+00
 Gap=     0.252 Goal=   None    Shift=    0.000
 RMSDP=1.61D-06 MaxDP=1.42D-04 DE=-4.68D-08 OVMax= 1.60D-04

 Cycle  11  Pass 1  IDiag  1:
 RMSU=  6.67D-07    CP:  1.00D+00  1.06D+00  5.78D-01
 FoFJK:  IHMeth= 1 ICntrl=     0 DoSepK=T KAlg= 1 I1Cent= 0 FoldK=F
 E= -1581.52459558234     Delta-E=       -0.000000840554 Rises=F Damp=F
 DIIS: error= 6.33D-06 at cycle   4 NSaved=   4.
 NSaved= 4 IEnMin= 4 EnMin= -1581.52459558234     IErMin= 4 ErrMin= 6.33D-06
 ErrMax= 6.33D-06 EMaxC= 1.00D-01 BMatC= 2.15D-08 BMatP= 7.64D-07
 IDIUse=1 WtCom= 1.00D+00 WtEn= 0.00D+00
 Coeff-Com: -0.157D-01 0.114D+00 0.156D+00 0.746D+00
 Coeff:     -0.157D-01 0.114D+00 0.156D+00 0.746D+00
 Gap=     0.252 Goal=   None    Shift=    0.000
 RMSDP=3.62D-07 MaxDP=3.13D-05 DE=-8.41D-07 OVMax= 4.40D-05

 Cycle  12  Pass 1  IDiag  1:
 RMSU=  2.29D-07    CP:  1.00D+00  1.06D+00  6.26D-01  1.06D+00
 FoFJK:  IHMeth= 1 ICntrl=     0 DoSepK=T KAlg= 1 I1Cent= 0 FoldK=F
 E= -1581.52459560563     Delta-E=       -0.000000023289 Rises=F Damp=F
 DIIS: error= 3.47D-06 at cycle   5 NSaved=   5.
 NSaved= 5 IEnMin= 5 EnMin= -1581.52459560563     IErMin= 5 ErrMin= 3.47D-06
 ErrMax= 3.47D-06 EMaxC= 1.00D-01 BMatC= 5.52D-09 BMatP= 2.15D-08
 IDIUse=1 WtCom= 1.00D+00 WtEn= 0.00D+00
 Coeff-Com: -0.452D-03-0.393D-01-0.149D-01 0.332D+00 0.723D+00
 Coeff:     -0.452D-03-0.393D-01-0.149D-01 0.332D+00 0.723D+00
 Gap=     0.252 Goal=   None    Shift=    0.000
 RMSDP=1.99D-07 MaxDP=1.22D-05 DE=-2.33D-08 OVMax= 2.71D-05

 Cycle  13  Pass 1  IDiag  1:
 RMSU=  9.56D-08    CP:  1.00D+00  1.06D+00  6.43D-01  1.21D+00  9.37D-01
 FoFJK:  IHMeth= 1 ICntrl=     0 DoSepK=T KAlg= 1 I1Cent= 0 FoldK=F
 E= -1581.52459561370     Delta-E=       -0.000000008079 Rises=F Damp=F
 DIIS: error= 7.50D-07 at cycle   6 NSaved=   6.
 NSaved= 6 IEnMin= 6 EnMin= -1581.52459561370     IErMin= 6 ErrMin= 7.50D-07
 ErrMax= 7.50D-07 EMaxC= 1.00D-01 BMatC= 5.51D-10 BMatP= 5.52D-09
 IDIUse=1 WtCom= 1.00D+00 WtEn= 0.00D+00
 Coeff-Com:  0.180D-02-0.252D-01-0.257D-01 0.388D-03 0.223D+00 0.826D+00
 Coeff:      0.180D-02-0.252D-01-0.257D-01 0.388D-03 0.223D+00 0.826D+00
 Gap=     0.252 Goal=   None    Shift=    0.000
 RMSDP=9.25D-08 MaxDP=4.66D-06 DE=-8.08D-09 OVMax= 1.95D-05

 Cycle  14  Pass 1  IDiag  1:
 RMSU=  3.68D-08    CP:  1.00D+00  1.06D+00  6.46D-01  1.26D+00  1.10D+00
                    CP:  1.12D+00
 FoFJK:  IHMeth= 1 ICntrl=     0 DoSepK=T KAlg= 1 I1Cent= 0 FoldK=F
 E= -1581.52459561507     Delta-E=       -0.000000001365 Rises=F Damp=F
 DIIS: error= 6.13D-07 at cycle   7 NSaved=   7.
 NSaved= 7 IEnMin= 7 EnMin= -1581.52459561507     IErMin= 7 ErrMin= 6.13D-07
 ErrMax= 6.13D-07 EMaxC= 1.00D-01 BMatC= 1.57D-10 BMatP= 5.51D-10
 IDIUse=1 WtCom= 1.00D+00 WtEn= 0.00D+00
 Coeff-Com:  0.830D-03-0.294D-02-0.934D-02-0.726D-01-0.489D-01 0.371D+00
 Coeff-Com:  0.762D+00
 Coeff:      0.830D-03-0.294D-02-0.934D-02-0.726D-01-0.489D-01 0.371D+00
 Coeff:      0.762D+00
 Gap=     0.252 Goal=   None    Shift=    0.000
 RMSDP=4.79D-08 MaxDP=2.03D-06 DE=-1.37D-09 OVMax= 9.22D-06

 Cycle  15  Pass 1  IDiag  1:
 RMSU=  1.78D-08    CP:  1.00D+00  1.06D+00  6.50D-01  1.29D+00  1.15D+00
                    CP:  1.33D+00  1.01D+00
 FoFJK:  IHMeth= 1 ICntrl=     0 DoSepK=T KAlg= 1 I1Cent= 0 FoldK=F
 E= -1581.52459561552     Delta-E=       -0.000000000449 Rises=F Damp=F
 DIIS: error= 1.60D-07 at cycle   8 NSaved=   8.
 NSaved= 8 IEnMin= 8 EnMin= -1581.52459561552     IErMin= 8 ErrMin= 1.60D-07
 ErrMax= 1.60D-07 EMaxC= 1.00D-01 BMatC= 1.91D-11 BMatP= 1.57D-10
 IDIUse=1 WtCom= 1.00D+00 WtEn= 0.00D+00
 Coeff-Com: -0.460D-04 0.362D-02 0.152D-02-0.229D-01-0.523D-01-0.234D-01
 Coeff-Com:  0.256D+00 0.838D+00
 Coeff:     -0.460D-04 0.362D-02 0.152D-02-0.229D-01-0.523D-01-0.234D-01
 Coeff:      0.256D+00 0.838D+00
 Gap=     0.252 Goal=   None    Shift=    0.000
 RMSDP=1.90D-08 MaxDP=9.70D-07 DE=-4.49D-10 OVMax= 4.88D-06

 Cycle  16  Pass 1  IDiag  1:
 RMSU=  6.53D-09    CP:  1.00D+00  1.06D+00  6.50D-01  1.29D+00  1.17D+00
                    CP:  1.40D+00  1.20D+00  1.08D+00
 FoFJK:  IHMeth= 1 ICntrl=     0 DoSepK=T KAlg= 1 I1Cent= 0 FoldK=F
 E= -1581.52459561550     Delta-E=        0.000000000016 Rises=F Damp=F
 DIIS: error= 6.44D-08 at cycle   9 NSaved=   9.
 NSaved= 9 IEnMin= 8 EnMin= -1581.52459561552     IErMin= 9 ErrMin= 6.44D-08
 ErrMax= 6.44D-08 EMaxC= 1.00D-01 BMatC= 3.65D-12 BMatP= 1.91D-11
 IDIUse=1 WtCom= 1.00D+00 WtEn= 0.00D+00
 Coeff-Com: -0.167D-03 0.210D-02 0.237D-02 0.288D-02-0.141D-01-0.781D-01
 Coeff-Com: -0.304D-01 0.318D+00 0.798D+00
 Coeff:     -0.167D-03 0.210D-02 0.237D-02 0.288D-02-0.141D-01-0.781D-01
 Coeff:     -0.304D-01 0.318D+00 0.798D+00
 Gap=     0.252 Goal=   None    Shift=    0.000
 RMSDP=8.02D-09 MaxDP=4.56D-07 DE= 1.64D-11 OVMax= 2.05D-06

 SCF Done:  E(RwB97XD) =  -1581.52459562     A.U. after   16 cycles
             Convg  =    0.8022D-08             -V/T =  2.0109
 KE= 1.564430254632D+03 PE=-1.116850702896D+04 EE= 4.272574415402D+03
 Leave Link  502 at Wed Apr  8 22:23:41 2020, MaxMem= 2684354560 cpu:     942.2
 (Enter /opt/g09gh/gaussian/g09/l601.exe)
 Copying SCF densities to generalized density rwf, IOpCl= 0 IROHF=0.

 **********************************************************************

            Population analysis using the SCF density.

 **********************************************************************

 Orbital symmetries:
       Occupied  (A) (A) (A) (A) (A) (A) (A) (A) (A) (A) (A) (A)
                 (A) (A) (A) (A) (A) (A) (A) (A) (A) (A) (A) (A)
                 (A) (A) (A) (A) (A) (A) (A) (A) (A) (A) (A) (A)
                 (A) (A) (A) (A) (A) (A) (A) (A) (A) (A) (A) (A)
                 (A) (A) (A) (A) (A) (A) (A) (A) (A) (A) (A) (A)
                 (A) (A) (A) (A) (A) (A) (A) (A) (A) (A) (A) (A)
                 (A) (A) (A) (A) (A) (A) (A) (A) (A) (A) (A) (A)
                 (A) (A) (A) (A) (A) (A) (A) (A) (A) (A) (A) (A)
                 (A) (A) (A) (A) (A) (A) (A) (A) (A) (A) (A) (A)
                 (A) (A) (A) (A) (A) (A) (A) (A) (A) (A) (A) (A)
                 (A) (A) (A) (A) (A) (A) (A) (A) (A) (A) (A)
       Virtual   (A) (A) (A) (A) (A) (A) (A) (A) (A) (A) (A) (A)
                 (A) (A) (A) (A) (A) (A) (A) (A) (A) (A) (A) (A)
                 (A) (A) (A) (A) (A) (A) (A) (A) (A) (A) (A) (A)
                 (A) (A) (A) (A) (A) (A) (A) (A) (A) (A) (A) (A)
                 (A) (A) (A) (A) (A) (A) (A) (A) (A) (A) (A) (A)
                 (A) (A) (A) (A) (A) (A) (A) (A) (A) (A) (A) (A)
                 (A) (A) (A) (A) (A) (A) (A) (A) (A) (A) (A) (A)
                 (A) (A) (A) (A) (A) (A) (A) (A) (A) (A) (A) (A)
                 (A) (A) (A) (A) (A) (A) (A) (A) (A) (A) (A) (A)
                 (A) (A) (A) (A) (A) (A) (A) (A) (A) (A) (A) (A)
                 (A) (A) (A) (A) (A) (A) (A) (A) (A) (A) (A) (A)
                 (A) (A) (A) (A) (A) (A) (A) (A) (A) (A) (A) (A)
                 (A) (A) (A) (A) (A) (A) (A) (A) (A) (A) (A) (A)
                 (A) (A) (A) (A) (A) (A) (A) (A) (A) (A) (A) (A)
                 (A) (A) (A) (A) (A) (A) (A) (A) (A) (A) (A) (A)
                 (A) (A) (A) (A) (A) (A) (A) (A) (A) (A) (A) (A)
                 (A) (A) (A) (A) (A) (A) (A) (A) (A) (A) (A) (A)
                 (A) (A) (A) (A) (A) (A) (A) (A) (A) (A) (A) (A)
                 (A) (A) (A) (A) (A) (A) (A) (A) (A) (A) (A) (A)
                 (A) (A) (A) (A) (A) (A) (A) (A) (A) (A) (A) (A)
                 (A) (A) (A) (A) (A) (A) (A) (A) (A) (A) (A) (A)
                 (A) (A) (A) (A) (A) (A) (A) (A) (A) (A) (A) (A)
                 (A) (A) (A) (A) (A) (A) (A) (A) (A) (A) (A) (A)
                 (A) (A) (A) (A) (A) (A) (A) (A) (A) (A) (A) (A)
                 (A) (A) (A) (A) (A) (A) (A) (A) (A) (A) (A) (A)
                 (A) (A) (A) (A) (A) (A) (A) (A) (A) (A) (A) (A)
                 (A) (A) (A) (A) (A) (A) (A) (A) (A) (A) (A) (A)
                 (A) (A) (A) (A) (A) (A) (A) (A) (A) (A) (A) (A)
                 (A) (A) (A) (A) (A) (A) (A) (A) (A) (A) (A) (A)
                 (A) (A) (A) (A) (A) (A) (A) (A) (A) (A) (A) (A)
                 (A) (A) (A) (A) (A) (A) (A) (A) (A) (A) (A) (A)
                 (A) (A) (A) (A) (A) (A) (A) (A) (A) (A) (A) (A)
                 (A) (A) (A) (A) (A) (A) (A) (A) (A) (A) (A) (A)
                 (A) (A) (A) (A) (A) (A) (A) (A) (A) (A) (A) (A)
                 (A) (A) (A) (A) (A) (A) (A) (A) (A) (A) (A) (A)
                 (A) (A) (A) (A) (A) (A) (A) (A) (A) (A) (A) (A)
                 (A) (A) (A) (A) (A) (A) (A) (A) (A) (A) (A) (A)
                 (A) (A) (A) (A) (A) (A) (A) (A) (A) (A) (A) (A)
                 (A) (A) (A) (A) (A) (A) (A) (A) (A) (A) (A) (A)
                 (A) (A) (A) (A) (A) (A) (A) (A) (A) (A) (A) (A)
                 (A) (A) (A) (A) (A) (A)
 The electronic state is 1-A.
 Alpha  occ. eigenvalues --  -19.23208 -14.49549 -14.48650 -14.46789 -14.46483
 Alpha  occ. eigenvalues --  -14.46213 -14.45897 -14.44509 -10.42165 -10.40414
 Alpha  occ. eigenvalues --  -10.38328 -10.36491 -10.36296 -10.35869 -10.35769
 Alpha  occ. eigenvalues --  -10.35766 -10.35654 -10.35425 -10.35215 -10.34804
 Alpha  occ. eigenvalues --  -10.34439 -10.34284 -10.34127 -10.33017 -10.32295
 Alpha  occ. eigenvalues --  -10.31753 -10.31669 -10.31621 -10.31068 -10.30907
 Alpha  occ. eigenvalues --  -10.30850 -10.30812 -10.30801 -10.30470 -10.30295
 Alpha  occ. eigenvalues --  -10.29784 -10.29400  -1.13393  -1.11635  -1.05747
 Alpha  occ. eigenvalues --   -1.03753  -1.03357  -1.02988  -1.00185  -0.99376
 Alpha  occ. eigenvalues --   -0.95942  -0.94612  -0.92582  -0.89472  -0.87978
 Alpha  occ. eigenvalues --   -0.87224  -0.86423  -0.84765  -0.83958  -0.83654
 Alpha  occ. eigenvalues --   -0.81832  -0.79495  -0.78012  -0.77799  -0.76072
 Alpha  occ. eigenvalues --   -0.73506  -0.72802  -0.72450  -0.71746  -0.70591
 Alpha  occ. eigenvalues --   -0.70271  -0.69667  -0.68128  -0.66392  -0.64724
 Alpha  occ. eigenvalues --   -0.63397  -0.62338  -0.61828  -0.60970  -0.60051
 Alpha  occ. eigenvalues --   -0.58699  -0.58401  -0.57136  -0.56458  -0.56225
 Alpha  occ. eigenvalues --   -0.56009  -0.55434  -0.54865  -0.54426  -0.53923
 Alpha  occ. eigenvalues --   -0.53599  -0.52589  -0.52290  -0.51951  -0.51928
 Alpha  occ. eigenvalues --   -0.51407  -0.51322  -0.50974  -0.50789  -0.50364
 Alpha  occ. eigenvalues --   -0.50249  -0.49972  -0.49784  -0.49327  -0.48220
 Alpha  occ. eigenvalues --   -0.47548  -0.47043  -0.46440  -0.46171  -0.46067
 Alpha  occ. eigenvalues --   -0.45327  -0.44690  -0.44221  -0.43980  -0.43616
 Alpha  occ. eigenvalues --   -0.43477  -0.42992  -0.42059  -0.41474  -0.40211
 Alpha  occ. eigenvalues --   -0.40201  -0.37924  -0.37725  -0.37095  -0.35804
 Alpha  occ. eigenvalues --   -0.35596  -0.35224  -0.33796  -0.33654  -0.33372
 Alpha  occ. eigenvalues --   -0.32875  -0.32001  -0.31044  -0.29698  -0.27704
 Alpha  occ. eigenvalues --   -0.25973
 Alpha virt. eigenvalues --   -0.00737   0.02740   0.03200   0.04462   0.05977
 Alpha virt. eigenvalues --    0.07063   0.07371   0.08029   0.09920   0.10196
 Alpha virt. eigenvalues --    0.12423   0.13470   0.14155   0.14465   0.15899
 Alpha virt. eigenvalues --    0.16559   0.17099   0.18424   0.18775   0.19364
 Alpha virt. eigenvalues --    0.19692   0.19938   0.20492   0.21468   0.21852
 Alpha virt. eigenvalues --    0.22327   0.22755   0.22976   0.23470   0.23972
 Alpha virt. eigenvalues --    0.24208   0.24326   0.24679   0.25006   0.25167
 Alpha virt. eigenvalues --    0.25340   0.26183   0.26409   0.26464   0.27094
 Alpha virt. eigenvalues --    0.27694   0.27911   0.28126   0.28547   0.28689
 Alpha virt. eigenvalues --    0.29275   0.29409   0.29831   0.30598   0.31231
 Alpha virt. eigenvalues --    0.31776   0.32070   0.32464   0.33003   0.33672
 Alpha virt. eigenvalues --    0.33985   0.34892   0.36022   0.36580   0.37615
 Alpha virt. eigenvalues --    0.38032   0.38383   0.39033   0.39534   0.39828
 Alpha virt. eigenvalues --    0.40047   0.40519   0.41074   0.41543   0.41886
 Alpha virt. eigenvalues --    0.43718   0.45215   0.45433   0.46300   0.46818
 Alpha virt. eigenvalues --    0.47911   0.49211   0.51912   0.53163   0.53415
 Alpha virt. eigenvalues --    0.55198   0.56195   0.56820   0.57247   0.58295
 Alpha virt. eigenvalues --    0.58462   0.59152   0.59419   0.59667   0.59905
 Alpha virt. eigenvalues --    0.60290   0.60854   0.61522   0.61672   0.62044
 Alpha virt. eigenvalues --    0.62212   0.62826   0.63104   0.63752   0.64154
 Alpha virt. eigenvalues --    0.64455   0.64753   0.64869   0.65097   0.65462
 Alpha virt. eigenvalues --    0.65531   0.65672   0.65904   0.66565   0.66630
 Alpha virt. eigenvalues --    0.66777   0.67258   0.67550   0.68040   0.68560
 Alpha virt. eigenvalues --    0.69254   0.69379   0.69566   0.69874   0.70147
 Alpha virt. eigenvalues --    0.70706   0.70889   0.71072   0.71493   0.72052
 Alpha virt. eigenvalues --    0.72288   0.72549   0.72944   0.73589   0.73826
 Alpha virt. eigenvalues --    0.74075   0.75201   0.75529   0.75976   0.76415
 Alpha virt. eigenvalues --    0.77181   0.77641   0.78116   0.79301   0.80032
 Alpha virt. eigenvalues --    0.80831   0.81322   0.81667   0.82085   0.82562
 Alpha virt. eigenvalues --    0.83297   0.83742   0.84069   0.85434   0.85890
 Alpha virt. eigenvalues --    0.86144   0.86726   0.87580   0.87642   0.88000
 Alpha virt. eigenvalues --    0.88705   0.89365   0.89667   0.90376   0.90889
 Alpha virt. eigenvalues --    0.91118   0.91577   0.92055   0.92710   0.92900
 Alpha virt. eigenvalues --    0.93326   0.93483   0.93669   0.93901   0.94422
 Alpha virt. eigenvalues --    0.94781   0.94915   0.95039   0.95556   0.96143
 Alpha virt. eigenvalues --    0.97057   0.97473   0.97698   0.98181   0.98755
 Alpha virt. eigenvalues --    0.98927   0.99278   0.99760   0.99854   1.00677
 Alpha virt. eigenvalues --    1.01373   1.01921   1.02382   1.02417   1.02850
 Alpha virt. eigenvalues --    1.04417   1.04785   1.05118   1.05174   1.06106
 Alpha virt. eigenvalues --    1.06477   1.07057   1.07432   1.07919   1.09132
[...]
                 (A) (A) (A) (A) (A) (A) (A) (A) (A) (A) (A) (A)
                 (A) (A) (A) (A) (A) (A) (A) (A) (A) (A) (A) (A)
                 (A) (A) (A) (A) (A) (A) (A) (A) (A) (A) (A) (A)
                 (A) (A) (A) (A) (A) (A) (A) (A) (A) (A) (A) (A)
                 (A) (A) (A) (A) (A) (A) (A) (A) (A) (A) (A) (A)
                 (A) (A) (A) (A) (A) (A) (A) (A) (A) (A) (A) (A)
                 (A) (A) (A) (A) (A) (A) (A) (A) (A) (A) (A) (A)
                 (A) (A) (A) (A) (A) (A) (A) (A) (A) (A) (A) (A)
                 (A) (A) (A) (A) (A) (A) (A) (A) (A) (A) (A) (A)
                 (A) (A) (A) (A) (A) (A) (A) (A) (A) (A) (A) (A)
                 (A) (A) (A) (A) (A) (A) (A) (A) (A) (A) (A) (A)
                 (A) (A) (A) (A) (A) (A) (A) (A) (A) (A) (A) (A)
                 (A) (A) (A) (A) (A) (A) (A) (A) (A) (A) (A) (A)
                 (A) (A) (A) (A) (A) (A) (A) (A) (A) (A) (A) (A)
                 (A) (A) (A) (A) (A) (A) (A) (A) (A) (A) (A) (A)
                 (A) (A) (A) (A) (A) (A) (A) (A) (A) (A) (A) (A)
                 (A) (A) (A) (A) (A) (A) (A) (A) (A) (A) (A) (A)
                 (A) (A) (A) (A) (A) (A) (A) (A) (A) (A) (A) (A)
                 (A) (A) (A) (A) (A) (A) (A) (A) (A) (A) (A) (A)
                 (A) (A) (A) (A) (A) (A) (A) (A) (A) (A) (A) (A)
                 (A) (A) (A) (A) (A) (A) (A) (A) (A) (A) (A) (A)
                 (A) (A) (A) (A) (A) (A) (A) (A) (A) (A) (A) (A)
                 (A) (A) (A) (A) (A) (A) (A) (A) (A) (A) (A) (A)
                 (A) (A) (A) (A) (A) (A) (A) (A) (A) (A) (A) (A)
                 (A) (A) (A) (A) (A) (A) (A) (A) (A) (A) (A) (A)
                 (A) (A) (A) (A) (A) (A) (A) (A) (A) (A) (A) (A)
                 (A) (A) (A) (A) (A) (A) (A) (A) (A) (A) (A) (A)
                 (A) (A) (A) (A) (A) (A) (A) (A) (A) (A) (A) (A)
                 (A) (A) (A) (A) (A) (A) (A) (A) (A) (A) (A) (A)
                 (A) (A) (A) (A) (A) (A) (A) (A) (A) (A) (A) (A)
                 (A) (A) (A) (A) (A) (A) (A) (A) (A) (A) (A) (A)
                 (A) (A) (A) (A) (A) (A) (A) (A) (A) (A) (A) (A)
                 (A) (A) (A) (A) (A) (A) (A) (A) (A) (A) (A) (A)
                 (A) (A) (A) (A) (A) (A)
 The electronic state is 1-A.
 Alpha  occ. eigenvalues --  -19.23412 -14.49282 -14.48321 -14.46751 -14.46096
 Alpha  occ. eigenvalues --  -14.45764 -14.43617 -14.43135 -10.41778 -10.40081
 Alpha  occ. eigenvalues --  -10.37614 -10.36338 -10.35324 -10.35084 -10.34623
 Alpha  occ. eigenvalues --  -10.34135 -10.34016 -10.33622 -10.32863 -10.32367
 Alpha  occ. eigenvalues --  -10.31860 -10.31492 -10.31179 -10.30936 -10.30707
 Alpha  occ. eigenvalues --  -10.30688 -10.30677 -10.30586 -10.30534 -10.30403
 Alpha  occ. eigenvalues --  -10.30377 -10.30220 -10.30020 -10.29974 -10.29575
 Alpha  occ. eigenvalues --  -10.28740 -10.28405  -1.13444  -1.12295  -1.06322
 Alpha  occ. eigenvalues --   -1.04565  -1.03828  -1.03634  -1.00715  -0.99557
 Alpha  occ. eigenvalues --   -0.96086  -0.94671  -0.93098  -0.89777  -0.88124
 Alpha  occ. eigenvalues --   -0.87388  -0.86228  -0.85399  -0.84542  -0.83783
 Alpha  occ. eigenvalues --   -0.81888  -0.79581  -0.78269  -0.77798  -0.76320
 Alpha  occ. eigenvalues --   -0.73881  -0.73300  -0.73025  -0.72621  -0.70870
 Alpha  occ. eigenvalues --   -0.70314  -0.69615  -0.68039  -0.66413  -0.65150
 Alpha  occ. eigenvalues --   -0.63656  -0.63408  -0.62228  -0.61762  -0.60211
 Alpha  occ. eigenvalues --   -0.58848  -0.58045  -0.57570  -0.56611  -0.56100
 Alpha  occ. eigenvalues --   -0.55817  -0.55236  -0.55134  -0.54965  -0.54255
 Alpha  occ. eigenvalues --   -0.53867  -0.53239  -0.53154  -0.52612  -0.52174
 Alpha  occ. eigenvalues --   -0.51912  -0.51509  -0.51370  -0.50999  -0.50575
 Alpha  occ. eigenvalues --   -0.50365  -0.50116  -0.49974  -0.49497  -0.48335
 Alpha  occ. eigenvalues --   -0.47217  -0.46906  -0.46619  -0.46319  -0.46210
 Alpha  occ. eigenvalues --   -0.45762  -0.45235  -0.44798  -0.44045  -0.43932
 Alpha  occ. eigenvalues --   -0.43328  -0.43016  -0.42141  -0.41766  -0.41439
 Alpha  occ. eigenvalues --   -0.40964  -0.40776  -0.39912  -0.38187  -0.37592
 Alpha  occ. eigenvalues --   -0.35821  -0.35293  -0.34002  -0.33447  -0.33373
 Alpha  occ. eigenvalues --   -0.32818  -0.31904  -0.30772  -0.29115  -0.27080
 Alpha  occ. eigenvalues --   -0.24996
 Alpha virt. eigenvalues --   -0.00291   0.02872   0.03586   0.04480   0.06433
 Alpha virt. eigenvalues --    0.07258   0.08203   0.10370   0.13887   0.14813
 Alpha virt. eigenvalues --    0.15729   0.16386   0.17252   0.17441   0.18251
 Alpha virt. eigenvalues --    0.19198   0.19759   0.20073   0.20198   0.20629
 Alpha virt. eigenvalues --    0.21233   0.21900   0.22614   0.22767   0.23135
 Alpha virt. eigenvalues --    0.23343   0.23537   0.24192   0.24361   0.24838
 Alpha virt. eigenvalues --    0.25118   0.25124   0.26082   0.26488   0.26550
 Alpha virt. eigenvalues --    0.27065   0.27431   0.27680   0.27996   0.28429
 Alpha virt. eigenvalues --    0.28563   0.28865   0.29436   0.29708   0.30282
 Alpha virt. eigenvalues --    0.31014   0.31165   0.31763   0.32124   0.32246
 Alpha virt. eigenvalues --    0.32892   0.33213   0.33675   0.33955   0.34427
 Alpha virt. eigenvalues --    0.35002   0.36037   0.36537   0.37754   0.38123
 Alpha virt. eigenvalues --    0.38651   0.38809   0.39299   0.40137   0.40738
 Alpha virt. eigenvalues --    0.41233   0.41465   0.42063   0.42207   0.42712
 Alpha virt. eigenvalues --    0.43814   0.45042   0.46208   0.47057   0.47330
 Alpha virt. eigenvalues --    0.48355   0.49428   0.51936   0.53014   0.54230
 Alpha virt. eigenvalues --    0.55739   0.56536   0.57255   0.57911   0.58308
 Alpha virt. eigenvalues --    0.59047   0.59372   0.59611   0.60510   0.60896
 Alpha virt. eigenvalues --    0.61370   0.61485   0.61680   0.62222   0.62697
 Alpha virt. eigenvalues --    0.63200   0.63355   0.63863   0.64090   0.64889
 Alpha virt. eigenvalues --    0.64932   0.65337   0.65508   0.65529   0.65821
 Alpha virt. eigenvalues --    0.66022   0.66272   0.66897   0.66982   0.67472
 Alpha virt. eigenvalues --    0.67615   0.67787   0.68307   0.68614   0.69045
 Alpha virt. eigenvalues --    0.69766   0.70017   0.70551   0.71042   0.71240
 Alpha virt. eigenvalues --    0.71762   0.72093   0.72267   0.72584   0.73055
 Alpha virt. eigenvalues --    0.73334   0.73461   0.74255   0.75226   0.75350
 Alpha virt. eigenvalues --    0.75594   0.75946   0.76255   0.76931   0.77677
 Alpha virt. eigenvalues --    0.77802   0.79111   0.80381   0.80454   0.81763
 Alpha virt. eigenvalues --    0.81972   0.82305   0.83130   0.83262   0.84194
 Alpha virt. eigenvalues --    0.84652   0.85715   0.86629   0.86889   0.87422
 Alpha virt. eigenvalues --    0.88279   0.89046   0.89675   0.90199   0.90739
 Alpha virt. eigenvalues --    0.90925   0.91156   0.91468   0.92208   0.92294
 Alpha virt. eigenvalues --    0.92392   0.92543   0.93563   0.93885   0.94046
 Alpha virt. eigenvalues --    0.94341   0.94529   0.94676   0.95250   0.95603
 Alpha virt. eigenvalues --    0.95949   0.96539   0.97597   0.98196   0.98358
 Alpha virt. eigenvalues --    0.98516   0.99008   0.99059   0.99702   0.99824
 Alpha virt. eigenvalues --    1.00450   1.00625   1.01372   1.01926   1.02021
 Alpha virt. eigenvalues --    1.02500   1.02651   1.03219   1.03673   1.04408
 Alpha virt. eigenvalues --    1.05619   1.05879   1.06645   1.06765   1.07379
 Alpha virt. eigenvalues --    1.07616   1.08218   1.08748   1.08901   1.09055
 Alpha virt. eigenvalues --    1.10208   1.10698   1.11026   1.11713   1.12087
 Alpha virt. eigenvalues --    1.12635   1.13094   1.13793   1.14267   1.15632
 Alpha virt. eigenvalues --    1.16460   1.16987   1.17695   1.18299   1.19273
 Alpha virt. eigenvalues --    1.20082   1.21180   1.21738   1.23133   1.23416
 Alpha virt. eigenvalues --    1.24745   1.25513   1.26098   1.26961   1.27420
 Alpha virt. eigenvalues --    1.29014   1.29352   1.29701   1.30410   1.30872
 Alpha virt. eigenvalues --    1.31924   1.33068   1.33760   1.33901   1.34762
 Alpha virt. eigenvalues --    1.35487   1.36944   1.37300   1.37889   1.38644
 Alpha virt. eigenvalues --    1.39295   1.42345   1.43367   1.43715   1.44584
 Alpha virt. eigenvalues --    1.46483   1.47300   1.47751   1.48440   1.48548
 Alpha virt. eigenvalues --    1.48647   1.49181   1.49464   1.50258   1.51632
 Alpha virt. eigenvalues --    1.51970   1.52736   1.53661   1.54083   1.54531
 Alpha virt. eigenvalues --    1.55184   1.55561   1.56281   1.56872   1.56982
 Alpha virt. eigenvalues --    1.57522   1.57807   1.58457   1.59180   1.59302
 Alpha virt. eigenvalues --    1.59658   1.60104   1.60818   1.61983   1.62520
 Alpha virt. eigenvalues --    1.63915   1.64942   1.65123   1.65691   1.67669
 Alpha virt. eigenvalues --    1.68407   1.69749   1.72013   1.75170   1.76229
 Alpha virt. eigenvalues --    1.78748   1.80597   1.81507   1.82525   1.84275
 Alpha virt. eigenvalues --    1.84718   1.85643   1.86429   1.86959   1.87887
 Alpha virt. eigenvalues --    1.87958   1.88947   1.89940   1.90637   1.90825
 Alpha virt. eigenvalues --    1.91213   1.92461   1.92804   1.93433   1.94263
 Alpha virt. eigenvalues --    1.94426   1.94936   1.95570   1.96612   1.97939
 Alpha virt. eigenvalues --    1.98716   1.99602   2.00121   2.00240   2.01196
 Alpha virt. eigenvalues --    2.01310   2.01499   2.01783   2.02572   2.03677
 Alpha virt. eigenvalues --    2.05536   2.06499   2.06637   2.07323   2.08210
 Alpha virt. eigenvalues --    2.08611   2.08851   2.09734   2.10837   2.11393
 Alpha virt. eigenvalues --    2.12239   2.12579   2.13554   2.14167   2.14816
 Alpha virt. eigenvalues --    2.15877   2.16188   2.17687   2.19549   2.20432
 Alpha virt. eigenvalues --    2.21103   2.21283   2.21688   2.22412   2.22785
 Alpha virt. eigenvalues --    2.22976   2.23632   2.23942   2.24603   2.25134
 Alpha virt. eigenvalues --    2.25944   2.26147   2.26369   2.26888   2.28050
 Alpha virt. eigenvalues --    2.28545   2.29387   2.29951   2.31590   2.32594
 Alpha virt. eigenvalues --    2.34100   2.34927   2.36376   2.37132   2.37172
 Alpha virt. eigenvalues --    2.37914   2.38059   2.38213   2.39475   2.39887
 Alpha virt. eigenvalues --    2.40252   2.40811   2.42121   2.42800   2.43236
 Alpha virt. eigenvalues --    2.43391   2.44333   2.44772   2.44890   2.46221
 Alpha virt. eigenvalues --    2.46451   2.47884   2.48104   2.49413   2.49810
 Alpha virt. eigenvalues --    2.50306   2.50932   2.52049   2.53871   2.56000
 Alpha virt. eigenvalues --    2.58454   2.59876   2.60855   2.62124   2.63399
 Alpha virt. eigenvalues --    2.64709   2.65080   2.65954   2.66089   2.67627
 Alpha virt. eigenvalues --    2.68704   2.70008   2.71801   2.72055   2.72667
 Alpha virt. eigenvalues --    2.74011   2.74385   2.75463   2.76174   2.76865
 Alpha virt. eigenvalues --    2.77169   2.78480   2.78949   2.80938   2.81729
 Alpha virt. eigenvalues --    2.82746   2.83148   2.83723   2.84482   2.85525
 Alpha virt. eigenvalues --    2.86030   2.86477   2.87314   2.88411   2.89256
 Alpha virt. eigenvalues --    2.89963   2.91945   2.92699   2.93387   2.94566
 Alpha virt. eigenvalues --    2.94833   2.96132   2.97873   3.01369   3.02991
 Alpha virt. eigenvalues --    3.04141   3.06693   3.09290   3.10083   3.12016
 Alpha virt. eigenvalues --    3.18948   3.26895   3.29150   3.39172   3.41511
 Alpha virt. eigenvalues --    3.45037   3.53454   3.56405   3.57586   4.12659
 Alpha virt. eigenvalues --    4.13540   4.15201   4.16851   4.18260   4.19135
 Alpha virt. eigenvalues --    4.19562   4.20445   4.21988   4.23544   4.25285
 Alpha virt. eigenvalues --    4.26033   4.27470   4.28699   4.30758   4.31717
 Alpha virt. eigenvalues --    4.33381   4.34588   4.36932   4.40131   4.40368
 Alpha virt. eigenvalues --    4.41610   4.44511   4.46128   4.49149   4.49435
 Alpha virt. eigenvalues --    4.49745   4.52844   4.57341   4.60738   4.61922
 Alpha virt. eigenvalues --    4.64161   4.67477   4.69408   4.79023   4.85075
 Alpha virt. eigenvalues --    4.89516
          Condensed to atoms (all electrons):
 Mulliken atomic charges:
              1
     1  C   -0.197839
     2  C   -0.154403
     3  C    0.035513
     4  C    0.009587
     5  N   -0.437516
     6  C    0.035725
     7  C    0.295126
     8  C   -0.254762
     9  C    0.049019
    10  N   -0.493034
    11  C    0.714322
    12  N   -0.568369
    13  N   -0.802010
    14  C    0.291454
    15  C    0.119865
    16  C   -0.240379
    17  C   -0.191298
    18  C    0.358129
    19  C   -0.269685
    20  N   -0.757929
    21  C    0.585682
    22  C    0.015196
    23  C   -0.205359
    24  C   -0.217886
    25  C    0.155972
    26  C   -0.223072
    27  C   -0.178383
    28  C   -0.263563
    29  N   -0.382227
    30  C   -0.183898
    31  C   -0.181772
    32  N   -0.385726
    33  C   -0.349275
    34  C   -0.182628
    35  C   -0.186520
    36  O   -0.513259
    37  C   -0.607372
    38  H    0.186141
    39  H    0.186728
    40  H    0.198118
    41  H    0.179043
    42  H    0.180747
    43  H    0.189491
    44  H    0.369211
    45  H    0.160821
    46  H    0.213079
    47  H    0.199358
    48  H    0.361557
    49  H    0.185461
    50  H    0.172069
    51  H    0.163617
    52  H    0.195601
    53  H    0.170279
    54  H    0.168922
    55  H    0.148150
    56  H    0.158363
    57  H    0.141659
    58  H    0.174891
    59  H    0.135273
    60  H    0.164119
    61  H    0.167876
    62  H    0.153490
    63  H    0.172919
    64  H    0.159398
    65  H    0.154992
    66  H    0.178043
    67  H    0.182743
    68  H    0.190420
 Sum of Mulliken atomic charges =   0.00000
 Mulliken charges with hydrogens summed into heavy atoms:
              1
     1  C   -0.011698
     2  C    0.032324
     3  C    0.035513
     4  C    0.207705
     5  N   -0.437516
     6  C    0.214768
     7  C    0.295126
     8  C   -0.074015
     9  C    0.238510
    10  N   -0.493034
    11  C    0.714322
    12  N   -0.568369
    13  N   -0.432799
    14  C    0.291454
    15  C    0.119865
    16  C   -0.079558
    17  C    0.021780
    18  C    0.358129
    19  C   -0.070327
    20  N   -0.396372
    21  C    0.585682
    22  C    0.015196
    23  C   -0.019898
    24  C   -0.045817
    25  C    0.155972
    26  C   -0.059455
    27  C    0.017218
    28  C    0.075638
    29  N   -0.382227
    30  C    0.122614
    31  C    0.134778
    32  N   -0.385726
    33  C    0.117993
    34  C    0.143781
    35  C    0.127869
    36  O   -0.513259
    37  C   -0.056166
 Sum of Mulliken charges with hydrogens summed into heavy atoms =   0.00000
 Electronic spatial extent (au):  <R**2>=          21210.3067
 Charge=              0.0000 electrons
 Dipole moment (field-independent basis, Debye):
    X=              0.5799    Y=              6.5718    Z=              0.4333  Tot=              6.6115
 Quadrupole moment (field-independent basis, Debye-Ang):
   XX=           -193.2976   YY=           -202.5100   ZZ=           -220.4853
   XY=              3.1062   XZ=             -1.2861   YZ=             -5.2235
 Traceless Quadrupole moment (field-independent basis, Debye-Ang):
   XX=             12.1333   YY=              2.9210   ZZ=            -15.0543
   XY=              3.1062   XZ=             -1.2861   YZ=             -5.2235
 Octapole moment (field-independent basis, Debye-Ang**2):
  XXX=             80.0520  YYY=            204.4095  ZZZ=             11.3490  XYY=             33.4047
  XXY=            -43.1342  XXZ=             31.6225  XZZ=            -22.7192  YZZ=              1.3463
  YYZ=             17.7446  XYZ=              2.2843
 Hexadecapole moment (field-independent basis, Debye-Ang**3):
 XXXX=         -18567.5821 YYYY=          -7865.4056 ZZZZ=          -1607.7871 XXXY=            -50.9664
 XXXZ=           -102.9493 YYYX=            149.1211 YYYZ=            -76.3557 ZZZX=            -50.0266
 ZZZY=             15.0421 XXYY=          -4005.1225 XXZZ=          -3408.8349 YYZZ=          -1721.5305
 XXYZ=            -52.7830 YYXZ=            -16.0059 ZZXY=            -24.6007
 N-N= 3.895140410273D+03 E-N=-1.146187628653D+04  KE= 1.567155661936D+03
 No NMR shielding tensors so no spin-rotation constants.
 Leave Link  601 at Wed Apr  8 23:54:40 2020, MaxMem= 2684354560 cpu:       2.5
 (Enter /opt/g09gh/gaussian/g09/l9999.exe)
 1\1\GINC-NODE85\FOpt\RwB97XD\6-31G(d)\C29H31N7O1\BDW2292\08-Apr-2020\0
 \\#P opt=(,maxcycle=400) wB97XD/6-31G* MaxDisk=100GB\\MOLECULE0 Rotata
 ble Bond Optimization on node37.bme.utexas.edu\\0,1\C,-0.5025144605,3.
 6401145426,-2.5353072142\C,0.8709008788,3.6137800934,-2.3252469086\C,1
 .5195211878,2.3826915812,-2.2445352572\C,0.7359158862,1.2303689078,-2.
 3916976884\N,-0.580963782,1.2401986071,-2.5905085894\C,-1.1813480568,2
 .4323310676,-2.6548356129\C,2.9735627646,2.2505951351,-1.9741197984\C,
 3.9116128626,3.2357558112,-2.2690632513\C,5.2315507888,2.9472273336,-1
 .9241482824\N,5.614918153,1.8119396308,-1.3563587992\C,4.6302410511,0.
 9190936794,-1.1285825436\N,3.3394413229,1.097497277,-1.4090412613\N,5.
 0425099404,-0.253060443,-0.5559795587\C,4.3161609757,-1.4196571451,-0.
 2518800712\C,5.0320432412,-2.6070192795,0.0032226133\C,4.2984086694,-3
 .7575737502,0.2795792155\C,2.9052639878,-3.7926122345,0.2984304182\C,2
 .2224247673,-2.6064235017,0.047027028\C,2.9278007203,-1.428466386,-0.1
 972852663\N,0.8250214591,-2.4794464314,-0.0183111767\C,-0.1511719833,-
 3.442528971,-0.0106000739\C,-1.4989825867,-2.8916129954,-0.3822909226\
 C,-1.6401118525,-1.8774603966,-1.334186106\C,-2.8926386371,-1.35649808
 56,-1.623256597\C,-4.028772802,-1.8145372072,-0.9562381633\C,-3.886810
 8061,-2.8671365678,-0.0476705181\C,-2.6379923106,-3.4087636414,0.23375
 35497\C,-5.3735992656,-1.138769583,-1.1688088579\N,-5.6460690719,0.062
 3593564,-0.3939891987\C,-4.9747616125,1.2982588494,-0.7824058129\C,-3.
 6689880713,1.5802453077,-0.0170319411\N,-3.8209829984,1.4801577918,1.4
 31862335\C,-4.5154211432,2.6072511419,2.0285602962\C,-4.3972421245,0.1
 829134065,1.7785040601\C,-5.7240864971,-0.0980771104,1.0537869162\O,0.
 0339252107,-4.6123968293,0.2798753403\C,6.5389161886,-2.6370101932,-0.
 0335666723\H,-1.0405523684,4.5801892999,-2.5929344396\H,1.4225087811,4
 .5407123609,-2.1971946577\H,1.2155594865,0.2557624874,-2.3498825293\H,
 -2.258647484,2.417485106,-2.8056711978\H,3.6513481529,4.1686147408,-2.
 7535977331\H,6.0209478513,3.6700297296,-2.1204935043\H,6.0423253483,-0
 .2843710093,-0.4233209416\H,4.8404219936,-4.6789577729,0.4773829518\H,
 2.3637208868,-4.7078960014,0.4942498749\H,2.3902468586,-0.5107520857,-
 0.3817266546\H,0.4999654511,-1.5353538014,-0.1656720395\H,-0.782210601
 9,-1.4931597553,-1.8782290263\H,-2.9716566259,-0.565222167,-2.36436808
 31\H,-4.7672306401,-3.2574245594,0.4581696049\H,-2.5271170155,-4.22345
 00727,0.9424467434\H,-5.4806394798,-0.8738640129,-2.2276783649\H,-6.17
 07982046,-1.858471877,-0.9427009534\H,-4.7841796096,1.2706683859,-1.86
 19796017\H,-5.6749828129,2.1290033367,-0.6074882216\H,-3.3019786071,2.
 5849428811,-0.2629896845\H,-2.8942619842,0.8674878817,-0.3206835514\H,
 -5.5606867475,2.7497956329,1.7020495656\H,-3.9681648883,3.5280564148,1
 .7981127211\H,-4.522723806,2.4853425398,3.1172013944\H,-4.5459660919,0
 .1421939808,2.8644063029\H,-3.6632234731,-0.5883268215,1.5175122908\H,
 -6.4957869355,0.5883576243,1.432997172\H,-6.0700309443,-1.1133430812,1
 .2780637125\H,6.9868269951,-1.9829036896,0.7270340312\H,6.9305441204,-
 2.326327647,-1.0109206984\H,6.9083424007,-3.6477438166,0.157147888\\Ve
 rsion=EM64L-G09RevA.02\State=1-A\HF=-1581.763216\RMSD=6.459e-09\RMSF=6
 .105e-06\Dipole=0.2499968,2.5193303,-0.5971605\Quadrupole=8.5851248,-1
 .1224118,-7.462713,0.8994654,-3.5178405,-6.9641563\PG=C01 [X(C29H31N7O
 1)]\\@


 THE ATTENTION SPAN OF A COMPUTER IS AS LONG
 AS ITS EXTENSION CORD.
 Job cpu time:  0 days  9 hours 18 minutes 38.6 seconds.
 File lengths (MBytes):  RWF=    244 Int=      0 D2E=      0 Chk=     25 Scr=      1
 Normal termination of Gaussian 09 at Wed Apr  8 23:54:40 2020.
