
    -----------------------------------------------------------------------
          Psi4: An Open-Source Ab Initio Electronic Structure Package
                               Psi4 1.3.2 release

                         Git: Rev {HEAD} ecbda83 


    R. M. Parrish, L. A. Burns, D. G. A. Smith, A. C. Simmonett,
    A. E. DePrince III, E. G. Hohenstein, U. Bozkaya, A. Yu. Sokolov,
    R. Di Remigio, R. M. Richard, J. F. Gonthier, A. M. James,
    H. R. McAlexander, A. Kumar, M. Saitow, X. Wang, B. P. Pritchard,
    P. Verma, H. F. Schaefer III, K. Patkowski, R. A. King, E. F. Valeev,
    F. A. Evangelista, J. M. Turney, T. D. Crawford, and C. D. Sherrill,
    J. Chem. Theory Comput. 13(7) pp 3185--3197 (2017).
    (doi: 10.1021/acs.jctc.7b00174)


                         Additional Contributions by
    P. Kraus, H. Kruse, M. H. Lechner, M. C. Schieber, R. A. Shaw,
    A. Alenaizan, R. Galvelis, Z. L. Glick, S. Lehtola, and J. P. Misiewicz

    -----------------------------------------------------------------------


    Psi4 started on: Tuesday, 14 April 2020 06:47AM

    Process ID: 44564
    Host:       node89.bme.utexas.edu
    PSIDATADIR: /home/bdw2292/miniconda3/envs/p4env/share/psi4
    Memory:     500.0 MiB
    Threads:    1
    
  ==> Input File <==

--------------------------------------------------------------------------
molecule { 
0 1
 C    0.427796    4.615590   -2.056536
 C    1.727490    4.478747   -1.549497
 C    2.229525    3.199613   -1.239744
 C    1.357381    2.114359   -1.503077
 N    0.115213    2.223731   -1.992015
 C   -0.336056    3.459786   -2.255566
 C    3.611303    2.948129   -0.689136
 C    4.628994    3.908977   -0.571658
 C    5.858269    3.438441   -0.093298
 N    6.096116    2.175521    0.256197
 C    5.055341    1.326687    0.136701
 N    3.849486    1.678957   -0.311865
 N    5.302101    0.017011    0.515691
 C    4.507386   -1.187428    0.476295
 C    5.140971   -2.461361    0.601298
 C    4.323533   -3.600702    0.500187
 C    2.938212   -3.555828    0.300591
 C    2.320526   -2.302573    0.237291
 C    3.115968   -1.149303    0.320726
 N    0.919449   -2.063785    0.060346
 C   -0.127960   -2.906688   -0.233703
 C   -1.439408   -2.243480   -0.615133
 C   -1.515297   -1.052220   -1.356614
 C   -2.749175   -0.440484   -1.587371
 C   -3.954735   -1.012021   -1.134665
 C   -3.866858   -2.250809   -0.471206
 C   -2.635511   -2.857485   -0.209615
 C   -5.280958   -0.270730   -1.326795
 N   -6.043237    0.244616   -0.174940
 C   -5.532189    1.459765    0.501638
 C   -4.631194    1.184988    1.732779
 N   -5.251375    0.293266    2.743772
 C   -6.184730    0.919351    3.687032
 C   -5.717530   -0.941654    2.068572
 C   -6.615515   -0.680793    0.829932
 O   -0.033536   -4.122973   -0.179008
 C    6.638808   -2.630224    0.793121
 H    0.016471    5.592342   -2.294545
 H    2.320322    5.375817   -1.387740
 H    1.687155    1.093336   -1.337983
 H   -1.348935    3.511912   -2.652043
 H    4.526560    4.949859   -0.853843
 H    6.719885    4.095981    0.017878
 H    6.268400   -0.076190    0.789762
 H    4.779648   -4.587611    0.568422
 H    2.343814   -4.457201    0.215874
 H    2.639887   -0.184426    0.274736
 H    0.664378   -1.086568    0.088955
 H   -0.604920   -0.577264   -1.714412
 H   -2.756023    0.518629   -2.105334
 H   -4.774124   -2.756442   -0.145254
 H   -2.582938   -3.804157    0.323386
 H   -5.093874    0.594116   -1.978954
 H   -5.961161   -0.946748   -1.863908
 H   -4.848865    2.239037   -0.391957
 H   -6.665511    2.223553    0.934442
 H   -4.299787    2.174129    2.241743
 H   -3.367604    0.477919    1.241643
 H   -7.076564    1.289713    3.169092
 H   -5.699638    1.759171    4.197744
 H   -6.493228    0.196077    4.450785
 H   -6.456637   -1.723493    3.009865
 H   -4.846656   -1.512513    1.807513
 H   -7.862890   -0.034800    1.331100
 H   -6.945942   -1.652433    0.336365
 H    7.012270   -2.122503    1.694335
 H    7.190308   -2.223564   -0.059199
 H    6.935951   -3.678134    0.886386
}
memory 20GB
set_num_threads(6)
psi4_io.set_default_path("/scratch/bdw2292")
set freeze_core True
E, wfn = energy('mp2/6-311++G**',return_wfn=True)
oeprop(wfn,"WIBERG_LOWDIN_INDICES")
clean()
--------------------------------------------------------------------------

  Memory set to  18.626 GiB by Python driver.
  Threads set to 6 by Python driver.
    SCF Algorithm Type (re)set to DF.

*** tstart() called on node89.bme.utexas.edu
*** at Tue Apr 14 06:47:03 2020

   => Loading Basis Set <=

    Name: 6-311++G**
    Role: ORBITAL
    Keyword: BASIS
    atoms 1-4, 6-9, 11, 14-19, 21-28, 30-31, 33-35, 37 entry C          line   119 file /home/bdw2292/miniconda3/envs/p4env/share/psi4/basis/6-311ppgss.gbs 
    atoms 5, 10, 12-13, 20, 29, 32                     entry N          line   140 file /home/bdw2292/miniconda3/envs/p4env/share/psi4/basis/6-311ppgss.gbs 
    atoms 36                                           entry O          line   161 file /home/bdw2292/miniconda3/envs/p4env/share/psi4/basis/6-311ppgss.gbs 
    atoms 38-68                                        entry H          line    42 file /home/bdw2292/miniconda3/envs/p4env/share/psi4/basis/6-311ppgss.gbs 


         ---------------------------------------------------------
                                   SCF
               by Justin Turney, Rob Parrish, Andy Simmonett
                          and Daniel G. A. Smith
                              RHF Reference
                        6 Threads,  19073 MiB Core
         ---------------------------------------------------------

  ==> Geometry <==

    Molecular point group: c1
    Full point group: C1

    Geometry (in Angstrom), charge = 0, multiplicity = 1:

       Center              X                  Y                   Z               Mass       
    ------------   -----------------  -----------------  -----------------  -----------------
         C            0.277795144333     4.573280077012    -1.989412382873    12.000000000000
         C            1.577489144333     4.436437077012    -1.482373382873    12.000000000000
         C            2.079524144333     3.157303077012    -1.172620382873    12.000000000000
         C            1.207380144333     2.072049077012    -1.435953382873    12.000000000000
         N           -0.034787855667     2.181421077012    -1.924891382873    14.003074004430
         C           -0.486056855667     3.417476077012    -2.188442382873    12.000000000000
         C            3.461302144333     2.905819077012    -0.622012382873    12.000000000000
         C            4.478993144333     3.866667077012    -0.504534382873    12.000000000000
         C            5.708268144333     3.396131077012    -0.026174382873    12.000000000000
         N            5.946115144333     2.133211077012     0.323320617127    14.003074004430
         C            4.905340144333     1.284377077012     0.203824617127    12.000000000000
         N            3.699485144333     1.636647077012    -0.244741382873    14.003074004430
         N            5.152100144333    -0.025298922988     0.582814617127    14.003074004430
         C            4.357385144333    -1.229737922988     0.543418617127    12.000000000000
         C            4.990970144333    -2.503670922988     0.668421617127    12.000000000000
         C            4.173532144333    -3.643011922988     0.567310617127    12.000000000000
         C            2.788211144333    -3.598137922988     0.367714617127    12.000000000000
         C            2.170525144333    -2.344882922988     0.304414617127    12.000000000000
         C            2.965967144333    -1.191612922988     0.387849617127    12.000000000000
         N            0.769448144333    -2.106094922988     0.127469617127    14.003074004430
         C           -0.277960855667    -2.948997922988    -0.166579382873    12.000000000000
         C           -1.589408855667    -2.285789922988    -0.548009382873    12.000000000000
         C           -1.665297855667    -1.094529922988    -1.289490382873    12.000000000000
         C           -2.899175855667    -0.482793922988    -1.520247382873    12.000000000000
         C           -4.104735855667    -1.054330922988    -1.067541382873    12.000000000000
         C           -4.016858855667    -2.293118922988    -0.404082382873    12.000000000000
         C           -2.785511855667    -2.899794922988    -0.142491382873    12.000000000000
         C           -5.430958855667    -0.313039922988    -1.259671382873    12.000000000000
         N           -6.193237855667     0.202306077012    -0.107816382873    14.003074004430
         C           -5.682189855667     1.417455077012     0.568761617127    12.000000000000
         C           -4.781194855667     1.142678077012     1.799902617127    12.000000000000
         N           -5.401375855667     0.250956077012     2.810895617127    14.003074004430
         C           -6.334730855667     0.877041077012     3.754155617127    12.000000000000
         C           -5.867530855667    -0.983963922988     2.135695617127    12.000000000000
         C           -6.765515855667    -0.723102922988     0.897055617127    12.000000000000
         O           -0.183536855667    -4.165282922988    -0.111884382873    15.994914619570
         C            6.488807144333    -2.672533922988     0.860244617127    12.000000000000
         H           -0.133529855667     5.550032077012    -2.227421382873     1.007825032230
         H            2.170321144333     5.333507077012    -1.320616382873     1.007825032230
         H            1.537154144333     1.051026077012    -1.270859382873     1.007825032230
         H           -1.498935855667     3.469602077012    -2.584919382873     1.007825032230
         H            4.376559144333     4.907549077012    -0.786719382873     1.007825032230
         H            6.569884144333     4.053671077012     0.085001617127     1.007825032230
         H            6.118399144333    -0.118499922988     0.856885617127     1.007825032230
         H            4.629647144333    -4.629920922988     0.635545617127     1.007825032230
         H            2.193813144333    -4.499510922988     0.282997617127     1.007825032230
         H            2.489886144333    -0.226735922988     0.341859617127     1.007825032230
         H            0.514377144333    -1.128877922988     0.156078617127     1.007825032230
         H           -0.754920855667    -0.619573922988    -1.647288382873     1.007825032230
         H           -2.906023855667     0.476319077012    -2.038210382873     1.007825032230
         H           -4.924124855667    -2.798751922988    -0.078130382873     1.007825032230
         H           -2.732938855667    -3.846466922988     0.390509617127     1.007825032230
         H           -5.243874855667     0.551806077012    -1.911830382873     1.007825032230
         H           -6.111161855667    -0.989057922988    -1.796784382873     1.007825032230
         H           -4.998865855667     2.196727077012    -0.324833382873     1.007825032230
         H           -6.815511855667     2.181243077012     1.001565617127     1.007825032230
         H           -4.449787855667     2.131819077012     2.308866617127     1.007825032230
         H           -3.517604855667     0.435609077012     1.308766617127     1.007825032230
         H           -7.226564855667     1.247403077012     3.236215617127     1.007825032230
         H           -5.849638855667     1.716861077012     4.264867617127     1.007825032230
         H           -6.643228855667     0.153767077012     4.517908617127     1.007825032230
         H           -6.606637855667    -1.765802922988     3.076988617127     1.007825032230
         H           -4.996656855667    -1.554822922988     1.874636617127     1.007825032230
         H           -8.012890855667    -0.077109922988     1.398223617127     1.007825032230
         H           -7.095942855667    -1.694742922988     0.403488617127     1.007825032230
         H            6.862269144333    -2.164812922988     1.761458617127     1.007825032230
         H            7.040307144333    -2.265873922988     0.007924617127     1.007825032230
         H            6.785950144333    -3.720443922988     0.953509617127     1.007825032230

  Running in c1 symmetry.

  Rotational constants: A =      0.00449  B =      0.00179  C =      0.00144 [cm^-1]
  Rotational constants: A =    134.62031  B =     53.71635  C =     43.14259 [MHz]
  Nuclear repulsion = 3732.607829287973800

  Charge       = 0
  Multiplicity = 1
  Electrons    = 262
  Nalpha       = 131
  Nbeta        = 131

  ==> Algorithm <==

  SCF Algorithm Type is DF.
  DIIS enabled.
  MOM disabled.
  Fractional occupation disabled.
  Guess Type is SAD.
  Energy threshold   = 1.00e-08
  Density threshold  = 1.00e-08
  Integral threshold = 0.00e+00

  ==> Primary Basis <==

  Basis Set: 6-311++G**
    Blend: 6-311++G**
    Number of shells: 525
    Number of basis function: 1031
    Number of Cartesian functions: 1068
    Spherical Harmonics?: true
    Max angular momentum: 2

   => Loading Basis Set <=

    Name: (6-311++G** AUX)
    Role: JKFIT
    Keyword: DF_BASIS_SCF
    atoms 1-4, 6-9, 11, 14-19, 21-28, 30-31, 33-35, 37 entry C          line   162 file /home/bdw2292/miniconda3/envs/p4env/share/psi4/basis/aug-cc-pvtz-jkfit.gbs 
    atoms 5, 10, 12-13, 20, 29, 32                     entry N          line   224 file /home/bdw2292/miniconda3/envs/p4env/share/psi4/basis/aug-cc-pvtz-jkfit.gbs 
    atoms 36                                           entry O          line   286 file /home/bdw2292/miniconda3/envs/p4env/share/psi4/basis/aug-cc-pvtz-jkfit.gbs 
    atoms 38-68                                        entry H          line    70 file /home/bdw2292/miniconda3/envs/p4env/share/psi4/basis/aug-cc-pvtz-jkfit.gbs 

  ==> Pre-Iterations <==

   -------------------------------------------------------
    Irrep   Nso     Nmo     Nalpha   Nbeta   Ndocc  Nsocc
   -------------------------------------------------------
     A       1031    1031       0       0       0       0
   -------------------------------------------------------
    Total    1031    1031     131     131     131       0
   -------------------------------------------------------

  ==> Integral Setup <==

  ==> DiskDFJK: Density-Fitted J/K Matrices <==

    J tasked:                  Yes
    K tasked:                  Yes
    wK tasked:                  No
    OpenMP threads:              6
    Integrals threads:           6
    Memory [MiB]:            14305
    Algorithm:                Core
    Integral Cache:           NONE
    Schwarz Cutoff:          1E-12
    Fitting Condition:       1E-10

   => Auxiliary Basis Set <=

  Basis Set: (6-311++G** AUX)
    Blend: AUG-CC-PVTZ-JKFIT
    Number of shells: 1544
    Number of basis function: 5274
    Number of Cartesian functions: 6552
    Spherical Harmonics?: true
    Max angular momentum: 4

  Minimum eigenvalue in the overlap matrix is 1.4147515023E-07.
  Using Symmetric Orthogonalization.

  SCF Guess: Superposition of Atomic Densities via on-the-fly atomic UHF.

  ==> Iterations <==

                           Total Energy        Delta E     RMS |[F,P]|

   @DF-RHF iter SAD: -1571.25965025914138   -1.57126e+03   0.00000e+00 
   @DF-RHF iter   1: -1571.36068836379172   -1.01038e-01   1.21477e-03 DIIS
   @DF-RHF iter   2: -1572.12903011152889   -7.68342e-01   6.42316e-04 DIIS
   @DF-RHF iter   3: -1572.32331110323435   -1.94281e-01   1.65716e-04 DIIS
   @DF-RHF iter   4: -1572.34064788936530   -1.73368e-02   6.58512e-05 DIIS
   @DF-RHF iter   5: -1572.34326354222276   -2.61565e-03   1.37890e-05 DIIS
   @DF-RHF iter   6: -1572.34342292479664   -1.59383e-04   6.03700e-06 DIIS
   @DF-RHF iter   7: -1572.34345968744560   -3.67626e-05   1.99521e-06 DIIS
   @DF-RHF iter   8: -1572.34346544870641   -5.76126e-06   7.86303e-07 DIIS
   @DF-RHF iter   9: -1572.34346639263867   -9.43932e-07   3.23790e-07 DIIS
   @DF-RHF iter  10: -1572.34346658410141   -1.91463e-07   1.45696e-07 DIIS
   @DF-RHF iter  11: -1572.34346662387884   -3.97774e-08   6.96403e-08 DIIS
   @DF-RHF iter  12: -1572.34346663467704   -1.07982e-08   2.83804e-08 DIIS
   @DF-RHF iter  13: -1572.34346663667361   -1.99657e-09   1.22658e-08 DIIS
   @DF-RHF iter  14: -1572.34346663699989   -3.26281e-10   5.79919e-09 DIIS
  Energy and wave function converged.


  ==> Post-Iterations <==

    Orbital Energies [Eh]
    ---------------------

    Doubly Occupied:                                                      

       1A    -20.521392     2A    -15.604271     3A    -15.600796  
       4A    -15.587283     5A    -15.573916     6A    -15.570810  
       7A    -15.568634     8A    -15.555749     9A    -11.374926  
      10A    -11.363830    11A    -11.334853    12A    -11.325173  
      13A    -11.314216    14A    -11.308310    15A    -11.307531  
      16A    -11.301908    17A    -11.301759    18A    -11.300774  
      19A    -11.292459    20A    -11.290111    21A    -11.288679  
      22A    -11.280966    23A    -11.277262    24A    -11.266563  
      25A    -11.256785    26A    -11.255735    27A    -11.253069  
      28A    -11.251678    29A    -11.249204    30A    -11.247267  
      31A    -11.247077    32A    -11.244346    33A    -11.244051  
      34A    -11.239933    35A    -11.233932    36A    -11.230419  
      37A    -11.224966    38A     -1.385504    39A     -1.345175  
      40A     -1.278846    41A     -1.250730    42A     -1.246099  
      43A     -1.241361    44A     -1.209762    45A     -1.200424  
      46A     -1.160655    47A     -1.139502    48A     -1.116362  
      49A     -1.075607    50A     -1.058975    51A     -1.048616  
      52A     -1.037441    53A     -1.022184    54A     -1.007791  
      55A     -0.997349    56A     -0.977400    57A     -0.947694  
      58A     -0.929358    59A     -0.926857    60A     -0.901068  
      61A     -0.873084    62A     -0.865689    63A     -0.858366  
      64A     -0.840548    65A     -0.837582    66A     -0.829621  
      67A     -0.824446    68A     -0.805807    69A     -0.778003  
      70A     -0.754519    71A     -0.738400    72A     -0.730577  
      73A     -0.722058    74A     -0.713864    75A     -0.698583  
      76A     -0.682824    77A     -0.671341    78A     -0.665029  
      79A     -0.658278    80A     -0.655464    81A     -0.651856  
      82A     -0.639137    83A     -0.636615    84A     -0.629682  
      85A     -0.623056    86A     -0.619437    87A     -0.616380  
      88A     -0.612806    89A     -0.607126    90A     -0.603232  
      91A     -0.599605    92A     -0.596399    93A     -0.591210  
      94A     -0.589480    95A     -0.586807    96A     -0.581659  
      97A     -0.579771    98A     -0.577350    99A     -0.565197  
     100A     -0.561848   101A     -0.547795   102A     -0.545054  
     103A     -0.537750   104A     -0.526225   105A     -0.522944  
     106A     -0.522355   107A     -0.514134   108A     -0.508364  
     109A     -0.506149   110A     -0.501633   111A     -0.498610  
     112A     -0.493403   113A     -0.484346   114A     -0.480181  
     115A     -0.455471   116A     -0.451860   117A     -0.443265  
     118A     -0.431774   119A     -0.427210   120A     -0.425312  
     121A     -0.414263   122A     -0.410804   123A     -0.400658  
     124A     -0.381535   125A     -0.374025   126A     -0.346681  
     127A     -0.343980   128A     -0.340267   129A     -0.316599  
     130A     -0.313666   131A     -0.290065  

    Virtual:                                                              

     132A      0.025901   133A      0.034693   134A      0.041157  
     135A      0.041904   136A      0.044540   137A      0.047046  
     138A      0.048925   139A      0.054610   140A      0.057879  
     141A      0.060608   142A      0.062795   143A      0.066588  
     144A      0.067751   145A      0.069931   146A      0.072017  
     147A      0.073405   148A      0.075744   149A      0.082124  
     150A      0.082810   151A      0.086227   152A      0.086451  
     153A      0.089947   154A      0.090771   155A      0.094898  
     156A      0.096391   157A      0.099078   158A      0.101005  
     159A      0.104317   160A      0.106422   161A      0.109706  
     162A      0.111339   163A      0.113660   164A      0.115373  
     165A      0.117794   166A      0.120004   167A      0.121460  
     168A      0.125884   169A      0.127113   170A      0.129416  
     171A      0.132601   172A      0.135255   173A      0.141366  
     174A      0.144207   175A      0.146242   176A      0.147623  
     177A      0.149201   178A      0.150420   179A      0.153888  
     180A      0.156310   181A      0.157595   182A      0.160528  
     183A      0.162763   184A      0.164021   185A      0.165826  
     186A      0.168579   187A      0.168932   188A      0.171132  
     189A      0.173323   190A      0.174671   191A      0.177480  
     192A      0.177903   193A      0.180894   194A      0.183030  
     195A      0.183851   196A      0.185217   197A      0.186131  
     198A      0.187694   199A      0.189443   200A      0.191789  
     201A      0.195662   202A      0.196882   203A      0.198507  
     204A      0.200219   205A      0.202452   206A      0.203540  
     207A      0.206337   208A      0.207070   209A      0.207860  
     210A      0.210926   211A      0.212761   212A      0.213464  
     213A      0.217526   214A      0.218361   215A      0.220233  
     216A      0.220792   217A      0.222203   218A      0.223767  
     219A      0.224941   220A      0.226130   221A      0.229837  
     222A      0.230093   223A      0.232433   224A      0.234250  
     225A      0.236904   226A      0.237597   227A      0.241160  
     228A      0.244532   229A      0.245679   230A      0.246664  
     231A      0.251344   232A      0.252854   233A      0.253572  
     234A      0.254964   235A      0.258050   236A      0.259326  
     237A      0.263143   238A      0.265208   239A      0.269804  
     240A      0.271589   241A      0.273770   242A      0.274587  
     243A      0.276119   244A      0.277133   245A      0.280403  
     246A      0.280846   247A      0.283309   248A      0.287386  
     249A      0.288992   250A      0.290644   251A      0.293322  
     252A      0.295962   253A      0.298030   254A      0.302381  
     255A      0.304843   256A      0.308186   257A      0.309074  
     258A      0.310875   259A      0.313398   260A      0.315064  
     261A      0.320663   262A      0.321748   263A      0.322958  
     264A      0.325151   265A      0.329830   266A      0.330922  
     267A      0.331664   268A      0.336032   269A      0.337279  
     270A      0.339192   271A      0.339621   272A      0.342838  
     273A      0.346217   274A      0.347627   275A      0.350443  
     276A      0.352152   277A      0.353345   278A      0.356479  
     279A      0.356632   280A      0.359774   281A      0.363494  
     282A      0.364259   283A      0.365021   284A      0.367132  
     285A      0.370601   286A      0.372505   287A      0.372844  
     288A      0.374534   289A      0.375670   290A      0.378073  
     291A      0.380421   292A      0.382328   293A      0.383427  
     294A      0.385522   295A      0.386633   296A      0.387857  
     297A      0.391255   298A      0.392059   299A      0.396173  
     300A      0.397244   301A      0.399231   302A      0.400123  
     303A      0.401752   304A      0.402428   305A      0.403281  
     306A      0.406204   307A      0.409060   308A      0.409582  
     309A      0.411906   310A      0.414236   311A      0.416205  
     312A      0.416779   313A      0.419345   314A      0.420622  
     315A      0.421015   316A      0.422999   317A      0.425825  
     318A      0.427560   319A      0.428748   320A      0.430960  
     321A      0.436132   322A      0.437306   323A      0.438038  
     324A      0.440205   325A      0.440797   326A      0.443197  
     327A      0.444241   328A      0.446102   329A      0.448229  
     330A      0.448805   331A      0.453099   332A      0.456869  
     333A      0.460348   334A      0.461018   335A      0.462610  
     336A      0.465242   337A      0.466294   338A      0.468909  
     339A      0.473107   340A      0.473963   341A      0.475228  
     342A      0.478272   343A      0.479526   344A      0.483632  
     345A      0.488805   346A      0.490049   347A      0.491332  
     348A      0.494485   349A      0.499832   350A      0.502944  
     351A      0.506742   352A      0.508871   353A      0.508950  
     354A      0.513037   355A      0.516873   356A      0.517174  
     357A      0.518449   358A      0.521716   359A      0.523568  
     360A      0.528655   361A      0.528736   362A      0.534046  
     363A      0.536937   364A      0.540723   365A      0.545467  
     366A      0.546585   367A      0.552288   368A      0.556914  
     369A      0.560587   370A      0.565137   371A      0.565597  
     372A      0.571439   373A      0.579638   374A      0.585393  
     375A      0.589037   376A      0.591770   377A      0.599003  
     378A      0.604261   379A      0.610502   380A      0.611694  
     381A      0.617774   382A      0.623121   383A      0.626819  
     384A      0.628154   385A      0.632028   386A      0.638842  
     387A      0.644909   388A      0.660739   389A      0.674406  
     390A      0.676884   391A      0.686486   392A      0.691159  
     393A      0.697124   394A      0.706450   395A      0.708905  
     396A      0.714279   397A      0.716272   398A      0.725054  
     399A      0.728942   400A      0.731593   401A      0.736266  
     402A      0.740349   403A      0.745228   404A      0.753373  
     405A      0.756559   406A      0.760943   407A      0.765480  
     408A      0.766807   409A      0.771451   410A      0.774598  
     411A      0.775121   412A      0.776524   413A      0.782016  
     414A      0.784574   415A      0.791640   416A      0.795106  
     417A      0.795815   418A      0.801752   419A      0.805513  
     420A      0.811428   421A      0.813521   422A      0.816442  
     423A      0.820022   424A      0.822077   425A      0.825647  
     426A      0.829532   427A      0.832907   428A      0.836415  
     429A      0.839764   430A      0.842283   431A      0.847266  
     432A      0.849964   433A      0.854193   434A      0.860918  
     435A      0.867545   436A      0.870089   437A      0.871134  
     438A      0.871964   439A      0.872327   440A      0.877450  
     441A      0.880531   442A      0.885578   443A      0.886987  
     444A      0.891762   445A      0.895227   446A      0.900207  
     447A      0.903514   448A      0.904213   449A      0.904620  
     450A      0.909898   451A      0.916442   452A      0.918522  
     453A      0.922482   454A      0.925746   455A      0.927124  
     456A      0.933166   457A      0.935242   458A      0.936844  
     459A      0.937903   460A      0.941238   461A      0.944395  
     462A      0.947296   463A      0.950888   464A      0.953784  
     465A      0.954765   466A      0.957935   467A      0.961550  
     468A      0.970076   469A      0.971236   470A      0.973223  
     471A      0.979573   472A      0.982482   473A      0.986368  
     474A      0.991251   475A      0.994504   476A      0.995855  
     477A      0.999273   478A      1.001250   479A      1.013308  
     480A      1.016314   481A      1.019049   482A      1.025185  
     483A      1.026126   484A      1.029316   485A      1.033360  
     486A      1.038534   487A      1.041892   488A      1.045231  
     489A      1.049056   490A      1.051267   491A      1.056943  
     492A      1.060023   493A      1.065583   494A      1.068557  
     495A      1.074312   496A      1.078416   497A      1.083008  
     498A      1.087269   499A      1.091505   500A      1.095367  
     501A      1.098533   502A      1.102112   503A      1.103211  
     504A      1.110171   505A      1.118359   506A      1.125649  
     507A      1.129213   508A      1.134137   509A      1.137944  
     510A      1.139484   511A      1.143356   512A      1.145758  
     513A      1.151215   514A      1.154818   515A      1.155339  
     516A      1.163823   517A      1.168570   518A      1.173996  
     519A      1.175413   520A      1.179810   521A      1.183193  
     522A      1.187169   523A      1.189666   524A      1.192593  
     525A      1.195447   526A      1.199728   527A      1.204706  
     528A      1.210761   529A      1.213886   530A      1.218761  
     531A      1.221563   532A      1.227137   533A      1.232103  
     534A      1.234277   535A      1.234521   536A      1.242204  
     537A      1.246567   538A      1.253243   539A      1.253782  
     540A      1.257443   541A      1.260690   542A      1.265941  
     543A      1.270053   544A      1.274436   545A      1.278494  
     546A      1.282703   547A      1.287805   548A      1.292306  
     549A      1.293221   550A      1.295187   551A      1.299956  
     552A      1.308896   553A      1.312969   554A      1.316962  
     555A      1.323116   556A      1.329758   557A      1.334980  
     558A      1.344503   559A      1.347993   560A      1.352691  
     561A      1.362284   562A      1.369141   563A      1.376410  
     564A      1.381665   565A      1.386477   566A      1.392086  
     567A      1.395855   568A      1.409811   569A      1.414403  
     570A      1.420107   571A      1.420518   572A      1.434383  
     573A      1.438566   574A      1.441428   575A      1.447294  
     576A      1.450647   577A      1.459738   578A      1.463424  
     579A      1.475915   580A      1.481557   581A      1.490589  
     582A      1.499593   583A      1.507179   584A      1.514576  
     585A      1.520411   586A      1.527573   587A      1.534574  
     588A      1.542850   589A      1.552912   590A      1.556450  
     591A      1.559859   592A      1.569076   593A      1.579330  
     594A      1.597072   595A      1.605426   596A      1.612082  
     597A      1.618809   598A      1.624452   599A      1.630189  
     600A      1.635187   601A      1.655853   602A      1.672998  
     603A      1.682047   604A      1.684751   605A      1.695104  
     606A      1.706742   607A      1.711127   608A      1.717436  
     609A      1.725838   610A      1.729936   611A      1.744366  
     612A      1.746971   613A      1.749682   614A      1.755394  
     615A      1.762040   616A      1.766793   617A      1.775684  
     618A      1.780543   619A      1.781242   620A      1.784953  
     621A      1.788204   622A      1.793553   623A      1.795160  
     624A      1.806917   625A      1.809320   626A      1.813288  
     627A      1.818463   628A      1.821664   629A      1.824491  
     630A      1.829176   631A      1.830229   632A      1.840878  
     633A      1.842604   634A      1.845266   635A      1.847997  
     636A      1.853852   637A      1.855304   638A      1.858857  
     639A      1.860899   640A      1.861570   641A      1.863706  
     642A      1.863863   643A      1.866826   644A      1.876521  
     645A      1.883781   646A      1.892298   647A      1.896403  
     648A      1.909254   649A      1.914385   650A      1.920950  
     651A      1.925367   652A      1.929454   653A      1.932949  
     654A      1.938794   655A      1.943692   656A      1.950287  
     657A      1.953132   658A      1.957859   659A      1.962739  
     660A      1.966099   661A      1.966711   662A      1.970470  
     663A      1.978173   664A      1.984940   665A      1.985393  
     666A      1.994396   667A      1.998410   668A      2.002446  
     669A      2.005800   670A      2.008416   671A      2.010144  
     672A      2.015809   673A      2.027021   674A      2.028626  
     675A      2.030053   676A      2.041025   677A      2.043722  
     678A      2.044859   679A      2.048775   680A      2.059956  
     681A      2.064764   682A      2.067835   683A      2.075790  
     684A      2.079983   685A      2.084907   686A      2.087815  
     687A      2.090968   688A      2.097660   689A      2.100270  
     690A      2.104270   691A      2.111282   692A      2.118488  
     693A      2.126214   694A      2.133303   695A      2.142542  
     696A      2.145703   697A      2.156408   698A      2.167602  
     699A      2.173453   700A      2.174635   701A      2.181652  
     702A      2.185536   703A      2.192186   704A      2.192926  
     705A      2.195220   706A      2.217595   707A      2.222383  
     708A      2.223286   709A      2.234034   710A      2.236452  
     711A      2.243026   712A      2.248211   713A      2.252540  
     714A      2.253425   715A      2.257233   716A      2.260434  
     717A      2.267130   718A      2.271825   719A      2.274076  
     720A      2.275663   721A      2.282748   722A      2.293559  
     723A      2.300331   724A      2.301643   725A      2.309530  
     726A      2.314546   727A      2.315562   728A      2.323088  
     729A      2.325015   730A      2.336619   731A      2.341495  
     732A      2.346956   733A      2.354074   734A      2.359682  
     735A      2.369116   736A      2.376225   737A      2.383879  
     738A      2.385698   739A      2.391972   740A      2.403494  
     741A      2.405621   742A      2.412301   743A      2.418640  
     744A      2.430013   745A      2.432565   746A      2.438343  
     747A      2.446913   748A      2.451539   749A      2.461798  
     750A      2.470913   751A      2.473087   752A      2.481124  
     753A      2.490981   754A      2.497021   755A      2.510107  
     756A      2.517525   757A      2.522663   758A      2.529100  
     759A      2.535784   760A      2.542430   761A      2.556374  
     762A      2.558276   763A      2.564627   764A      2.577876  
     765A      2.582445   766A      2.601681   767A      2.615664  
     768A      2.621122   769A      2.631617   770A      2.649936  
     771A      2.657428   772A      2.663774   773A      2.677838  
     774A      2.679386   775A      2.685886   776A      2.696902  
     777A      2.707561   778A      2.717120   779A      2.728406  
     780A      2.734622   781A      2.742852   782A      2.746102  
     783A      2.768233   784A      2.781522   785A      2.785707  
     786A      2.795250   787A      2.801585   788A      2.806894  
     789A      2.812607   790A      2.821306   791A      2.827333  
     792A      2.833602   793A      2.841717   794A      2.855121  
     795A      2.861377   796A      2.864715   797A      2.873797  
     798A      2.877373   799A      2.880354   800A      2.884072  
     801A      2.896271   802A      2.901135   803A      2.909853  
     804A      2.916088   805A      2.928927   806A      2.932969  
     807A      2.939051   808A      2.950489   809A      2.958361  
     810A      2.962913   811A      2.970423   812A      2.971168  
     813A      2.977521   814A      2.981825   815A      2.985870  
     816A      2.993587   817A      3.005367   818A      3.007985  
     819A      3.011507   820A      3.017216   821A      3.032920  
     822A      3.036831   823A      3.042916   824A      3.053752  
     825A      3.057145   826A      3.058212   827A      3.060909  
     828A      3.069673   829A      3.071818   830A      3.077788  
     831A      3.084576   832A      3.092696   833A      3.100061  
     834A      3.101797   835A      3.103756   836A      3.105039  
     837A      3.111512   838A      3.117189   839A      3.120314  
     840A      3.124050   841A      3.133173   842A      3.135150  
     843A      3.140258   844A      3.145043   845A      3.152939  
     846A      3.162000   847A      3.162942   848A      3.170809  
     849A      3.171425   850A      3.186635   851A      3.197560  
     852A      3.200124   853A      3.204421   854A      3.213709  
     855A      3.222397   856A      3.226887   857A      3.233556  
     858A      3.240004   859A      3.253644   860A      3.254453  
     861A      3.266527   862A      3.270332   863A      3.272005  
     864A      3.280163   865A      3.282277   866A      3.288370  
     867A      3.291328   868A      3.294557   869A      3.296675  
     870A      3.304519   871A      3.313543   872A      3.319748  
     873A      3.326494   874A      3.329628   875A      3.332212  
     876A      3.335697   877A      3.343199   878A      3.345859  
     879A      3.353323   880A      3.364073   881A      3.364675  
     882A      3.371141   883A      3.384969   884A      3.388226  
     885A      3.396252   886A      3.398864   887A      3.408876  
     888A      3.416697   889A      3.426593   890A      3.430408  
     891A      3.440399   892A      3.461651   893A      3.471672  
     894A      3.505385   895A      3.519292   896A      3.551561  
     897A      3.572550   898A      3.597569   899A      3.605086  
     900A      3.611005   901A      3.612235   902A      3.635126  
     903A      3.650140   904A      3.659838   905A      3.674816  
     906A      3.676815   907A      3.679948   908A      3.688862  
     909A      3.762908   910A      3.772084   911A      3.772856  
     912A      3.780746   913A      3.800518   914A      3.808149  
     915A      3.814882   916A      3.823854   917A      3.833938  
     918A      3.856756   919A      3.866994   920A      3.871488  
     921A      3.889891   922A      3.906346   923A      3.918122  
     924A      3.923799   925A      3.940505   926A      3.951243  
     927A      3.963942   928A      3.969714   929A      3.972931  
     930A      3.977983   931A      4.008491   932A      4.021148  
     933A      4.047815   934A      4.058384   935A      4.067633  
     936A      4.087836   937A      4.095036   938A      4.100159  
     939A      4.117894   940A      4.124143   941A      4.150473  
     942A      4.159631   943A      4.181344   944A      4.186605  
     945A      4.189814   946A      4.203751   947A      4.207584  
     948A      4.217146   949A      4.263275   950A      4.328890  
     951A      4.356478   952A      4.363002   953A      4.383341  
     954A      4.402573   955A      4.413089   956A      4.419179  
     957A      4.426109   958A      4.432252   959A      4.439243  
     960A      4.442788   961A      4.454286   962A      4.482565  
     963A      4.516451   964A      4.545570   965A      4.551148  
     966A      4.580213   967A      4.589250   968A      4.608437  
     969A      4.625870   970A      4.671295   971A      4.712063  
     972A      4.768328   973A      4.771400   974A      4.787444  
     975A      4.906957   976A      4.938754   977A      5.003299  
     978A      5.042500   979A      5.221149   980A      5.247510  
     981A      5.262913   982A      5.273640   983A      5.291541  
     984A      5.334809   985A      5.350581   986A      5.389512  
     987A      5.415480   988A      5.605470   989A      5.685898  
     990A      5.699153   991A      5.798627   992A      5.854043  
     993A      5.870833   994A      6.394385   995A     24.767219  
     996A     24.783896   997A     24.819498   998A     24.839856  
     999A     24.854787  1000A     24.924063  1001A     24.937571  
    1002A     24.987035  1003A     25.016242  1004A     25.017549  
    1005A     25.047061  1006A     25.068879  1007A     25.072137  
    1008A     25.092364  1009A     25.099309  1010A     25.116990  
    1011A     25.121000  1012A     25.131442  1013A     25.137442  
    1014A     25.151389  1015A     25.170151  1016A     25.204359  
    1017A     25.209251  1018A     25.233363  1019A     25.244657  
    1020A     25.249196  1021A     25.253890  1022A     25.321763  
    1023A     25.327895  1024A     36.944789  1025A     36.984536  
    1026A     37.021268  1027A     37.069895  1028A     37.072698  
    1029A     37.135169  1030A     37.153535  1031A     51.761449  

    Final Occupation by Irrep:
              A 
    DOCC [   131 ]

  @DF-RHF Final Energy: -1572.34346663699989

   => Energetics <=

    Nuclear Repulsion Energy =           3732.6078292879738001
    One-Electron Energy =               -9563.4535836127161019
    Two-Electron Energy =                4258.5022876877428644
    Total Energy =                      -1572.3434666369994375

Computation Completed


Properties will be evaluated at   0.000000,   0.000000,   0.000000 [a0]

Properties computed using the SCF density matrix

  Nuclear Dipole Moment: [e a0]
     X:   -36.7895      Y:     3.1137      Z:    12.0655

  Electronic Dipole Moment: [e a0]
     X:    37.2857      Y:    -0.2964      Z:   -12.3889

  Dipole Moment: [e a0]
     X:     0.4962      Y:     2.8172      Z:    -0.3234     Total:     2.8788

  Dipole Moment: [D]
     X:     1.2613      Y:     7.1607      Z:    -0.8220     Total:     7.3173


*** tstop() called on node89.bme.utexas.edu at Tue Apr 14 07:00:28 2020
Module time:
	user time   =    4499.02 seconds =      74.98 minutes
	system time =      44.72 seconds =       0.75 minutes
	total time  =        805 seconds =      13.42 minutes
Total time:
	user time   =    4499.02 seconds =      74.98 minutes
	system time =      44.72 seconds =       0.75 minutes
	total time  =        805 seconds =      13.42 minutes

*** tstart() called on node89.bme.utexas.edu
*** at Tue Apr 14 07:00:28 2020


  //>>>>>>>>>>>>>>>>>>>>>>>>>>>>>>>>>>>//
  //               DFMP2               //
  //<<<<<<<<<<<<<<<<<<<<<<<<<<<<<<<<<<<//

   => Loading Basis Set <=

    Name: (6-311++G** AUX)
    Role: RIFIT
    Keyword: DF_BASIS_MP2
    atoms 1-4, 6-9, 11, 14-19, 21-28, 30-31, 33-35, 37 entry C          line   148 file /home/bdw2292/miniconda3/envs/p4env/share/psi4/basis/aug-cc-pvtz-ri.gbs 
    atoms 5, 10, 12-13, 20, 29, 32                     entry N          line   206 file /home/bdw2292/miniconda3/envs/p4env/share/psi4/basis/aug-cc-pvtz-ri.gbs 
    atoms 36                                           entry O          line   264 file /home/bdw2292/miniconda3/envs/p4env/share/psi4/basis/aug-cc-pvtz-ri.gbs 
    atoms 38-68                                        entry H          line    30 file /home/bdw2292/miniconda3/envs/p4env/share/psi4/basis/aug-cc-pvtz-ri.gbs 

	 --------------------------------------------------------
	                          DF-MP2                         
	      2nd-Order Density-Fitted Moller-Plesset Theory     
	              RMP2 Wavefunction,   6 Threads             
	                                                         
	        Rob Parrish, Justin Turney, Andy Simmonett,      
	           Ed Hohenstein, and C. David Sherrill          
	 --------------------------------------------------------

   => Auxiliary Basis Set <=

  Basis Set: (6-311++G** AUX)
    Blend: AUG-CC-PVTZ-RI
    Number of shells: 1470
    Number of basis function: 5348
    Number of Cartesian functions: 6737
    Spherical Harmonics?: true
    Max angular momentum: 4

	 --------------------------------------------------------
	                 NBF =  1031, NAUX =  5348
	 --------------------------------------------------------
	   CLASS    FOCC     OCC    AOCC    AVIR     VIR    FVIR
	   PAIRS      37     131      94     900     900       0
	 --------------------------------------------------------

	-----------------------------------------------------------
	 ==================> DF-MP2 Energies <==================== 
	-----------------------------------------------------------
	 Reference Energy          =   -1572.3434666369998922 [Eh]
	 Singles Energy            =      -0.0000000000000000 [Eh]
	 Same-Spin Energy          =      -1.4705309661880386 [Eh]
	 Opposite-Spin Energy      =      -4.0474008091221556 [Eh]
	 Correlation Energy        =      -5.5179317753101937 [Eh]
	 Total Energy              =   -1577.8613984123101091 [Eh]
	-----------------------------------------------------------
	 ================> DF-SCS-MP2 Energies <================== 
	-----------------------------------------------------------
	 SCS Same-Spin Scale       =       0.3333333333333333 [-]
	 SCS Opposite-Spin Scale   =       1.2000000000000000 [-]
	 SCS Same-Spin Energy      =      -0.4901769887293462 [Eh]
	 SCS Opposite-Spin Energy  =      -4.8568809709465866 [Eh]
	 SCS Correlation Energy    =      -5.3470579596759329 [Eh]
	 SCS Total Energy          =   -1577.6905245966759139 [Eh]
	-----------------------------------------------------------


*** tstop() called on node89.bme.utexas.edu at Tue Apr 14 07:08:13 2020
Module time:
	user time   =    2604.53 seconds =      43.41 minutes
	system time =      16.83 seconds =       0.28 minutes
	total time  =        465 seconds =       7.75 minutes
Total time:
	user time   =    7103.55 seconds =     118.39 minutes
	system time =      61.55 seconds =       1.03 minutes
	total time  =       1270 seconds =      21.17 minutes


Properties will be evaluated at   0.000000,   0.000000,   0.000000 [a0]
OEProp: No title given, name of density matrix used for the following properties is 'SCF density'


  Wiberg Bond Indices using Orthogonal Lowdin Orbitals:

  Irrep: 1 Size: 68 x 68

                 1                   2                   3                   4                   5

    1     0.00000000000000     1.46359521583630     0.12517558285851     0.14050300902452     0.12374593503361
    2     1.46359521583630     0.00000000000000     1.40207054629413     0.12855194671823     0.12157097421553
    3     0.12517558285851     1.40207054629413     0.00000000000000     1.36099775876621     0.11854883328434
    4     0.14050300902452     0.12855194671823     1.36099775876621     0.00000000000000     1.66055139245851
    5     0.12374593503361     0.12157097421553     0.11854883328434     1.66055139245851     0.00000000000000
    6     1.46608575699240     0.13803907385652     0.13568577092171     0.15346077757350     1.62606332094934
    7     0.01459045961771     0.10277740511451     1.02000241093166     0.10422089249473     0.01390122829212
    8     0.00352675122878     0.04123680923579     0.09810368691669     0.02381036524302     0.00217848593823
    9     0.00036378342725     0.00464792063956     0.01472644146290     0.00409942076108     0.00066866299993
   10     0.00041126853697     0.00536066492665     0.00578421156823     0.00599951097232     0.00032052002786
   11     0.00085961403027     0.00332062570405     0.01798581799494     0.00687566293692     0.00043288959498
   12     0.00280242880321     0.02200372546898     0.11936076513953     0.06188452284508     0.00409233571143
   13     0.00016033993231     0.00046933513198     0.00162472011947     0.00093088360618     0.00008589373434
   14     0.00003043042528     0.00009381649906     0.00058177229118     0.00134599104014     0.00011398846151
   15     0.00001010078554     0.00002291280603     0.00006732619963     0.00014558278718     0.00001603173578
   16     0.00000212513351     0.00000625324348     0.00004286819795     0.00028557964011     0.00001329171958
   17     0.00001230519961     0.00001875230907     0.00005558426624     0.00027313514837     0.00004408125624
   18     0.00002896976158     0.00005470845580     0.00030493612443     0.00192085041527     0.00024254066208
   19     0.00017478152171     0.00024513064547     0.00208350983499     0.01052034412261     0.00063492144978
   20     0.00006719366162     0.00006975488989     0.00032558011019     0.00307975751867     0.00065584848204
   21     0.00001420484454     0.00001320350860     0.00005507410004     0.00040383140722     0.00021069223668
   22     0.00005900742182     0.00004353504427     0.00005132403820     0.00067475251444     0.00158598587295
   23     0.00052056513705     0.00033053329696     0.00044175843765     0.00714664621282     0.02309313267318
   24     0.00026482018317     0.00026051000590     0.00033333922311     0.00176643904634     0.01373140582205
   25     0.00002231618024     0.00002273326904     0.00002480897580     0.00013667665238     0.00071813525871
   26     0.00001202352852     0.00000744813257     0.00001894467008     0.00025561532728     0.00059159123467
   27     0.00001335735896     0.00000702561614     0.00001674384055     0.00021011313132     0.00061235592492
   28     0.00001285356580     0.00000501771979     0.00000524588170     0.00002319738289     0.00011569613180
   29     0.00000366702919     0.00000154252943     0.00000191865332     0.00000655800814     0.00002235889610
   30     0.00001802439184     0.00001358841656     0.00002285749170     0.00001945442164     0.00006767699042
   31     0.00002226968329     0.00002900379819     0.00003152642578     0.00002186007247     0.00009872757663
   32     0.00000388266722     0.00000154969858     0.00000273317855     0.00001333481594     0.00000990934935
   33     0.00000127587732     0.00000037796054     0.00000039601633     0.00000249584658     0.00000323555989
   34     0.00000154180646     0.00000066195540     0.00000075368804     0.00000382499494     0.00001389540771
   35     0.00000182832568     0.00000043233342     0.00000061382943     0.00000240182533     0.00000863343241
   36     0.00000217881824     0.00000254001976     0.00001295485753     0.00010701928305     0.00003762202286
   37     0.00000216131656     0.00000718375112     0.00003277690266     0.00003451263618     0.00000288459790
   38     0.88617130886090     0.07919115981092     0.01178216014204     0.00635456696070     0.01072196380202
   39     0.07733521700192     0.87058862998461     0.07299677409376     0.01178172019295     0.00395183085071
   40     0.00565085029078     0.01049341444886     0.06896372352695     0.84971597934986     0.08672706308291
   41     0.07680636047600     0.01177277995087     0.00604094335052     0.01592900457843     0.08822350557704
   42     0.00103975616258     0.01380172743317     0.01427091993660     0.00136759436745     0.00028963979748
   43     0.00004399612446     0.00027435953483     0.00143435312694     0.00031704358191     0.00007669234948
   44     0.00002421820411     0.00008163530614     0.00034839164197     0.00009155412600     0.00000774694932
   45     0.00000033899988     0.00000107275438     0.00000703001941     0.00001866886983     0.00000168957901
   46     0.00000097575404     0.00000165365157     0.00000706845971     0.00002403844443     0.00000756911161
   47     0.00013360098362     0.00019864667124     0.00202406547709     0.00757124874382     0.00054120161820
   48     0.00012479755865     0.00007117828963     0.00020403870931     0.00231968417833     0.00070914012614
   49     0.00035358245789     0.00014745947452     0.00028650379148     0.00522657370283     0.01275228382906
   50     0.00012548190659     0.00010044045168     0.00015335067845     0.00048615922903     0.00448753147835
   51     0.00000082277617     0.00000056074030     0.00000147237014     0.00001639522689     0.00003367843965
   52     0.00000142577118     0.00000072748832     0.00000132020929     0.00001115777160     0.00004130162200
   53     0.00000960174818     0.00000413734774     0.00000270701785     0.00000415034795     0.00003099016002
   54     0.00000069126379     0.00000021456686     0.00000034815938     0.00000698911075     0.00001467489477
   55     0.00002915516805     0.00001373055384     0.00004509599814     0.00001761300986     0.00004807314925
   56     0.00000321940394     0.00000032979531     0.00000072358432     0.00000428436847     0.00000186969695
   57     0.00000549421395     0.00000645521900     0.00000726273566     0.00000457590674     0.00001132219686
   58     0.00000982765662     0.00002697415160     0.00001430222808     0.00002856003403     0.00012104425748
   59     0.00000040630408     0.00000012555361     0.00000013329665     0.00000038573311     0.00000093528205
   60     0.00000009311734     0.00000002469430     0.00000005299303     0.00000017721160     0.00000048658088
   61     0.00000007968878     0.00000002284884     0.00000002712697     0.00000007939979     0.00000041968962
   62     0.00000007669076     0.00000003144427     0.00000001981562     0.00000025693301     0.00000089753915
   63     0.00000062931473     0.00000024194797     0.00000032160002     0.00000220898780     0.00000863708102
   64     0.00000073980997     0.00000014866447     0.00000009645855     0.00000059766464     0.00000159564526
   65     0.00000008354507     0.00000003562076     0.00000008848934     0.00000087119734     0.00000102284365
   66     0.00000073674528     0.00000194760389     0.00001193695809     0.00000870249780     0.00000062378157
   67     0.00000095228080     0.00000256494186     0.00000930912990     0.00000802514785     0.00000075565070
   68     0.00000024371364     0.00000065646176     0.00000374022282     0.00000787530896     0.00000045846256

                 6                   7                   8                   9                  10

    1     1.46608575699240     0.01459045961771     0.00352675122878     0.00036378342725     0.00041126853697
    2     0.13803907385652     0.10277740511451     0.04123680923579     0.00464792063956     0.00536066492665
    3     0.13568577092171     1.02000241093166     0.09810368691669     0.01472644146290     0.00578421156823
    4     0.15346077757350     0.10422089249473     0.02381036524302     0.00409942076108     0.00599951097232
    5     1.62606332094934     0.01390122829212     0.00217848593823     0.00066866299993     0.00032052002786
    6     0.00000000000000     0.00970815108732     0.00680266692097     0.00120383587027     0.00332930112185
    7     0.00970815108732     0.00000000000000     1.38794666184916     0.14645485844349     0.11216471850097
    8     0.00680266692097     1.38794666184916     0.00000000000000     1.43225451516848     0.13028487568152
    9     0.00120383587027     0.14645485844349     1.43225451516848     0.00000000000000     1.66112342186342
   10     0.00332930112185     0.11216471850097     0.13028487568152     1.66112342186342     0.00000000000000
   11     0.00083779171225     0.14159890879180     0.11334843919879     0.15263604338731     1.50903442869550
   12     0.00602775487673     1.53233126344373     0.12695780538432     0.11139650478182     0.11037181678674
   13     0.00007204184761     0.01932618745360     0.02056211682949     0.02412954324940     0.15937711484776
   14     0.00004354541158     0.00292645505705     0.00247600456451     0.00325712911431     0.01682007114086
   15     0.00000548913647     0.00050392086656     0.00145235801177     0.00092986024795     0.00312796486991
   16     0.00000442601836     0.00016544834535     0.00019315491031     0.00016253116866     0.00047428817642
   17     0.00000787382892     0.00025293622737     0.00130659158578     0.00043948615277     0.00127384655067
   18     0.00004663595708     0.00057264543052     0.00026678803076     0.00014251882468     0.00040954660647
   19     0.00019374660250     0.00586161695874     0.00314170817386     0.00153795785998     0.00431359456345
   20     0.00007748662844     0.00013446335708     0.00002931192649     0.00001792817947     0.00005743576505
   21     0.00002499959201     0.00002237054536     0.00000828259162     0.00000468372596     0.00001567454649
   22     0.00016237208939     0.00000847612569     0.00000303895034     0.00000127534465     0.00000338209719
   23     0.00224587913701     0.00007038195912     0.00001585639381     0.00000424652338     0.00000343568845
   24     0.00331658040189     0.00003540931652     0.00001985442031     0.00000332037727     0.00000341240277
   25     0.00029358086977     0.00000370067567     0.00000259682899     0.00000043493253     0.00000077180908
   26     0.00015287334669     0.00000206325836     0.00000064839416     0.00000019412845     0.00000023463623
   27     0.00015359078623     0.00000304274213     0.00000120218186     0.00000038998084     0.00000087624912
   28     0.00008631186907     0.00000117677813     0.00000053682605     0.00000009585999     0.00000023403894
   29     0.00004593854441     0.00000030116650     0.00000019136001     0.00000004018689     0.00000006338637
   30     0.00014304694283     0.00000128449432     0.00000189878222     0.00000024427127     0.00000098768167
   31     0.00006286392368     0.00000210780528     0.00000142659215     0.00000040573045     0.00000054422947
   32     0.00002006428438     0.00000027447234     0.00000017396238     0.00000007833080     0.00000003920580
   33     0.00000756323985     0.00000006196842     0.00000008341197     0.00000001082973     0.00000000472922
   34     0.00000895728058     0.00000011821750     0.00000004356105     0.00000002275082     0.00000001591796
   35     0.00002071467945     0.00000007261754     0.00000006292900     0.00000001706258     0.00000003009146
   36     0.00000736172417     0.00001020674015     0.00000783434802     0.00000385919116     0.00001052386967
   37     0.00000177870280     0.00014347444664     0.00013514380457     0.00013216049382     0.00070613794007
   38     0.08249754688998     0.00128842548025     0.00024585920695     0.00003891544318     0.00002558624275
   39     0.01171375613583     0.01612435418738     0.01454462639433     0.00112306164463     0.00039427400354
   40     0.01473361718002     0.01574393492572     0.00169395769739     0.00040646053848     0.00058814482507
   41     0.87877356118424     0.00054157231933     0.00026315366000     0.00005235174597     0.00010355036622
   42     0.00047024437609     0.07532735969800     0.87660525776964     0.08074164317821     0.01045070805272
   43     0.00004352152141     0.01169020104170     0.07504033880989     0.87557003086517     0.09026289728889
   44     0.00001140690291     0.00206613346813     0.00201854648179     0.00363683499802     0.03114891346422
   45     0.00000041937431     0.00001866912200     0.00000764850884     0.00002306019348     0.00005179193132
   46     0.00000114506894     0.00002333083138     0.00004201526578     0.00001656408481     0.00005212806583
   47     0.00018518937790     0.00424655593576     0.00093337592442     0.00044241651777     0.00075745718628
   48     0.00009054316257     0.00008745264203     0.00002892457273     0.00001018732619     0.00002136283442
   49     0.00127017182785     0.00005305826961     0.00001179884195     0.00000334921868     0.00000285793342
   50     0.00223340009758     0.00001595616294     0.00000696359897     0.00000124011081     0.00000081429935
   51     0.00000705654961     0.00000012450832     0.00000007229316     0.00000002216268     0.00000003707411
   52     0.00001233987978     0.00000042077589     0.00000011403935     0.00000006230732     0.00000013725225
   53     0.00004015410850     0.00000048223448     0.00000023496301     0.00000003146594     0.00000007861422
   54     0.00000579362829     0.00000010868958     0.00000005301880     0.00000000480865     0.00000000988944
   55     0.00015628176880     0.00000209153869     0.00000444023225     0.00000062789088     0.00000214123623
   56     0.00004117445468     0.00000007193261     0.00000002237059     0.00000000534973     0.00000001486775
   57     0.00000933032432     0.00000056428286     0.00000028553774     0.00000006709260     0.00000006057586
   58     0.00004374169736     0.00000222511789     0.00000054498941     0.00000011958960     0.00000030890833
   59     0.00000274260263     0.00000001507255     0.00000003576174     0.00000000323838     0.00000000495546
   60     0.00000080001051     0.00000001307428     0.00000001427273     0.00000000211981     0.00000000305078
   61     0.00000033326525     0.00000000661711     0.00000000602190     0.00000000132027     0.00000000103679
   62     0.00000155392251     0.00000001036290     0.00000000985203     0.00000000382366     0.00000000305777
   63     0.00000454952414     0.00000008841171     0.00000001631288     0.00000000869048     0.00000002633089
   64     0.00001185378081     0.00000001277470     0.00000000891193     0.00000000347125     0.00000000693784
   65     0.00000095055082     0.00000001158934     0.00000002092487     0.00000000253542     0.00000000452925
   66     0.00000036460084     0.00004553511662     0.00007642360819     0.00004294985235     0.00025974613592
   67     0.00000110394264     0.00004191311004     0.00010274125230     0.00003794968829     0.00026939524216
   68     0.00000015522279     0.00001431379127     0.00000472971843     0.00000414279592     0.00002997076667

                11                  12                  13                  14                  15

    1     0.00085961403027     0.00280242880321     0.00016033993231     0.00003043042528     0.00001010078554
    2     0.00332062570405     0.02200372546898     0.00046933513198     0.00009381649906     0.00002291280603
    3     0.01798581799494     0.11936076513953     0.00162472011947     0.00058177229118     0.00006732619963
    4     0.00687566293692     0.06188452284508     0.00093088360618     0.00134599104014     0.00014558278718
    5     0.00043288959498     0.00409233571143     0.00008589373434     0.00011398846151     0.00001603173578
    6     0.00083779171225     0.00602775487673     0.00007204184761     0.00004354541158     0.00000548913647
    7     0.14159890879180     1.53233126344373     0.01932618745360     0.00292645505705     0.00050392086656
    8     0.11334843919879     0.12695780538432     0.02056211682949     0.00247600456451     0.00145235801177
    9     0.15263604338731     0.11139650478182     0.02412954324940     0.00325712911431     0.00092986024795
   10     1.50903442869550     0.11037181678674     0.15937711484776     0.01682007114086     0.00312796486991
   11     0.00000000000000     1.53294700006066     1.27055404749153     0.08247169581592     0.01780202172983
   12     1.53294700006066     0.00000000000000     0.14175569419690     0.02964168889866     0.00348004459694
   13     1.27055404749153     0.14175569419690     0.00000000000000     1.12493986659419     0.10521217104551
   14     0.08247169581592     0.02964168889866     1.12493986659419     0.00000000000000     1.31704555113692
   15     0.01780202172983     0.00348004459694     0.10521217104551     1.31704555113692     0.00000000000000
   16     0.00237282693779     0.00117549844695     0.01426576950158     0.12558332408420     1.44146068059079
   17     0.00410168710324     0.00248300030700     0.01184115255134     0.11962368069267     0.12404438407569
   18     0.00244116965797     0.00498597534247     0.01310254571749     0.12213625247003     0.12001747264592
   19     0.02853535170364     0.05577711864170     0.11032820748662     1.40261602328923     0.12005396708652
   20     0.00034366628277     0.00109505756801     0.00131135948527     0.01502674799902     0.01138803394565
   21     0.00006109109572     0.00013147900113     0.00030043344403     0.00274407806279     0.00571008364410
   22     0.00001197555672     0.00002925430195     0.00005521070785     0.00035347850663     0.00033532547379
   23     0.00001529794088     0.00012404227207     0.00001362864982     0.00011934962104     0.00035983529454
   24     0.00000275591135     0.00001561966139     0.00000283005074     0.00001258759593     0.00003632291500
   25     0.00000080341855     0.00000281648589     0.00000171663890     0.00002234494853     0.00014143082658
   26     0.00000064364008     0.00000146518635     0.00000220004128     0.00001751405709     0.00003184725213
   27     0.00000334097688     0.00000450419412     0.00001268654834     0.00009466416843     0.00029060647146
   28     0.00000023259684     0.00000063292045     0.00000019054844     0.00000191649038     0.00000987620397
   29     0.00000005852661     0.00000021565966     0.00000007993001     0.00000103161037     0.00000526509884
   30     0.00000016070022     0.00000150265306     0.00000012194162     0.00000046968348     0.00000120635026
   31     0.00000021480334     0.00000104081688     0.00000007466510     0.00000059832966     0.00000124143469
   32     0.00000013281042     0.00000036543114     0.00000005036647     0.00000030063277     0.00000034090258
   33     0.00000001984512     0.00000005514737     0.00000000816554     0.00000010332738     0.00000012947988
   34     0.00000004214266     0.00000012900166     0.00000006518554     0.00000032840397     0.00000022815570
   35     0.00000003331538     0.00000006272593     0.00000004721076     0.00000033442663     0.00000060939452
   36     0.00003837705543     0.00005282832971     0.00014531537822     0.00099750970021     0.00331274175160
   37     0.00353027272431     0.00078170625848     0.03757309780821     0.09667179626498     1.05950338297609
   38     0.00008956697770     0.00031381239302     0.00001581137109     0.00000718683431     0.00000081247217
   39     0.00028965329779     0.00109223340290     0.00006909307388     0.00002543160102     0.00000409179082
   40     0.00275970358035     0.02510394397338     0.00044403623396     0.00120708033273     0.00014714097691
   41     0.00004325984057     0.00025200626890     0.00000583709038     0.00000397711063     0.00000060301061
   42     0.00575470948388     0.01075133359973     0.00104420007622     0.00012061306917     0.00006526489144
   43     0.01583768063807     0.00401714733370     0.00135756793047     0.00038618502324     0.00006263913161
   44     0.07380799253141     0.01155230401389     0.93462092036271     0.05933844780710     0.01473934046468
   45     0.00036503957415     0.00006313468591     0.00115238242473     0.01143232827552     0.07484927068523
   46     0.00014678277804     0.00015754253865     0.00051395409300     0.00525488482315     0.01052093530224
   47     0.00969776742673     0.03779318498275     0.01582958899227     0.07318635872629     0.00972251566723
   48     0.00012161102600     0.00066869904731     0.00017703193748     0.00206092388667     0.00111583691433
   49     0.00001030308640     0.00006279773201     0.00000531035400     0.00003934454563     0.00011403327547
   50     0.00000097905182     0.00000401419379     0.00000036022725     0.00000143073265     0.00000152191393
   51     0.00000007248321     0.00000015773192     0.00000048489868     0.00000262713472     0.00000331515014
   52     0.00000069608507     0.00000063706401     0.00000223323289     0.00001507093893     0.00001952955378
   53     0.00000004572211     0.00000023827772     0.00000004723433     0.00000017556714     0.00000017734191
   54     0.00000002956871     0.00000005586129     0.00000006363299     0.00000070970480     0.00000535130796
   55     0.00000022712287     0.00000183498700     0.00000012274907     0.00000007794355     0.00000006540666
   56     0.00000001287831     0.00000013763215     0.00000000990136     0.00000006790613     0.00000031099509
   57     0.00000002745529     0.00000018214484     0.00000001143813     0.00000007328448     0.00000013005603
   58     0.00000026498331     0.00000056452787     0.00000006500789     0.00000082221301     0.00000281209776
   59     0.00000000389175     0.00000001202203     0.00000000251469     0.00000000958779     0.00000002716414
   60     0.00000000257282     0.00000000626305     0.00000000245674     0.00000002186402     0.00000002011181
   61     0.00000000159264     0.00000000465448     0.00000000158761     0.00000000709011     0.00000000883485
   62     0.00000000374607     0.00000000912846     0.00000000881047     0.00000003108432     0.00000006406632
   63     0.00000003268729     0.00000009791465     0.00000002297191     0.00000010091111     0.00000009645813
   64     0.00000000428344     0.00000001539261     0.00000000363516     0.00000005972013     0.00000030710348
   65     0.00000000835097     0.00000002031499     0.00000001908647     0.00000008631242     0.00000006879942
   66     0.00081849566234     0.00027185188489     0.00976588660214     0.01646348630327     0.05725807736428
   67     0.00081987973646     0.00027466998585     0.00923462019652     0.01658866311752     0.05884168362028
   68     0.00022580925603     0.00005999389669     0.00197536868601     0.00896174440408     0.05989002691572

                16                  17                  18                  19                  20

    1     0.00000212513351     0.00001230519961     0.00002896976158     0.00017478152171     0.00006719366162
    2     0.00000625324348     0.00001875230907     0.00005470845580     0.00024513064547     0.00006975488989
    3     0.00004286819795     0.00005558426624     0.00030493612443     0.00208350983499     0.00032558011019
    4     0.00028557964011     0.00027313514837     0.00192085041527     0.01052034412261     0.00307975751867
    5     0.00001329171958     0.00004408125624     0.00024254066208     0.00063492144978     0.00065584848204
    6     0.00000442601836     0.00000787382892     0.00004663595708     0.00019374660250     0.00007748662844
    7     0.00016544834535     0.00025293622737     0.00057264543052     0.00586161695874     0.00013446335708
    8     0.00019315491031     0.00130659158578     0.00026678803076     0.00314170817386     0.00002931192649
    9     0.00016253116866     0.00043948615277     0.00014251882468     0.00153795785998     0.00001792817947
   10     0.00047428817642     0.00127384655067     0.00040954660647     0.00431359456345     0.00005743576505
   11     0.00237282693779     0.00410168710324     0.00244116965797     0.02853535170364     0.00034366628277
   12     0.00117549844695     0.00248300030700     0.00498597534247     0.05577711864170     0.00109505756801
   13     0.01426576950158     0.01184115255134     0.01310254571749     0.11032820748662     0.00131135948527
   14     0.12558332408420     0.11962368069267     0.12213625247003     1.40261602328923     0.01502674799902
   15     1.44146068059079     0.12404438407569     0.12001747264592     0.12005396708652     0.01138803394565
   16     0.00000000000000     1.44453017478100     0.13311364098700     0.12570845647869     0.01368975203732
   17     1.44453017478100     0.00000000000000     1.39986654026256     0.12210617082113     0.10464137484339
   18     0.13311364098700     1.39986654026256     0.00000000000000     1.36243051647586     1.12637860017414
   19     0.12570845647869     0.12210617082113     1.36243051647586     0.00000000000000     0.12410046659336
   20     0.01368975203732     0.10464137484339     1.12637860017414     0.12410046659336     0.00000000000000
   21     0.00272801060992     0.03086872392132     0.08590345951597     0.02243258666628     1.31221181229693
   22     0.00035364782646     0.00324998736805     0.01470485509524     0.00211595984770     0.10619507996355
   23     0.00014564232926     0.00120149138503     0.00413384344956     0.00131716359455     0.04319861445566
   24     0.00002136657793     0.00015833686392     0.00043053331720     0.00013703332852     0.00386362180865
   25     0.00002586549154     0.00024246128443     0.00046593077346     0.00020786315991     0.00340949880669
   26     0.00002151739724     0.00013651893932     0.00050808208196     0.00010597119370     0.00253682771383
   27     0.00010131993939     0.00085850740597     0.00232933301760     0.00064568883996     0.01799864721638
   28     0.00000233894807     0.00002045665053     0.00004237947655     0.00001708928580     0.00025056231528
   29     0.00000113228370     0.00000856748913     0.00002226152294     0.00000784204617     0.00013744034292
   30     0.00000037834272     0.00000261243296     0.00000437198911     0.00000236782911     0.00002655597215
   31     0.00000042067546     0.00000309501908     0.00000468355797     0.00000346785511     0.00003320744179
   32     0.00000011254836     0.00000064149163     0.00000219011464     0.00000083849363     0.00000740481737
   33     0.00000005684671     0.00000026819226     0.00000048241795     0.00000023994739     0.00000187103916
   34     0.00000041946927     0.00000188071999     0.00000549744900     0.00000149191441     0.00002598313402
   35     0.00000039656614     0.00000226485383     0.00000664499217     0.00000169690767     0.00003210290995
   36     0.00330642729290     0.04682353963114     0.03121957092860     0.00521273934518     0.19188834069033
   37     0.11515484891729     0.01433731675055     0.00738965017394     0.01408975303771     0.00072850259274
   38     0.00000034233616     0.00000069875331     0.00000554604379     0.00002283988404     0.00000539995148
   39     0.00000174479015     0.00000216298440     0.00000628980742     0.00003716198551     0.00000695834648
   40     0.00025893236196     0.00024635561016     0.00184401221805     0.00842107648167     0.00208790586281
   41     0.00000050003883     0.00000079788441     0.00000281392606     0.00001365314407     0.00000566638972
   42     0.00001084133985     0.00004750332037     0.00003040807004     0.00020247973444     0.00000685939791
   43     0.00001567996867     0.00001176908504     0.00001517415663     0.00010747735813     0.00000174122504
   44     0.00148646882337     0.00107773559415     0.00129178007425     0.01047454468246     0.00023964191490
   45     0.87162804443625     0.07893267786141     0.01178248925511     0.00567941435391     0.00103367865863
   46     0.07700090009096     0.86061911366532     0.07592566447852     0.01127609270813     0.01468210926740
   47     0.00569861573335     0.01027651452526     0.07192676588795     0.83791493286062     0.02424825631873
   48     0.00136533398587     0.01008207810646     0.06251187281736     0.02158434945003     0.93588917583106
   49     0.00005089118741     0.00035122137244     0.00155401897441     0.00065342214874     0.01523718570329
   50     0.00000203332392     0.00001195272626     0.00003205432055     0.00000979142424     0.00021271478863
   51     0.00000267734884     0.00001751572637     0.00006412216427     0.00001685402808     0.00027685934836
   52     0.00002598019330     0.00016000672861     0.00024508128783     0.00007194245654     0.00163549154521
   53     0.00000043267222     0.00000230963805     0.00000523998029     0.00000125002945     0.00002155894630
   54     0.00000079742580     0.00000842417514     0.00001271761019     0.00000735424263     0.00008638213222
   55     0.00000006189663     0.00000020497940     0.00000051530601     0.00000018617600     0.00000326202107
   56     0.00000010091975     0.00000051593421     0.00000125533084     0.00000058688925     0.00000980289618
   57     0.00000002857684     0.00000028165828     0.00000044905040     0.00000046637689     0.00000244139558
   58     0.00000100956763     0.00000926957122     0.00001239546061     0.00000970558112     0.00005513019975
   59     0.00000001472696     0.00000005446337     0.00000009610369     0.00000007154146     0.00000049824792
   60     0.00000000712543     0.00000004264299     0.00000006865405     0.00000003024436     0.00000031604831
   61     0.00000000871511     0.00000003298342     0.00000006385783     0.00000002713863     0.00000024113145
   62     0.00000003062903     0.00000017025060     0.00000037568498     0.00000017265051     0.00000194083984
   63     0.00000027025914     0.00000106137558     0.00000343422102     0.00000058051906     0.00001960993514
   64     0.00000005147793     0.00000049287313     0.00000066178079     0.00000059460923     0.00000553972563
   65     0.00000008536966     0.00000045135340     0.00000180159008     0.00000042554066     0.00000949244012
   66     0.01459440114471     0.00125610826136     0.00277068514357     0.00120286045407     0.00035163198399
   67     0.01553302657473     0.00126012216463     0.00297050736923     0.00126901767149     0.00035508017213
   68     0.02374510235082     0.00189920647070     0.00055272513807     0.00109817959671     0.00008282846115

                21                  22                  23                  24                  25

    1     0.00001420484454     0.00005900742182     0.00052056513705     0.00026482018317     0.00002231618024
    2     0.00001320350860     0.00004353504427     0.00033053329696     0.00026051000590     0.00002273326904
    3     0.00005507410004     0.00005132403820     0.00044175843765     0.00033333922311     0.00002480897580
    4     0.00040383140722     0.00067475251444     0.00714664621282     0.00176643904634     0.00013667665238
    5     0.00021069223668     0.00158598587295     0.02309313267318     0.01373140582205     0.00071813525871
    6     0.00002499959201     0.00016237208939     0.00224587913701     0.00331658040189     0.00029358086977
    7     0.00002237054536     0.00000847612569     0.00007038195912     0.00003540931652     0.00000370067567
    8     0.00000828259162     0.00000303895034     0.00001585639381     0.00001985442031     0.00000259682899
    9     0.00000468372596     0.00000127534465     0.00000424652338     0.00000332037727     0.00000043493253
   10     0.00001567454649     0.00000338209719     0.00000343568845     0.00000341240277     0.00000077180908
   11     0.00006109109572     0.00001197555672     0.00001529794088     0.00000275591135     0.00000080341855
   12     0.00013147900113     0.00002925430195     0.00012404227207     0.00001561966139     0.00000281648589
   13     0.00030043344403     0.00005521070785     0.00001362864982     0.00000283005074     0.00000171663890
   14     0.00274407806279     0.00035347850663     0.00011934962104     0.00001258759593     0.00002234494853
   15     0.00571008364410     0.00033532547379     0.00035983529454     0.00003632291500     0.00014143082658
   16     0.00272801060992     0.00035364782646     0.00014564232926     0.00002136657793     0.00002586549154
   17     0.03086872392132     0.00324998736805     0.00120149138503     0.00015833686392     0.00024246128443
   18     0.08590345951597     0.01470485509524     0.00413384344956     0.00043053331720     0.00046593077346
   19     0.02243258666628     0.00211595984770     0.00131716359455     0.00013703332852     0.00020786315991
   20     1.31221181229693     0.10619507996355     0.04319861445566     0.00386362180865     0.00340949880669
   21     0.00000000000000     0.97175129649390     0.10463687906645     0.01445751278931     0.01111332577510
   22     0.97175129649390     0.00000000000000     1.40497729570560     0.12734357310574     0.12398847964438
   23     0.10463687906645     1.40497729570560     0.00000000000000     1.45237713213187     0.12656065514739
   24     0.01445751278931     0.12734357310574     1.45237713213187     0.00000000000000     1.41174958438841
   25     0.01111332577510     0.12398847964438     0.12656065514739     1.41174958438841     0.00000000000000
   26     0.01479570324754     0.12730393860533     0.13039621008405     0.12640833839154     1.38684681981369
   27     0.11079445310687     1.38115387329125     0.12473225599181     0.13126138120052     0.12593704957156
   28     0.00073336740202     0.00895683853432     0.01426900468189     0.11328059741196     1.01602367955205
   29     0.00031820293395     0.00363444338129     0.00187873089084     0.01858448920978     0.08514345148849
   30     0.00009454842007     0.00098375598934     0.00124815414614     0.00971113441385     0.02138554032957
   31     0.00012005597200     0.00232969209481     0.00524357456219     0.01430716195458     0.02109228597172
   32     0.00005437386454     0.00055766517830     0.00086479561204     0.00161154348889     0.00347932799173
   33     0.00000743365980     0.00009571745388     0.00017731616793     0.00043457884361     0.00089546851427
   34     0.00007645705126     0.00106088136749     0.00157292767185     0.00210986963245     0.01323300040775
   35     0.00008943205783     0.00087883612284     0.00073709518987     0.00350351594242     0.01973049025677
   36     2.18114464427196     0.13590413343473     0.02491383954696     0.00304915099868     0.00608642552187
[...]
   15     0.00000031099509     0.00000013005603     0.00000281209776     0.00000002716414     0.00000002011181
   16     0.00000010091975     0.00000002857684     0.00000100956763     0.00000001472696     0.00000000712543
   17     0.00000051593421     0.00000028165828     0.00000926957122     0.00000005446337     0.00000004264299
   18     0.00000125533084     0.00000044905040     0.00001239546061     0.00000009610369     0.00000006865405
   19     0.00000058688925     0.00000046637689     0.00000970558112     0.00000007154146     0.00000003024436
   20     0.00000980289618     0.00000244139558     0.00005513019975     0.00000049824792     0.00000031604831
   21     0.00003267410606     0.00001095780702     0.00014415848952     0.00000165919545     0.00000140779710
   22     0.00027414621111     0.00012894017190     0.00285610443417     0.00000986366396     0.00001463939794
   23     0.00022524096097     0.00018848284248     0.00544570147841     0.00001756814167     0.00002791526778
   24     0.00070638533723     0.00047268599348     0.01233489415377     0.00006060484073     0.00004810549483
   25     0.00160024649357     0.00082147523538     0.01576283730644     0.00015150047439     0.00009759068891
   26     0.00069474861323     0.00037935899426     0.00794688627874     0.00010118057317     0.00006367856388
   27     0.00027992507846     0.00013168195832     0.00328845187481     0.00002584796137     0.00002226247753
   28     0.01145203345758     0.00121203048032     0.00768799534164     0.00062309472347     0.00011580053164
   29     0.06211125511050     0.01073777980202     0.01274570459149     0.00285579324325     0.00058551066103
   30     0.80642673411749     0.06027126493270     0.04569619204985     0.01201116660172     0.00371613021934
   31     0.04745998911298     0.88272292135223     0.76426820343322     0.01628168600625     0.01863641313810
   32     0.01305136712310     0.05777881810526     0.06086272579381     0.06815160694313     0.06323623202270
   33     0.01316139104497     0.02008532616918     0.01314718327275     0.91037622684766     0.91979697411293
   34     0.00773432467385     0.01313640519214     0.01832469172504     0.01645856143395     0.01263579399978
   35     0.02076194300375     0.00244429846059     0.00782266064634     0.01248019389670     0.00167349199027
   36     0.00001158200293     0.00000424803523     0.00007326614666     0.00000068526371     0.00000057275437
   37     0.00000002432196     0.00000001302271     0.00000022212017     0.00000000195026     0.00000000303122
   38     0.00000060688768     0.00000197059162     0.00000132388115     0.00000004747543     0.00000000973582
   39     0.00000004458841     0.00000019996791     0.00000079403551     0.00000001229834     0.00000000281146
   40     0.00000124878175     0.00000125545741     0.00000606027292     0.00000007331198     0.00000007408057
   41     0.00001767004674     0.00000297906671     0.00000707486321     0.00000056721568     0.00000028669126
   42     0.00000000281534     0.00000004201518     0.00000008572921     0.00000000073955     0.00000000061063
   43     0.00000000053982     0.00000000122895     0.00000000986135     0.00000000035599     0.00000000029617
   44     0.00000000127119     0.00000000177529     0.00000001654795     0.00000000040553     0.00000000049913
   45     0.00000000904525     0.00000000345204     0.00000022683651     0.00000000173571     0.00000000029848
   46     0.00000006137634     0.00000005294531     0.00000215279558     0.00000000499860     0.00000000475071
   47     0.00000043993633     0.00000044782291     0.00000220967052     0.00000001842841     0.00000000580852
   48     0.00002116085115     0.00000716963441     0.00006933494702     0.00000048822010     0.00000056989873
   49     0.00002241639541     0.00001856331849     0.00035694496428     0.00000211704640     0.00000268292086
   50     0.00005203028803     0.00005700109317     0.00185422870088     0.00001247279533     0.00000901342531
   51     0.00018435471718     0.00003834431085     0.00101279147258     0.00005957921181     0.00002470803544
   52     0.00002130878451     0.00000823682005     0.00015991062745     0.00000205355507     0.00000125801445
   53     0.00115221012308     0.00013233405543     0.00125788610802     0.00006326624636     0.00002158573527
   54     0.00052113831537     0.00028250344271     0.00047364980299     0.00006050975251     0.00002189117174
   55     0.01836109948185     0.00563727832065     0.00927377673430     0.00036293366017     0.00010142650135
   56     0.00000000000000     0.00856149400537     0.02138317238284     0.00621428306611     0.00144843379292
   57     0.00856149400537     0.00000000000000     0.02080182516281     0.00281347795235     0.00626904474162
   58     0.02138317238284     0.02080182516281     0.00000000000000     0.00099075479166     0.00109409252924
   59     0.00621428306611     0.00281347795235     0.00099075479166     0.00000000000000     0.03497636235271
   60     0.00144843379292     0.00626904474162     0.00109409252924     0.03497636235271     0.00000000000000
   61     0.00053075328038     0.00111503361107     0.00065604551420     0.03477470300138     0.03772858238597
   62     0.00037862408130     0.00125123457518     0.00109879803305     0.00339685566092     0.00128091922367
   63     0.00096187731230     0.00103065417835     0.00502553361335     0.00093774673089     0.00082693049876
   64     0.00542513891974     0.00044440800237     0.00071705528704     0.00701473732548     0.00060986635178
   65     0.00080560425617     0.00034406637983     0.00050216304102     0.00052382917792     0.00021726830714
   66     0.00000001021676     0.00000000451185     0.00000006304363     0.00000000083580     0.00000000055824
   67     0.00000001367025     0.00000000569605     0.00000010847807     0.00000000123406     0.00000000046078
   68     0.00000000114592     0.00000000161902     0.00000001593185     0.00000000021462     0.00000000018744

                61                  62                  63                  64                  65

    1     0.00000007968878     0.00000007669076     0.00000062931473     0.00000073980997     0.00000008354507
    2     0.00000002284884     0.00000003144427     0.00000024194797     0.00000014866447     0.00000003562076
    3     0.00000002712697     0.00000001981562     0.00000032160002     0.00000009645855     0.00000008848934
    4     0.00000007939979     0.00000025693301     0.00000220898780     0.00000059766464     0.00000087119734
    5     0.00000041968962     0.00000089753915     0.00000863708102     0.00000159564526     0.00000102284365
    6     0.00000033326525     0.00000155392251     0.00000454952414     0.00001185378081     0.00000095055082
    7     0.00000000661711     0.00000001036290     0.00000008841171     0.00000001277470     0.00000001158934
    8     0.00000000602190     0.00000000985203     0.00000001631288     0.00000000891193     0.00000002092487
    9     0.00000000132027     0.00000000382366     0.00000000869048     0.00000000347125     0.00000000253542
   10     0.00000000103679     0.00000000305777     0.00000002633089     0.00000000693784     0.00000000452925
   11     0.00000000159264     0.00000000374607     0.00000003268729     0.00000000428344     0.00000000835097
   12     0.00000000465448     0.00000000912846     0.00000009791465     0.00000001539261     0.00000002031499
   13     0.00000000158761     0.00000000881047     0.00000002297191     0.00000000363516     0.00000001908647
   14     0.00000000709011     0.00000003108432     0.00000010091111     0.00000005972013     0.00000008631242
   15     0.00000000883485     0.00000006406632     0.00000009645813     0.00000030710348     0.00000006879942
   16     0.00000000871511     0.00000003062903     0.00000027025914     0.00000005147793     0.00000008536966
   17     0.00000003298342     0.00000017025060     0.00000106137558     0.00000049287313     0.00000045135340
   18     0.00000006385783     0.00000037568498     0.00000343422102     0.00000066178079     0.00000180159008
   19     0.00000002713863     0.00000017265051     0.00000058051906     0.00000059460923     0.00000042554066
   20     0.00000024113145     0.00000194083984     0.00001960993514     0.00000553972563     0.00000949244012
   21     0.00000061363791     0.00000399685376     0.00005603927065     0.00001857945358     0.00002463914077
   22     0.00000831403884     0.00006892182864     0.00074723460241     0.00013910748010     0.00019659733679
   23     0.00001692142047     0.00012017379728     0.00159558497867     0.00010610208314     0.00010837413224
   24     0.00002308912241     0.00012527280001     0.00139485477054     0.00039143338290     0.00043256769990
   25     0.00007692131604     0.00050449922357     0.00701236835992     0.00120653730346     0.00538032187975
   26     0.00008497540958     0.00116759828369     0.01975261222794     0.00082913317763     0.00823140877397
   27     0.00002075208792     0.00020248738756     0.00683559587262     0.00029228954619     0.00057716727012
   28     0.00011075327691     0.00096650586420     0.00432917370445     0.01246393023660     0.01882707146841
   29     0.00064611287590     0.01261672041516     0.01201606314827     0.06505022415141     0.05691141858941
   30     0.00164642401811     0.00179355626945     0.00679460103284     0.02133437891268     0.01268514871140
   31     0.01247445591273     0.01484188794664     0.01912346736976     0.00772648192148     0.00252895391435
   32     0.06278189013271     0.05023178156932     0.06446944129834     0.01339394247815     0.01050833453094
   33     0.91990165505245     0.02434641057568     0.01064952166778     0.01403504861596     0.00152856407629
   34     0.02114459746605     0.82221058457847     0.87937192416690     0.05135712047045     0.05848512391472
   35     0.00377503633267     0.05738507483962     0.05386247574460     0.79599113284973     0.88089485190052
   36     0.00000027507417     0.00000240188442     0.00004048993477     0.00001071502161     0.00000639475766
   37     0.00000000094015     0.00000001297959     0.00000002797246     0.00000001806580     0.00000000793778
   38     0.00000001545059     0.00000001097911     0.00000010322084     0.00000009008384     0.00000001259821
   39     0.00000000198128     0.00000000205215     0.00000002288961     0.00000001491579     0.00000000410705
   40     0.00000002206393     0.00000007589221     0.00000029247654     0.00000029199283     0.00000019403893
   41     0.00000029980002     0.00000070852629     0.00000232664845     0.00000553262315     0.00000041042803
   42     0.00000000031156     0.00000000052765     0.00000000379715     0.00000000121876     0.00000000084484
   43     0.00000000011520     0.00000000018704     0.00000000195135     0.00000000025222     0.00000000023841
   44     0.00000000018229     0.00000000074597     0.00000000383817     0.00000000079204     0.00000000331717
   45     0.00000000026080     0.00000000447476     0.00000005224791     0.00000000318706     0.00000001586067
   46     0.00000000398170     0.00000002168010     0.00000043724433     0.00000001974809     0.00000021463077
   47     0.00000001152251     0.00000001590335     0.00000010979686     0.00000004817376     0.00000008738640
   48     0.00000033477287     0.00000161406806     0.00001135690729     0.00000218697292     0.00000216166819
   49     0.00000103736896     0.00000496835910     0.00005122548367     0.00001253654630     0.00002031570489
   50     0.00000230180229     0.00002012097256     0.00007295354240     0.00005913687623     0.00007445850191
   51     0.00003411644550     0.00063756040381     0.00593529079959     0.00029612570192     0.00429868322880
   52     0.00000081163271     0.00001206253942     0.00067576203581     0.00004183868091     0.00003851671922
   53     0.00002172702241     0.00036843906020     0.00025695099446     0.00056625309500     0.00098263738427
   54     0.00001887263812     0.00009294369476     0.00054861851775     0.00117064854768     0.00510123738608
   55     0.00024808844888     0.00060636328144     0.00029632341380     0.00096808886087     0.00127175371262
   56     0.00053075328038     0.00037862408130     0.00096187731230     0.00542513891974     0.00080560425617
   57     0.00111503361107     0.00125123457518     0.00103065417835     0.00044440800237     0.00034406637983
   58     0.00065604551420     0.00109879803305     0.00502553361335     0.00071705528704     0.00050216304102
   59     0.03477470300138     0.00339685566092     0.00093774673089     0.00701473732548     0.00052382917792
   60     0.03772858238597     0.00128091922367     0.00082693049876     0.00060986635178     0.00021726830714
   61     0.00000000000000     0.00785456726456     0.00106659788746     0.00138759764202     0.00013634948660
   62     0.00785456726456     0.00000000000000     0.02713734585129     0.01010620184764     0.00572452308731
   63     0.00106659788746     0.02713734585129     0.00000000000000     0.01150853011491     0.00725577382943
   64     0.00138759764202     0.01010620184764     0.01150853011491     0.00000000000000     0.02228684364726
   65     0.00013634948660     0.00572452308731     0.00725577382943     0.02228684364726     0.00000000000000
   66     0.00000000045988     0.00000000247798     0.00000000705072     0.00000001473387     0.00000000221605
   67     0.00000000034978     0.00000000212696     0.00000000821693     0.00000001167066     0.00000000241432
   68     0.00000000011283     0.00000000069014     0.00000000629232     0.00000000078665     0.00000000119317

                66                  67                  68

    1     0.00000073674528     0.00000095228080     0.00000024371364
    2     0.00000194760389     0.00000256494186     0.00000065646176
    3     0.00001193695809     0.00000930912990     0.00000374022282
    4     0.00000870249780     0.00000802514785     0.00000787530896
    5     0.00000062378157     0.00000075565070     0.00000045846256
    6     0.00000036460084     0.00000110394264     0.00000015522279
    7     0.00004553511662     0.00004191311004     0.00001431379127
    8     0.00007642360819     0.00010274125230     0.00000472971843
    9     0.00004294985235     0.00003794968829     0.00000414279592
   10     0.00025974613592     0.00026939524216     0.00002997076667
   11     0.00081849566234     0.00081987973646     0.00022580925603
   12     0.00027185188489     0.00027466998585     0.00005999389669
   13     0.00976588660214     0.00923462019652     0.00197536868601
   14     0.01646348630327     0.01658866311752     0.00896174440408
   15     0.05725807736428     0.05884168362028     0.05989002691572
   16     0.01459440114471     0.01553302657473     0.02374510235082
   17     0.00125610826136     0.00126012216463     0.00189920647070
   18     0.00277068514357     0.00297050736923     0.00055272513807
   19     0.00120286045407     0.00126901767149     0.00109817959671
   20     0.00035163198399     0.00035508017213     0.00008282846115
   21     0.00019693935152     0.00021549685482     0.00003019329797
   22     0.00001121452579     0.00001555966339     0.00000667111514
   23     0.00001352512073     0.00001479456185     0.00000273112575
   24     0.00000138573578     0.00000162450470     0.00000032233456
   25     0.00000551796352     0.00000592214612     0.00000024989409
   26     0.00000100591713     0.00000137747338     0.00000029432141
   27     0.00000990737018     0.00001251296304     0.00000151374938
   28     0.00000041295849     0.00000037177512     0.00000003431976
   29     0.00000019594409     0.00000023195635     0.00000001337550
   30     0.00000004397111     0.00000005893032     0.00000000625758
   31     0.00000004214960     0.00000005494261     0.00000000802103
   32     0.00000000975785     0.00000001141287     0.00000000307093
   33     0.00000000294722     0.00000000428728     0.00000000125830
   34     0.00000001481585     0.00000001874548     0.00000000896393
   35     0.00000001800778     0.00000002693536     0.00000000562170
   36     0.00011785020703     0.00012837613740     0.00001545056022
   37     0.91876724249866     0.91946033802760     0.92074568458090
   38     0.00000009334085     0.00000008530540     0.00000003895217
   39     0.00000026868143     0.00000026085946     0.00000010316101
   40     0.00000686692713     0.00000780844666     0.00000723267794
   41     0.00000005567031     0.00000006104741     0.00000004085304
   42     0.00000331654798     0.00000406841040     0.00000043275689
   43     0.00000295127996     0.00000271306751     0.00000064900246
   44     0.00526166115850     0.00379904559764     0.00102376965106
   45     0.00120395267092     0.00127847718333     0.00765644334357
   46     0.00021802644088     0.00020662371110     0.00012857365241
   47     0.00018269979048     0.00018201343625     0.00035006289380
   48     0.00003701229700     0.00004361764705     0.00003862410184
   49     0.00000429535934     0.00000422948275     0.00000098451688
   50     0.00000006222583     0.00000011819440     0.00000004699185
   51     0.00000019495992     0.00000014357594     0.00000007422736
   52     0.00000089515537     0.00000078907379     0.00000043462396
   53     0.00000001186362     0.00000001182915     0.00000000984051
   54     0.00000020250625     0.00000024740304     0.00000001068178
   55     0.00000000340344     0.00000000719040     0.00000000391393
   56     0.00000001021676     0.00000001367025     0.00000000114592
   57     0.00000000451185     0.00000000569605     0.00000000161902
   58     0.00000006304363     0.00000010847807     0.00000001593185
   59     0.00000000083580     0.00000000123406     0.00000000021462
   60     0.00000000055824     0.00000000046078     0.00000000018744
   61     0.00000000045988     0.00000000034978     0.00000000011283
   62     0.00000000247798     0.00000000212696     0.00000000069014
   63     0.00000000705072     0.00000000821693     0.00000000629232
   64     0.00000001473387     0.00000001167066     0.00000000078665
   65     0.00000000221605     0.00000000241432     0.00000000119317
   66     0.00000000000000     0.03540223727138     0.03903062223589
   67     0.03540223727138     0.00000000000000     0.03907509071662
   68     0.03903062223589     0.03907509071662     0.00000000000000



  Atomic Valences: 

 #  #
 Irrep: 1
      1:  4.3909968
      2:  4.4216855
      3:  4.6032002
      4:  4.5816129
      5:  3.9236218
      6:  4.5468147
      7:  4.7430802
      8:  4.3677102
      9:  4.5224960
     10:  3.8652074
     11:  5.0029558
     12:  3.9641604
     13:  4.0343718
     14:  4.6629105
     15:  4.6238924
     16:  4.4365384
     17:  4.4011163
     18:  4.6692077
     19:  4.4267409
     20:  4.0816113
     21:  5.0008258
     22:  4.6188661
     23:  4.4617620
     24:  4.4721905
     25:  4.7063056
     26:  4.4815901
     27:  4.4335442
     28:  4.5058693
     29:  4.2468328
     30:  4.5603232
     31:  4.5643376
     32:  4.2075565
     33:  4.2811803
     34:  4.5699216
     35:  4.5545047
     36:  2.7550603
     37:  4.1496341
     38:  1.0979856
     39:  1.1009382
     40:  1.1125860
     41:  1.0924251
     42:  1.1090339
     43:  1.0860763
     44:  1.1752332
     45:  1.0998547
     46:  1.1064259
     47:  1.1351964
     48:  1.1854194
     49:  1.1152585
     50:  1.1091011
     51:  1.1142538
     52:  1.0969846
     53:  1.1164866
     54:  1.1058847
     55:  1.0604100
     56:  1.0521137
     57:  1.0993958
     58:  1.0454957
     59:  1.1318197
     60:  1.1053097
     61:  1.1082920
     62:  1.0465675
     63:  1.1516964
     64:  1.0469922
     65:  1.1069296
     66:  1.1056833
     67:  1.1074866
     68:  1.1066737


    Psi4 stopped on: Tuesday, 14 April 2020 07:08AM
    Psi4 wall time for execution: 0:21:11.46

*** Psi4 exiting successfully. Buy a developer a beer!
