
    -----------------------------------------------------------------------
          Psi4: An Open-Source Ab Initio Electronic Structure Package
                               Psi4 1.3.2 release

                         Git: Rev {HEAD} ecbda83 


    R. M. Parrish, L. A. Burns, D. G. A. Smith, A. C. Simmonett,
    A. E. DePrince III, E. G. Hohenstein, U. Bozkaya, A. Yu. Sokolov,
    R. Di Remigio, R. M. Richard, J. F. Gonthier, A. M. James,
    H. R. McAlexander, A. Kumar, M. Saitow, X. Wang, B. P. Pritchard,
    P. Verma, H. F. Schaefer III, K. Patkowski, R. A. King, E. F. Valeev,
    F. A. Evangelista, J. M. Turney, T. D. Crawford, and C. D. Sherrill,
    J. Chem. Theory Comput. 13(7) pp 3185--3197 (2017).
    (doi: 10.1021/acs.jctc.7b00174)


                         Additional Contributions by
    P. Kraus, H. Kruse, M. H. Lechner, M. C. Schieber, R. A. Shaw,
    A. Alenaizan, R. Galvelis, Z. L. Glick, S. Lehtola, and J. P. Misiewicz

    -----------------------------------------------------------------------


    Psi4 started on: Tuesday, 10 March 2020 10:58PM

    Process ID: 63022
    Host:       node44.bme.utexas.edu
    PSIDATADIR: /home/bdw2292/miniconda3/envs/p4env/share/psi4
    Memory:     500.0 MiB
    Threads:    1
    
  ==> Input File <==

--------------------------------------------------------------------------
molecule { 
0 1
 C    1.023878    4.783990   -2.367381
 C    2.352798    4.548659   -1.988156
 C    2.749308    3.261798   -1.572653
 C    1.737194    2.270290   -1.598012
 N    0.465048    2.471587   -1.963448
 C    0.121800    3.714410   -2.333973
 C    4.156278    2.916130   -1.149580
 C    5.259940    3.782988   -1.190662
 C    6.481590    3.227682   -0.793495
 N    6.639929    1.973183   -0.380778
 C    5.521253    1.218845   -0.348574
 N    4.310765    1.651387   -0.712175
 N    5.691601   -0.082650    0.100005
 C    4.803754   -1.214001    0.219468
 C    5.351959   -2.522811    0.378715
 C    4.444882   -3.593146    0.458812
 C    3.054205   -3.444895    0.401125
 C    2.531130   -2.153350    0.281663
 C    3.411854   -1.063990    0.185984
 N    1.142148   -1.813588    0.214330
 C    0.020785   -2.600496    0.096543
 C   -1.287286   -1.900939   -0.218221
 C   -1.380148   -0.775245   -1.052163
 C   -2.612782   -0.156602   -1.269885
 C   -3.803914   -0.634815   -0.683272
 C   -3.690930   -1.780348    0.125425
 C   -2.464696   -2.410967    0.349896
 C   -5.106349    0.138124   -0.923933
 N   -6.198533    0.349141    0.046648
 C   -5.960938    1.337230    1.126714
 C   -5.568295    0.779492    2.516440
 N   -6.497080   -0.259707    3.020381
 C   -7.731813    0.211767    3.658708
 C   -6.627334   -1.311355    1.987111
 C   -7.007987   -0.771908    0.581666
 O    0.049229   -3.811060    0.254224
 C    6.843550   -2.805104    0.430326
 H    0.695004    5.769513   -2.683855
 H    3.050324    5.382233   -2.012304
 H    1.977503    1.246619   -1.333358
 H   -0.918167    3.853182   -2.624972
 H    5.213841    4.809442   -1.533384
 H    7.390309    3.828766   -0.814240
 H    6.668126   -0.246840    0.293758
 H    4.827654   -4.607530    0.562922
 H    2.389266   -4.297991    0.460481
 H    3.016068   -0.066145    0.087386
 H    0.959280   -0.820461    0.177158
 H   -0.482883   -0.368247   -1.512814
 H   -2.629764    0.730508   -1.903416
 H   -4.572331   -2.240758    0.556023
 H   -2.398984   -3.302520    0.968939
 H   -4.811107    1.154665   -1.224877
 H   -5.588407   -0.356543   -1.781157
 H   -4.864834    2.303849    0.713061
 H   -7.242674    2.130433    1.316974
 H   -5.442523    1.511959    3.225295
 H   -4.154125    0.066418    2.300521
 H   -8.377682    0.724228    2.936823
 H   -7.493175    0.906091    4.472562
 H   -8.281175   -0.633393    4.088710
 H   -7.753217   -2.251576    2.399441
 H   -5.862225   -1.799370    1.996623
 H   -8.497294   -0.150017    0.804539
 H   -7.115981   -1.548130   -0.149237
 H    7.311975   -2.324922    1.301052
 H    7.354493   -2.431893   -0.468505
 H    7.075261   -3.876952    0.499765
}
memory 20GB
set_num_threads(6)
psi4_io.set_default_path("/scratch/bdw2292")
set freeze_core True
E, wfn = energy('mp2/6-311++G**',return_wfn=True)
oeprop(wfn,"WIBERG_LOWDIN_INDICES")
clean()
--------------------------------------------------------------------------

  Memory set to  18.626 GiB by Python driver.
  Threads set to 6 by Python driver.
    SCF Algorithm Type (re)set to DF.

*** tstart() called on node44.bme.utexas.edu
*** at Tue Mar 10 22:58:51 2020

   => Loading Basis Set <=

    Name: 6-311++G**
    Role: ORBITAL
    Keyword: BASIS
    atoms 1-4, 6-9, 11, 14-19, 21-28, 30-31, 33-35, 37 entry C          line   119 file /home/bdw2292/miniconda3/envs/p4env/share/psi4/basis/6-311ppgss.gbs 
    atoms 5, 10, 12-13, 20, 29, 32                     entry N          line   140 file /home/bdw2292/miniconda3/envs/p4env/share/psi4/basis/6-311ppgss.gbs 
    atoms 36                                           entry O          line   161 file /home/bdw2292/miniconda3/envs/p4env/share/psi4/basis/6-311ppgss.gbs 
    atoms 38-68                                        entry H          line    42 file /home/bdw2292/miniconda3/envs/p4env/share/psi4/basis/6-311ppgss.gbs 


         ---------------------------------------------------------
                                   SCF
               by Justin Turney, Rob Parrish, Andy Simmonett
                          and Daniel G. A. Smith
                              RHF Reference
                        6 Threads,  19073 MiB Core
         ---------------------------------------------------------

  ==> Geometry <==

    Molecular point group: c1
    Full point group: C1

    Geometry (in Angstrom), charge = 0, multiplicity = 1:

       Center              X                  Y                   Z               Mass       
    ------------   -----------------  -----------------  -----------------  -----------------
         C            0.782252705854     4.705243181423    -2.293438775807    12.000000000000
         C            2.111172705854     4.469912181423    -1.914213775807    12.000000000000
         C            2.507682705854     3.183051181423    -1.498710775807    12.000000000000
         C            1.495568705854     2.191543181423    -1.524069775807    12.000000000000
         N            0.223422705854     2.392840181423    -1.889505775807    14.003074004430
         C           -0.119825294146     3.635663181423    -2.260030775807    12.000000000000
         C            3.914652705854     2.837383181423    -1.075637775807    12.000000000000
         C            5.018314705854     3.704241181423    -1.116719775807    12.000000000000
         C            6.239964705854     3.148935181423    -0.719552775807    12.000000000000
         N            6.398303705854     1.894436181423    -0.306835775807    14.003074004430
         C            5.279627705854     1.140098181423    -0.274631775807    12.000000000000
         N            4.069139705854     1.572640181423    -0.638232775807    14.003074004430
         N            5.449975705854    -0.161396818577     0.173947224193    14.003074004430
         C            4.562128705854    -1.292747818577     0.293410224193    12.000000000000
         C            5.110333705854    -2.601557818577     0.452657224193    12.000000000000
         C            4.203256705854    -3.671892818577     0.532754224193    12.000000000000
         C            2.812579705854    -3.523641818577     0.475067224193    12.000000000000
         C            2.289504705854    -2.232096818577     0.355605224193    12.000000000000
         C            3.170228705854    -1.142736818577     0.259926224193    12.000000000000
         N            0.900522705854    -1.892334818577     0.288272224193    14.003074004430
         C           -0.220840294146    -2.679242818577     0.170485224193    12.000000000000
         C           -1.528911294146    -1.979685818577    -0.144278775807    12.000000000000
         C           -1.621773294146    -0.853991818577    -0.978220775807    12.000000000000
         C           -2.854407294146    -0.235348818577    -1.195942775807    12.000000000000
         C           -4.045539294146    -0.713561818577    -0.609329775807    12.000000000000
         C           -3.932555294146    -1.859094818577     0.199367224193    12.000000000000
         C           -2.706321294146    -2.489713818577     0.423838224193    12.000000000000
         C           -5.347974294146     0.059377181423    -0.849990775807    12.000000000000
         N           -6.440158294146     0.270394181423     0.120590224193    14.003074004430
         C           -6.202563294146     1.258483181423     1.200656224193    12.000000000000
         C           -5.809920294146     0.700745181423     2.590382224193    12.000000000000
         N           -6.738705294146    -0.338453818577     3.094323224193    14.003074004430
         C           -7.973438294146     0.133020181423     3.732650224193    12.000000000000
         C           -6.868959294146    -1.390101818577     2.061053224193    12.000000000000
         C           -7.249612294146    -0.850654818577     0.655608224193    12.000000000000
         O           -0.192396294146    -3.889806818577     0.328166224193    15.994914619570
         C            6.601924705854    -2.883850818577     0.504268224193    12.000000000000
         H            0.453378705854     5.690766181423    -2.609912775807     1.007825032230
         H            2.808698705854     5.303486181423    -1.938361775807     1.007825032230
         H            1.735877705854     1.167872181423    -1.259415775807     1.007825032230
         H           -1.159792294146     3.774435181423    -2.551029775807     1.007825032230
         H            4.972215705854     4.730695181423    -1.459441775807     1.007825032230
         H            7.148683705854     3.750019181423    -0.740297775807     1.007825032230
         H            6.426500705854    -0.325586818577     0.367700224193     1.007825032230
         H            4.586028705854    -4.686276818577     0.636864224193     1.007825032230
         H            2.147640705854    -4.376737818577     0.534423224193     1.007825032230
         H            2.774442705854    -0.144891818577     0.161328224193     1.007825032230
         H            0.717654705854    -0.899207818577     0.251100224193     1.007825032230
         H           -0.724508294146    -0.446993818577    -1.438871775807     1.007825032230
         H           -2.871389294146     0.651761181423    -1.829473775807     1.007825032230
         H           -4.813956294146    -2.319504818577     0.629965224193     1.007825032230
         H           -2.640609294146    -3.381266818577     1.042881224193     1.007825032230
         H           -5.052732294146     1.075918181423    -1.150934775807     1.007825032230
         H           -5.830032294146    -0.435289818577    -1.707214775807     1.007825032230
         H           -5.106459294146     2.225102181423     0.787003224193     1.007825032230
         H           -7.484299294146     2.051686181423     1.390916224193     1.007825032230
         H           -5.684148294146     1.433212181423     3.299237224193     1.007825032230
         H           -4.395750294146    -0.012328818577     2.374463224193     1.007825032230
         H           -8.619307294146     0.645481181423     3.010765224193     1.007825032230
         H           -7.734800294146     0.827344181423     4.546504224193     1.007825032230
         H           -8.522800294146    -0.712139818577     4.162652224193     1.007825032230
         H           -7.994842294146    -2.330322818577     2.473383224193     1.007825032230
         H           -6.103850294146    -1.878116818577     2.070565224193     1.007825032230
         H           -8.738919294146    -0.228763818577     0.878481224193     1.007825032230
         H           -7.357606294146    -1.626876818577    -0.075294775807     1.007825032230
         H            7.070349705854    -2.403668818577     1.374994224193     1.007825032230
         H            7.112867705854    -2.510639818577    -0.394562775807     1.007825032230
         H            6.833635705854    -3.955698818577     0.573707224193     1.007825032230

  Running in c1 symmetry.

  Rotational constants: A =      0.00482  B =      0.00152  C =      0.00124 [cm^-1]
  Rotational constants: A =    144.50765  B =     45.70903  C =     37.31218 [MHz]
  Nuclear repulsion = 3659.874913160910182

  Charge       = 0
  Multiplicity = 1
  Electrons    = 262
  Nalpha       = 131
  Nbeta        = 131

  ==> Algorithm <==

  SCF Algorithm Type is DF.
  DIIS enabled.
  MOM disabled.
  Fractional occupation disabled.
  Guess Type is SAD.
  Energy threshold   = 1.00e-08
  Density threshold  = 1.00e-08
  Integral threshold = 0.00e+00

  ==> Primary Basis <==

  Basis Set: 6-311++G**
    Blend: 6-311++G**
    Number of shells: 525
    Number of basis function: 1031
    Number of Cartesian functions: 1068
    Spherical Harmonics?: true
    Max angular momentum: 2

   => Loading Basis Set <=

    Name: (6-311++G** AUX)
    Role: JKFIT
    Keyword: DF_BASIS_SCF
    atoms 1-4, 6-9, 11, 14-19, 21-28, 30-31, 33-35, 37 entry C          line   162 file /home/bdw2292/miniconda3/envs/p4env/share/psi4/basis/aug-cc-pvtz-jkfit.gbs 
    atoms 5, 10, 12-13, 20, 29, 32                     entry N          line   224 file /home/bdw2292/miniconda3/envs/p4env/share/psi4/basis/aug-cc-pvtz-jkfit.gbs 
    atoms 36                                           entry O          line   286 file /home/bdw2292/miniconda3/envs/p4env/share/psi4/basis/aug-cc-pvtz-jkfit.gbs 
    atoms 38-68                                        entry H          line    70 file /home/bdw2292/miniconda3/envs/p4env/share/psi4/basis/aug-cc-pvtz-jkfit.gbs 

  ==> Pre-Iterations <==

   -------------------------------------------------------
    Irrep   Nso     Nmo     Nalpha   Nbeta   Ndocc  Nsocc
   -------------------------------------------------------
     A       1031    1031       0       0       0       0
   -------------------------------------------------------
    Total    1031    1031     131     131     131       0
   -------------------------------------------------------

  ==> Integral Setup <==

  ==> DiskDFJK: Density-Fitted J/K Matrices <==

    J tasked:                  Yes
    K tasked:                  Yes
    wK tasked:                  No
    OpenMP threads:              6
    Integrals threads:           6
    Memory [MiB]:            14305
    Algorithm:                Core
    Integral Cache:           NONE
    Schwarz Cutoff:          1E-12
    Fitting Condition:       1E-10

   => Auxiliary Basis Set <=

  Basis Set: (6-311++G** AUX)
    Blend: AUG-CC-PVTZ-JKFIT
    Number of shells: 1544
    Number of basis function: 5274
    Number of Cartesian functions: 6552
    Spherical Harmonics?: true
    Max angular momentum: 4

  Minimum eigenvalue in the overlap matrix is 1.1122743764E-07.
  Using Symmetric Orthogonalization.

  SCF Guess: Superposition of Atomic Densities via on-the-fly atomic UHF.

  ==> Iterations <==

                           Total Energy        Delta E     RMS |[F,P]|

   @DF-RHF iter SAD: -1571.14092874902190   -1.57114e+03   0.00000e+00 
   @DF-RHF iter   1: -1571.20270204024382   -6.17733e-02   1.22109e-03 DIIS
   @DF-RHF iter   2: -1571.98878196060787   -7.86080e-01   6.52773e-04 DIIS
   @DF-RHF iter   3: -1572.19149537311455   -2.02713e-01   1.66535e-04 DIIS
   @DF-RHF iter   4: -1572.20967290365024   -1.81775e-02   6.76788e-05 DIIS
   @DF-RHF iter   5: -1572.21249152574046   -2.81862e-03   1.40763e-05 DIIS
   @DF-RHF iter   6: -1572.21266864439554   -1.77119e-04   6.37206e-06 DIIS
   @DF-RHF iter   7: -1572.21271048571725   -4.18413e-05   2.15171e-06 DIIS
   @DF-RHF iter   8: -1572.21271691005609   -6.42434e-06   8.10486e-07 DIIS
   @DF-RHF iter   9: -1572.21271785945942   -9.49403e-07   3.21163e-07 DIIS
   @DF-RHF iter  10: -1572.21271804317803   -1.83719e-07   1.42446e-07 DIIS
   @DF-RHF iter  11: -1572.21271808168035   -3.85023e-08   6.85836e-08 DIIS
   @DF-RHF iter  12: -1572.21271809168502   -1.00047e-08   2.92324e-08 DIIS
   @DF-RHF iter  13: -1572.21271809391624   -2.23122e-09   1.24685e-08 DIIS
   @DF-RHF iter  14: -1572.21271809414839   -2.32149e-10   5.83262e-09 DIIS
  Energy and wave function converged.


  ==> Post-Iterations <==

    Orbital Energies [Eh]
    ---------------------

    Doubly Occupied:                                                      

       1A    -20.520952     2A    -15.604170     3A    -15.601527  
       4A    -15.587372     5A    -15.584745     6A    -15.574617  
       7A    -15.569553     8A    -15.561345     9A    -11.375876  
      10A    -11.363502    11A    -11.346026    12A    -11.334910  
      13A    -11.316930    14A    -11.314588    15A    -11.307174  
      16A    -11.301750    17A    -11.301578    18A    -11.300821  
      19A    -11.292858    20A    -11.289744    21A    -11.287078  
      22A    -11.283057    23A    -11.280787    24A    -11.265981  
      25A    -11.262430    26A    -11.255080    27A    -11.253245  
      28A    -11.252886    29A    -11.249468    30A    -11.249262  
      31A    -11.247080    32A    -11.245789    33A    -11.244629  
      34A    -11.239847    35A    -11.235437    36A    -11.231064  
      37A    -11.224694    38A     -1.386248    39A     -1.344853  
      40A     -1.278944    41A     -1.253437    42A     -1.251158  
      43A     -1.241470    44A     -1.210108    45A     -1.208593  
      46A     -1.162482    47A     -1.139798    48A     -1.116100  
      49A     -1.075747    50A     -1.061073    51A     -1.048964  
      52A     -1.038712    53A     -1.023568    54A     -1.016166  
      55A     -1.008025    56A     -0.984165    57A     -0.950716  
      58A     -0.934366    59A     -0.926826    60A     -0.901256  
      61A     -0.873092    62A     -0.871648    63A     -0.858488  
      64A     -0.854530    65A     -0.843878    66A     -0.835496  
      67A     -0.827169    68A     -0.810119    69A     -0.779361  
      70A     -0.754549    71A     -0.740411    72A     -0.737189  
      73A     -0.731622    74A     -0.721984    75A     -0.699333  
      76A     -0.683209    77A     -0.673014    78A     -0.666517  
      79A     -0.659524    80A     -0.656447    81A     -0.651862  
      82A     -0.644644    83A     -0.638778    84A     -0.634504  
      85A     -0.632596    86A     -0.624989    87A     -0.621027  
      88A     -0.613717    89A     -0.610918    90A     -0.607074  
      91A     -0.602627    92A     -0.600475    93A     -0.595538  
      94A     -0.592068    95A     -0.588829    96A     -0.583669  
      97A     -0.580879    98A     -0.579964    99A     -0.569592  
     100A     -0.561805   101A     -0.550585   102A     -0.547619  
     103A     -0.544673   104A     -0.532726   105A     -0.525254  
     106A     -0.522794   107A     -0.513574   108A     -0.509045  
     109A     -0.505094   110A     -0.497157   111A     -0.494959  
     112A     -0.484953   113A     -0.482689   114A     -0.479931  
     115A     -0.456297   116A     -0.452389   117A     -0.443179  
     118A     -0.427526   119A     -0.425823   120A     -0.418243  
     121A     -0.415012   122A     -0.400600   123A     -0.398564  
     124A     -0.379570   125A     -0.374024   126A     -0.346553  
     127A     -0.344888   128A     -0.338261   129A     -0.321119  
     130A     -0.314529   131A     -0.290219  

    Virtual:                                                              

     132A      0.026188   133A      0.034689   134A      0.040926  
     135A      0.041548   136A      0.044111   137A      0.047883  
     138A      0.048247   139A      0.053203   140A      0.057261  
     141A      0.061400   142A      0.063091   143A      0.065204  
     144A      0.067663   145A      0.068114   146A      0.071250  
     147A      0.073849   148A      0.076022   149A      0.080755  
     150A      0.083429   151A      0.083807   152A      0.086497  
     153A      0.088999   154A      0.090411   155A      0.093093  
     156A      0.095695   157A      0.098448   158A      0.100484  
     159A      0.101047   160A      0.105428   161A      0.109736  
     162A      0.111210   163A      0.112489   164A      0.113733  
     165A      0.115795   166A      0.116302   167A      0.119882  
     168A      0.121329   169A      0.125470   170A      0.126259  
     171A      0.131194   172A      0.136588   173A      0.138766  
     174A      0.142164   175A      0.144317   176A      0.144476  
     177A      0.147470   178A      0.150525   179A      0.152281  
     180A      0.152818   181A      0.154605   182A      0.155030  
     183A      0.158152   184A      0.160109   185A      0.162914  
     186A      0.165283   187A      0.166726   188A      0.168954  
     189A      0.171767   190A      0.173363   191A      0.175972  
     192A      0.176230   193A      0.177693   194A      0.179188  
     195A      0.183118   196A      0.183790   197A      0.184185  
     198A      0.185654   199A      0.188103   200A      0.188350  
     201A      0.191783   202A      0.193454   203A      0.195382  
     204A      0.198388   205A      0.199889   206A      0.201402  
     207A      0.203017   208A      0.204458   209A      0.206166  
     210A      0.207954   211A      0.209036   212A      0.210879  
     213A      0.212723   214A      0.213798   215A      0.216685  
     216A      0.217871   217A      0.219007   218A      0.220347  
     219A      0.224383   220A      0.225732   221A      0.227439  
     222A      0.228469   223A      0.230396   224A      0.232352  
     225A      0.233380   226A      0.235405   227A      0.237644  
     228A      0.240513   229A      0.241626   230A      0.243368  
     231A      0.245802   232A      0.248369   233A      0.249868  
     234A      0.251161   235A      0.253036   236A      0.258638  
     237A      0.260603   238A      0.262552   239A      0.263284  
     240A      0.264587   241A      0.270366   242A      0.271501  
     243A      0.272754   244A      0.273822   245A      0.276406  
     246A      0.280453   247A      0.281710   248A      0.283960  
     249A      0.286852   250A      0.288294   251A      0.293173  
     252A      0.294564   253A      0.297621   254A      0.300018  
     255A      0.302230   256A      0.305644   257A      0.306375  
     258A      0.310178   259A      0.311931   260A      0.313746  
     261A      0.314754   262A      0.318204   263A      0.322576  
     264A      0.323930   265A      0.325572   266A      0.326935  
     267A      0.328492   268A      0.331249   269A      0.332654  
     270A      0.334226   271A      0.337890   272A      0.339549  
     273A      0.340809   274A      0.342599   275A      0.345324  
     276A      0.348621   277A      0.350140   278A      0.354353  
     279A      0.355949   280A      0.359250   281A      0.361582  
     282A      0.362569   283A      0.364725   284A      0.365204  
     285A      0.367930   286A      0.369992   287A      0.371824  
     288A      0.375012   289A      0.375566   290A      0.376561  
     291A      0.377987   292A      0.380056   293A      0.381099  
     294A      0.382312   295A      0.384776   296A      0.385126  
     297A      0.387866   298A      0.389448   299A      0.393106  
     300A      0.394155   301A      0.397841   302A      0.398591  
     303A      0.399112   304A      0.400072   305A      0.401049  
     306A      0.403243   307A      0.405723   308A      0.406768  
     309A      0.407263   310A      0.410241   311A      0.413092  
     312A      0.413878   313A      0.415421   314A      0.418682  
     315A      0.421478   316A      0.424906   317A      0.425836  
     318A      0.427501   319A      0.429693   320A      0.432083  
     321A      0.433011   322A      0.435259   323A      0.436116  
     324A      0.437125   325A      0.438948   326A      0.442388  
     327A      0.444127   328A      0.445892   329A      0.447814  
     330A      0.448324   331A      0.452322   332A      0.454323  
     333A      0.455797   334A      0.457162   335A      0.460840  
     336A      0.461724   337A      0.463888   338A      0.465407  
     339A      0.468770   340A      0.471570   341A      0.472002  
     342A      0.476318   343A      0.480297   344A      0.480629  
     345A      0.484552   346A      0.489633   347A      0.490549  
     348A      0.492985   349A      0.495555   350A      0.496585  
     351A      0.499119   352A      0.501715   353A      0.504008  
     354A      0.508767   355A      0.512852   356A      0.514845  
     357A      0.516699   358A      0.518653   359A      0.522022  
     360A      0.523582   361A      0.526374   362A      0.529488  
     363A      0.532866   364A      0.537728   365A      0.540870  
     366A      0.541864   367A      0.550413   368A      0.554378  
     369A      0.555095   370A      0.560665   371A      0.565292  
     372A      0.569320   373A      0.576545   374A      0.584878  
     375A      0.588441   376A      0.601325   377A      0.602313  
     378A      0.605560   379A      0.607345   380A      0.615672  
     381A      0.617264   382A      0.621607   383A      0.623479  
     384A      0.630650   385A      0.631888   386A      0.634933  
     387A      0.643823   388A      0.653319   389A      0.660478  
     390A      0.675784   391A      0.685816   392A      0.686692  
     393A      0.697231   394A      0.700078   395A      0.704914  
     396A      0.710092   397A      0.712226   398A      0.714220  
     399A      0.722872   400A      0.724778   401A      0.726209  
     402A      0.732214   403A      0.739567   404A      0.744641  
     405A      0.750680   406A      0.754842   407A      0.756554  
     408A      0.759387   409A      0.761191   410A      0.763118  
     411A      0.764840   412A      0.773350   413A      0.777704  
     414A      0.779246   415A      0.779611   416A      0.787924  
     417A      0.792522   418A      0.799108   419A      0.799685  
     420A      0.803507   421A      0.806176   422A      0.808132  
     423A      0.815343   424A      0.820164   425A      0.823006  
     426A      0.826869   427A      0.830818   428A      0.833276  
     429A      0.834540   430A      0.840220   431A      0.846875  
     432A      0.848262   433A      0.851441   434A      0.853949  
     435A      0.858146   436A      0.858597   437A      0.864248  
     438A      0.867812   439A      0.872745   440A      0.873356  
     441A      0.876149   442A      0.879506   443A      0.881629  
     444A      0.887201   445A      0.889080   446A      0.891629  
     447A      0.898162   448A      0.902201   449A      0.902586  
     450A      0.910441   451A      0.910803   452A      0.913373  
     453A      0.917191   454A      0.919025   455A      0.922875  
     456A      0.927523   457A      0.931921   458A      0.934348  
     459A      0.935817   460A      0.939404   461A      0.939626  
     462A      0.940405   463A      0.944900   464A      0.949782  
     465A      0.954055   466A      0.957214   467A      0.961450  
     468A      0.967433   469A      0.969190   470A      0.972246  
     471A      0.975847   472A      0.979970   473A      0.981940  
     474A      0.984481   475A      0.989620   476A      0.993554  
     477A      0.999042   478A      1.001624   479A      1.009495  
     480A      1.013570   481A      1.018003   482A      1.021984  
     483A      1.025893   484A      1.028694   485A      1.033348  
     486A      1.036821   487A      1.038741   488A      1.041947  
     489A      1.049986   490A      1.052681   491A      1.055764  
     492A      1.059247   493A      1.064095   494A      1.066670  
     495A      1.070183   496A      1.076271   497A      1.080960  
     498A      1.082891   499A      1.088133   500A      1.093510  
     501A      1.095237   502A      1.101032   503A      1.102978  
     504A      1.116198   505A      1.117878   506A      1.121356  
     507A      1.128337   508A      1.130308   509A      1.135261  
     510A      1.138631   511A      1.141023   512A      1.146461  
     513A      1.152586   514A      1.155273   515A      1.158611  
     516A      1.162575   517A      1.169090   518A      1.172685  
     519A      1.174758   520A      1.174966   521A      1.179018  
     522A      1.183352   523A      1.185012   524A      1.188925  
     525A      1.190406   526A      1.196856   527A      1.201689  
     528A      1.202281   529A      1.205572   530A      1.211200  
     531A      1.217681   532A      1.219679   533A      1.224714  
     534A      1.230734   535A      1.236996   536A      1.240603  
     537A      1.242412   538A      1.245408   539A      1.250073  
     540A      1.256129   541A      1.258455   542A      1.260466  
     543A      1.264023   544A      1.264597   545A      1.275332  
     546A      1.277627   547A      1.280578   548A      1.282307  
     549A      1.291912   550A      1.296309   551A      1.303006  
     552A      1.307165   553A      1.310362   554A      1.315321  
     555A      1.322163   556A      1.326030   557A      1.329857  
     558A      1.340092   559A      1.343052   560A      1.350464  
     561A      1.355732   562A      1.367711   563A      1.371034  
     564A      1.377612   565A      1.381518   566A      1.388717  
     567A      1.390822   568A      1.403478   569A      1.408824  
     570A      1.413601   571A      1.417317   572A      1.429386  
     573A      1.432571   574A      1.435644   575A      1.447152  
     576A      1.451209   577A      1.459605   578A      1.470284  
     579A      1.474101   580A      1.483295   581A      1.487430  
     582A      1.495976   583A      1.500587   584A      1.504122  
     585A      1.513282   586A      1.523140   587A      1.526985  
     588A      1.533391   589A      1.540231   590A      1.551359  
     591A      1.555835   592A      1.561910   593A      1.570069  
     594A      1.577660   595A      1.597467   596A      1.604984  
     597A      1.620324   598A      1.620552   599A      1.628585  
     600A      1.632864   601A      1.646863   602A      1.650662  
     603A      1.657917   604A      1.684267   605A      1.688002  
     606A      1.694014   607A      1.699329   608A      1.703254  
     609A      1.718967   610A      1.725620   611A      1.740279  
     612A      1.742533   613A      1.743311   614A      1.747550  
     615A      1.750101   616A      1.759581   617A      1.763859  
     618A      1.775445   619A      1.778209   620A      1.781877  
     621A      1.786825   622A      1.789606   623A      1.792541  
     624A      1.798515   625A      1.803431   626A      1.806797  
     627A      1.809658   628A      1.815953   629A      1.818272  
     630A      1.819558   631A      1.823098   632A      1.829921  
     633A      1.832028   634A      1.837529   635A      1.841405  
     636A      1.848201   637A      1.850581   638A      1.851765  
     639A      1.854850   640A      1.857228   641A      1.861872  
     642A      1.862269   643A      1.866334   644A      1.873407  
     645A      1.877559   646A      1.880315   647A      1.886567  
     648A      1.889652   649A      1.899315   650A      1.901959  
     651A      1.922015   652A      1.923526   653A      1.930312  
     654A      1.931766   655A      1.936294   656A      1.942909  
     657A      1.945975   658A      1.950074   659A      1.956683  
     660A      1.961695   661A      1.966328   662A      1.968548  
     663A      1.970045   664A      1.977129   665A      1.984003  
     666A      1.988832   667A      1.993586   668A      1.997528  
     669A      2.000813   670A      2.006855   671A      2.009056  
     672A      2.011642   673A      2.019624   674A      2.024350  
     675A      2.029265   676A      2.032555   677A      2.040023  
     678A      2.045100   679A      2.049903   680A      2.052521  
     681A      2.056870   682A      2.059869   683A      2.068998  
     684A      2.076558   685A      2.081012   686A      2.083479  
     687A      2.087564   688A      2.091496   689A      2.097169  
     690A      2.104742   691A      2.107158   692A      2.109620  
     693A      2.110848   694A      2.126654   695A      2.138089  
     696A      2.140676   697A      2.147443   698A      2.163572  
     699A      2.170209   700A      2.171439   701A      2.177214  
     702A      2.181742   703A      2.188718   704A      2.194324  
     705A      2.199710   706A      2.211664   707A      2.220380  
     708A      2.227019   709A      2.231179   710A      2.236481  
     711A      2.240006   712A      2.242468   713A      2.250745  
     714A      2.253208   715A      2.256994   716A      2.260515  
     717A      2.268235   718A      2.271348   719A      2.277025  
     720A      2.278927   721A      2.286720   722A      2.295394  
     723A      2.298466   724A      2.302069   725A      2.309228  
     726A      2.313650   727A      2.318769   728A      2.321084  
     729A      2.326563   730A      2.334949   731A      2.342300  
     732A      2.347957   733A      2.354616   734A      2.362643  
     735A      2.366220   736A      2.373199   737A      2.377899  
     738A      2.383853   739A      2.389300   740A      2.394470  
     741A      2.402883   742A      2.405605   743A      2.408830  
     744A      2.417343   745A      2.428287   746A      2.433791  
     747A      2.443241   748A      2.449157   749A      2.452461  
     750A      2.458953   751A      2.466719   752A      2.475328  
     753A      2.481623   754A      2.487376   755A      2.493159  
     756A      2.501743   757A      2.517845   758A      2.527514  
     759A      2.534575   760A      2.539812   761A      2.550268  
     762A      2.554608   763A      2.558467   764A      2.577984  
     765A      2.581922   766A      2.590191   767A      2.601894  
     768A      2.620113   769A      2.622643   770A      2.640167  
     771A      2.651349   772A      2.658914   773A      2.667179  
     774A      2.679259   775A      2.684668   776A      2.696725  
     777A      2.705106   778A      2.721728   779A      2.727001  
     780A      2.732274   781A      2.746489   782A      2.762871  
     783A      2.770909   784A      2.779409   785A      2.780728  
     786A      2.791609   787A      2.797991   788A      2.808732  
     789A      2.813254   790A      2.821961   791A      2.828757  
     792A      2.829931   793A      2.831086   794A      2.849599  
     795A      2.853293   796A      2.860270   797A      2.866777  
     798A      2.874818   799A      2.879951   800A      2.886520  
     801A      2.894326   802A      2.906625   803A      2.909006  
     804A      2.922591   805A      2.928787   806A      2.931948  
     807A      2.942779   808A      2.947757   809A      2.951010  
     810A      2.958706   811A      2.960205   812A      2.968762  
     813A      2.976659   814A      2.983820   815A      2.993713  
     816A      2.999923   817A      3.004426   818A      3.006787  
     819A      3.017973   820A      3.020454   821A      3.024439  
     822A      3.031005   823A      3.038194   824A      3.043019  
     825A      3.051343   826A      3.055963   827A      3.057252  
     828A      3.059804   829A      3.067742   830A      3.071665  
     831A      3.074534   832A      3.079584   833A      3.085785  
     834A      3.087614   835A      3.094881   836A      3.099255  
     837A      3.101768   838A      3.104666   839A      3.112872  
     840A      3.117145   841A      3.118848   842A      3.124396  
     843A      3.131772   844A      3.136811   845A      3.143695  
     846A      3.156696   847A      3.160969   848A      3.164496  
     849A      3.168976   850A      3.172883   851A      3.183545  
     852A      3.193964   853A      3.197705   854A      3.203565  
     855A      3.208485   856A      3.209489   857A      3.226010  
     858A      3.230075   859A      3.234088   860A      3.238451  
     861A      3.246631   862A      3.254816   863A      3.266232  
     864A      3.269570   865A      3.276452   866A      3.281817  
     867A      3.285721   868A      3.290819   869A      3.292511  
     870A      3.296297   871A      3.301142   872A      3.315554  
     873A      3.325640   874A      3.330803   875A      3.333063  
     876A      3.335091   877A      3.339748   878A      3.345162  
     879A      3.351749   880A      3.360686   881A      3.362642  
     882A      3.369237   883A      3.380070   884A      3.383584  
     885A      3.389959   886A      3.394861   887A      3.397134  
     888A      3.408220   889A      3.412514   890A      3.428366  
     891A      3.463438   892A      3.471180   893A      3.490700  
     894A      3.507737   895A      3.519375   896A      3.533451  
     897A      3.547830   898A      3.569457   899A      3.587110  
     900A      3.601137   901A      3.607848   902A      3.611684  
     903A      3.628422   904A      3.647537   905A      3.649949  
     906A      3.671141   907A      3.677419   908A      3.681800  
     909A      3.703610   910A      3.725817   911A      3.762704  
     912A      3.770570   913A      3.773663   914A      3.780491  
     915A      3.794468   916A      3.802887   917A      3.815553  
     918A      3.825321   919A      3.857158   920A      3.869843  
     921A      3.885074   922A      3.905288   923A      3.917136  
     924A      3.923551   925A      3.935189   926A      3.952871  
     927A      3.958103   928A      3.971012   929A      3.976246  
     930A      3.987858   931A      4.009520   932A      4.045543  
     933A      4.052211   934A      4.062237   935A      4.078396  
     936A      4.091388   937A      4.096251   938A      4.100905  
     939A      4.121389   940A      4.127208   941A      4.149251  
     942A      4.159476   943A      4.187493   944A      4.189702  
     945A      4.195882   946A      4.203921   947A      4.206846  
     948A      4.257234   949A      4.278384   950A      4.354270  
     951A      4.361413   952A      4.381296   953A      4.390792  
     954A      4.398661   955A      4.412056   956A      4.416889  
     957A      4.424979   958A      4.426173   959A      4.429597  
     960A      4.439274   961A      4.449257   962A      4.518822  
     963A      4.544045   964A      4.551193   965A      4.553012  
     966A      4.556702   967A      4.584185   968A      4.600361  
     969A      4.626381   970A      4.683230   971A      4.710519  
     972A      4.767026   973A      4.769565   974A      4.789635  
     975A      4.907732   976A      4.938640   977A      5.009248  
     978A      5.044223   979A      5.223313   980A      5.247636  
     981A      5.270594   982A      5.274848   983A      5.293508  
     984A      5.348845   985A      5.354491   986A      5.408814  
     987A      5.414590   988A      5.606686   989A      5.688389  
     990A      5.697300   991A      5.799779   992A      5.852423  
     993A      5.873676   994A      6.394421   995A     24.748490  
     996A     24.774847   997A     24.808983   998A     24.839895  
     999A     24.936149  1000A     24.938809  1001A     25.008891  
    1002A     25.013041  1003A     25.018319  1004A     25.049816  
    1005A     25.069074  1006A     25.070676  1007A     25.091822  
    1008A     25.100645  1009A     25.111712  1010A     25.112798  
    1011A     25.128408  1012A     25.130131  1013A     25.136624  
    1014A     25.157713  1015A     25.170300  1016A     25.199565  
    1017A     25.203711  1018A     25.234445  1019A     25.245658  
    1020A     25.248250  1021A     25.252261  1022A     25.323113  
    1023A     25.328349  1024A     36.925001  1025A     36.969759  
    1026A     37.022264  1027A     37.070280  1028A     37.075361  
    1029A     37.132605  1030A     37.152221  1031A     51.760808  

    Final Occupation by Irrep:
              A 
    DOCC [   131 ]

  @DF-RHF Final Energy: -1572.21271809414839

   => Energetics <=

    Nuclear Repulsion Energy =           3659.8749131609101823
    One-Electron Energy =               -9417.2320614146883599
    Two-Electron Energy =                4185.1444301596302466
    Total Energy =                      -1572.2127180941479310

Computation Completed


Properties will be evaluated at   0.000000,   0.000000,   0.000000 [a0]

Properties computed using the SCF density matrix

  Nuclear Dipole Moment: [e a0]
     X:   -43.1806      Y:     0.5831      Z:    12.5726

  Electronic Dipole Moment: [e a0]
     X:    43.9872      Y:     2.1170      Z:   -13.2041

  Dipole Moment: [e a0]
     X:     0.8066      Y:     2.7000      Z:    -0.6315     Total:     2.8878

  Dipole Moment: [D]
     X:     2.0502      Y:     6.8628      Z:    -1.6052     Total:     7.3402


*** tstop() called on node44.bme.utexas.edu at Tue Mar 10 23:11:45 2020
Module time:
	user time   =    4454.97 seconds =      74.25 minutes
	system time =      19.91 seconds =       0.33 minutes
	total time  =        774 seconds =      12.90 minutes
Total time:
	user time   =    4454.97 seconds =      74.25 minutes
	system time =      19.91 seconds =       0.33 minutes
	total time  =        774 seconds =      12.90 minutes

*** tstart() called on node44.bme.utexas.edu
*** at Tue Mar 10 23:11:45 2020


  //>>>>>>>>>>>>>>>>>>>>>>>>>>>>>>>>>>>//
  //               DFMP2               //
  //<<<<<<<<<<<<<<<<<<<<<<<<<<<<<<<<<<<//

   => Loading Basis Set <=

    Name: (6-311++G** AUX)
    Role: RIFIT
    Keyword: DF_BASIS_MP2
    atoms 1-4, 6-9, 11, 14-19, 21-28, 30-31, 33-35, 37 entry C          line   148 file /home/bdw2292/miniconda3/envs/p4env/share/psi4/basis/aug-cc-pvtz-ri.gbs 
    atoms 5, 10, 12-13, 20, 29, 32                     entry N          line   206 file /home/bdw2292/miniconda3/envs/p4env/share/psi4/basis/aug-cc-pvtz-ri.gbs 
    atoms 36                                           entry O          line   264 file /home/bdw2292/miniconda3/envs/p4env/share/psi4/basis/aug-cc-pvtz-ri.gbs 
    atoms 38-68                                        entry H          line    30 file /home/bdw2292/miniconda3/envs/p4env/share/psi4/basis/aug-cc-pvtz-ri.gbs 

	 --------------------------------------------------------
	                          DF-MP2                         
	      2nd-Order Density-Fitted Moller-Plesset Theory     
	              RMP2 Wavefunction,   6 Threads             
	                                                         
	        Rob Parrish, Justin Turney, Andy Simmonett,      
	           Ed Hohenstein, and C. David Sherrill          
	 --------------------------------------------------------

   => Auxiliary Basis Set <=

  Basis Set: (6-311++G** AUX)
    Blend: AUG-CC-PVTZ-RI
    Number of shells: 1470
    Number of basis function: 5348
    Number of Cartesian functions: 6737
    Spherical Harmonics?: true
    Max angular momentum: 4

	 --------------------------------------------------------
	                 NBF =  1031, NAUX =  5348
	 --------------------------------------------------------
	   CLASS    FOCC     OCC    AOCC    AVIR     VIR    FVIR
	   PAIRS      37     131      94     900     900       0
	 --------------------------------------------------------

	-----------------------------------------------------------
	 ==================> DF-MP2 Energies <==================== 
	-----------------------------------------------------------
	 Reference Energy          =   -1572.2127180941483857 [Eh]
	 Singles Energy            =      -0.0000000000000000 [Eh]
	 Same-Spin Energy          =      -1.4695813169727645 [Eh]
	 Opposite-Spin Energy      =      -4.0494765264116976 [Eh]
	 Correlation Energy        =      -5.5190578433844619 [Eh]
	 Total Energy              =   -1577.7317759375328023 [Eh]
	-----------------------------------------------------------
	 ================> DF-SCS-MP2 Energies <================== 
	-----------------------------------------------------------
	 SCS Same-Spin Scale       =       0.3333333333333333 [-]
	 SCS Opposite-Spin Scale   =       1.2000000000000000 [-]
	 SCS Same-Spin Energy      =      -0.4898604389909215 [Eh]
	 SCS Opposite-Spin Energy  =      -4.8593718316940366 [Eh]
	 SCS Correlation Energy    =      -5.3492322706849578 [Eh]
	 SCS Total Energy          =   -1577.5619503648333648 [Eh]
	-----------------------------------------------------------


*** tstop() called on node44.bme.utexas.edu at Tue Mar 10 23:19:39 2020
Module time:
	user time   =    2690.70 seconds =      44.84 minutes
	system time =      14.76 seconds =       0.25 minutes
	total time  =        474 seconds =       7.90 minutes
Total time:
	user time   =    7145.67 seconds =     119.09 minutes
	system time =      34.67 seconds =       0.58 minutes
	total time  =       1248 seconds =      20.80 minutes


Properties will be evaluated at   0.000000,   0.000000,   0.000000 [a0]
OEProp: No title given, name of density matrix used for the following properties is 'SCF density'


  Wiberg Bond Indices using Orthogonal Lowdin Orbitals:

  Irrep: 1 Size: 68 x 68

                 1                   2                   3                   4                   5

    1     0.00000000000000     1.46434087347156     0.12491783546584     0.14050728269122     0.12368298221511
    2     1.46434087347156     0.00000000000000     1.40162405385483     0.12866571914012     0.12153386576858
    3     0.12491783546584     1.40162405385483     0.00000000000000     1.36092720133466     0.11855563692879
    4     0.14050728269122     0.12866571914012     1.36092720133466     0.00000000000000     1.66282078697071
    5     0.12368298221511     0.12153386576858     0.11855563692879     1.66282078697071     0.00000000000000
    6     1.46614870184229     0.13811759227558     0.13571288927511     0.15386248115936     1.62711997844295
    7     0.01458102923851     0.10288905828138     1.01998566884249     0.10334860234601     0.01384480252777
    8     0.00353250406388     0.04131820106741     0.09776145754532     0.02380455551276     0.00217023278853
    9     0.00036186156208     0.00465873327144     0.01475339723795     0.00409287478001     0.00068296662415
   10     0.00040629742405     0.00536590641660     0.00575253739364     0.00604086662551     0.00032183218106
   11     0.00088438789715     0.00336077128814     0.01812148003683     0.00689620346739     0.00043139103650
   12     0.00279934922496     0.02216716272940     0.11989133032152     0.06232762781435     0.00410763311262
   13     0.00016892457439     0.00048353731464     0.00163732579225     0.00094326483235     0.00008883372892
   14     0.00003122868581     0.00009421507845     0.00056556048629     0.00130254718243     0.00011411742375
   15     0.00001057239035     0.00002288173117     0.00006653572792     0.00014878953893     0.00001584892463
   16     0.00000207045946     0.00000558499797     0.00003974033157     0.00025523632653     0.00001237176941
   17     0.00001258834768     0.00001932323401     0.00005425474940     0.00027549938757     0.00004041663865
   18     0.00002446434451     0.00005289438316     0.00028568298547     0.00179742174408     0.00021476447402
   19     0.00015772615285     0.00025218834169     0.00201085928139     0.01078632251870     0.00062160202097
   20     0.00005005378181     0.00006919113241     0.00031625871714     0.00301592031240     0.00056501417686
   21     0.00001185782129     0.00001231504666     0.00005029546358     0.00037497743982     0.00017008451276
   22     0.00004833458910     0.00003412441147     0.00004220378957     0.00056784776184     0.00129335551626
   23     0.00043301504807     0.00027091547305     0.00035290375078     0.00588525897445     0.01916866064258
   24     0.00019161124894     0.00018125016088     0.00025238806610     0.00133722094631     0.01063640179315
   25     0.00001514151582     0.00001496595215     0.00001869420451     0.00010215946047     0.00051596492584
   26     0.00000849072646     0.00000492562803     0.00001337433631     0.00020655231465     0.00051520218416
   27     0.00001011598317     0.00000538831158     0.00001347499319     0.00018010969926     0.00055554803240
   28     0.00000778759045     0.00000343333965     0.00000387580675     0.00001785181401     0.00008482716249
   29     0.00000150474761     0.00000042771146     0.00000074745045     0.00000654549950     0.00001399303089
   30     0.00000186781492     0.00000068291189     0.00000092136486     0.00000231321670     0.00001067485057
   31     0.00000080570933     0.00000032400708     0.00000045886368     0.00000253269972     0.00000779849665
   32     0.00000018933870     0.00000011339247     0.00000014297725     0.00000082976810     0.00000182864533
   33     0.00000007089983     0.00000002897988     0.00000007044711     0.00000025249037     0.00000067922110
   34     0.00000024435582     0.00000008723227     0.00000020118200     0.00000118922799     0.00000465877160
   35     0.00000044529509     0.00000016686051     0.00000028137789     0.00000158719378     0.00000612743302
   36     0.00000177031550     0.00000246013390     0.00001251737221     0.00010694482423     0.00003372488466
   37     0.00000212797151     0.00000728318944     0.00003206347942     0.00003671103938     0.00000303718918
   38     0.88617280649934     0.07921613502954     0.01175300831679     0.00636740451194     0.01070797123847
   39     0.07763085894851     0.87063668848635     0.07269911636375     0.01177216196549     0.00394691820985
   40     0.00566511323528     0.01055903031427     0.06942019347880     0.85012939039360     0.08672701068827
   41     0.07725801699433     0.01179788519870     0.00603373155595     0.01590103991554     0.08764883373983
   42     0.00106920356600     0.01405851007461     0.01424568450183     0.00135190934691     0.00028744819764
   43     0.00004416894221     0.00028095893339     0.00144661609827     0.00031535201267     0.00007743562875
   44     0.00002473372026     0.00008329544222     0.00035094352393     0.00009059956926     0.00000774568001
   45     0.00000032962392     0.00000100844898     0.00000663082372     0.00001863161238     0.00000164618458
   46     0.00000091849336     0.00000163455714     0.00000704456446     0.00002588626101     0.00000772096902
   47     0.00011766909400     0.00021064981055     0.00205685890639     0.00817986093467     0.00061554160214
   48     0.00010502798147     0.00007742332313     0.00020915693478     0.00239853232556     0.00067945306403
   49     0.00029408646610     0.00012535440881     0.00021988143561     0.00432031023962     0.01024388124640
   50     0.00007251734779     0.00006456084455     0.00010333289725     0.00030316638533     0.00295067541884
   51     0.00000069892724     0.00000039131415     0.00000121160203     0.00001379311198     0.00002819768446
   52     0.00000104887651     0.00000054589519     0.00000106979115     0.00000919790452     0.00003429102878
   53     0.00000940555424     0.00000504556525     0.00000410983589     0.00000401881918     0.00002955746483
   54     0.00000039129325     0.00000026451765     0.00000053139467     0.00000453924960     0.00001612203235
   55     0.00000399370013     0.00000569274947     0.00000710793609     0.00000264375504     0.00001780729554
   56     0.00000022442941     0.00000005168075     0.00000016876991     0.00000083658768     0.00000125876618
   57     0.00000008677117     0.00000003706845     0.00000003269026     0.00000016046160     0.00000051264346
   58     0.00000066286917     0.00000040686099     0.00000052644139     0.00000231598689     0.00000851740494
   59     0.00000001477889     0.00000001070023     0.00000001742558     0.00000007155425     0.00000026243594
   60     0.00000000765222     0.00000000478012     0.00000000468917     0.00000003211784     0.00000004244715
   61     0.00000001551866     0.00000000253230     0.00000000707708     0.00000002855251     0.00000007735518
   62     0.00000006013237     0.00000001003625     0.00000006061355     0.00000010331976     0.00000087783121
   63     0.00000006308541     0.00000004933997     0.00000004143199     0.00000046555807     0.00000202800202
   64     0.00000004461114     0.00000002628108     0.00000003522322     0.00000055651792     0.00000112251855
   65     0.00000006140090     0.00000003339004     0.00000004902686     0.00000040762530     0.00000096932883
   66     0.00000073249956     0.00000188246836     0.00001102619459     0.00000851543529     0.00000059017066
   67     0.00000113907454     0.00000281553891     0.00001029758723     0.00000866124738     0.00000076492051
   68     0.00000024620412     0.00000073677657     0.00000387566921     0.00000817099154     0.00000044950248

                 6                   7                   8                   9                  10

    1     1.46614870184229     0.01458102923851     0.00353250406388     0.00036186156208     0.00040629742405
    2     0.13811759227558     0.10288905828138     0.04131820106741     0.00465873327144     0.00536590641660
    3     0.13571288927511     1.01998566884249     0.09776145754532     0.01475339723795     0.00575253739364
    4     0.15386248115936     0.10334860234601     0.02380455551276     0.00409287478001     0.00604086662551
    5     1.62711997844295     0.01384480252777     0.00217023278853     0.00068296662415     0.00032183218106
    6     0.00000000000000     0.00966034325940     0.00682708035774     0.00120014851921     0.00335637840734
    7     0.00966034325940     0.00000000000000     1.38969397462922     0.14710776845543     0.11216180031474
    8     0.00682708035774     1.38969397462922     0.00000000000000     1.43148296873751     0.13076436823143
    9     0.00120014851921     0.14710776845543     1.43148296873751     0.00000000000000     1.66358894057178
   10     0.00335637840734     0.11216180031474     0.13076436823143     1.66358894057178     0.00000000000000
   11     0.00085072231112     0.14167351711152     0.11302586684635     0.15267136462236     1.50622497475248
   12     0.00602887273770     1.52991531664618     0.12597862363594     0.11088789080299     0.10989109948085
   13     0.00007360444579     0.01929556266537     0.02049288865194     0.02422467073535     0.15933985371785
   14     0.00004471228932     0.00286559846673     0.00246263814553     0.00325668459364     0.01681076137878
   15     0.00000578767970     0.00050288990016     0.00144409830119     0.00093572158394     0.00312472554924
   16     0.00000400850534     0.00016159258348     0.00019418740551     0.00016324852817     0.00047438720476
   17     0.00000760343711     0.00024905837447     0.00129813319402     0.00044438045564     0.00126523320924
   18     0.00004190235858     0.00054887924304     0.00026254210732     0.00014150052298     0.00040770494512
   19     0.00019493591364     0.00569352122554     0.00310829413929     0.00153215608929     0.00428700395680
   20     0.00006939963898     0.00013235155880     0.00002866104716     0.00001791097148     0.00005857105589
   21     0.00002009727155     0.00002140620734     0.00000823192480     0.00000477710121     0.00001568847235
   22     0.00012702582731     0.00000715694659     0.00000244476800     0.00000118201523     0.00000338290242
   23     0.00174077053851     0.00005704933678     0.00001414665577     0.00000372795718     0.00000317485430
   24     0.00203538284906     0.00002821913599     0.00001559874685     0.00000238337856     0.00000218613196
   25     0.00020930204146     0.00000282175874     0.00000202178574     0.00000032732229     0.00000060322684
   26     0.00012660708233     0.00000186420613     0.00000071494783     0.00000019233662     0.00000027381967
   27     0.00014215958309     0.00000277365004     0.00000120642937     0.00000041583364     0.00000093050849
   28     0.00004508039743     0.00000094542257     0.00000033493609     0.00000006303945     0.00000013345421
   29     0.00000966900129     0.00000021619771     0.00000010557285     0.00000001834360     0.00000001982567
   30     0.00000753114311     0.00000018449007     0.00000009482166     0.00000001632204     0.00000002570402
   31     0.00000777267999     0.00000009419138     0.00000005393955     0.00000001452350     0.00000004257608
   32     0.00000302547645     0.00000003666335     0.00000002390768     0.00000000954689     0.00000000423830
   33     0.00000065880172     0.00000001698684     0.00000001635102     0.00000000279174     0.00000000269659
   34     0.00000207599187     0.00000003558284     0.00000002517342     0.00000000806464     0.00000000829628
   35     0.00000239235749     0.00000004991702     0.00000003695229     0.00000000615309     0.00000001064933
   36     0.00000665456621     0.00000988399875     0.00000831422282     0.00000406636232     0.00001118926437
   37     0.00000190604668     0.00014366151651     0.00013630453684     0.00013463697296     0.00073921892511
   38     0.08244358462532     0.00128276078136     0.00024480536794     0.00003860446670     0.00002517354188
   39     0.01171511345716     0.01611022082264     0.01470098514083     0.00113390185306     0.00039359548819
   40     0.01472620325114     0.01563418805593     0.00167181960526     0.00039896902353     0.00061594337693
   41     0.87923838104848     0.00053931645296     0.00026423260738     0.00005208583211     0.00010402131233
   42     0.00047932000349     0.07575844521166     0.87623032740598     0.08040994362906     0.01041185026485
   43     0.00004355957772     0.01180665133896     0.07621134682578     0.87538168186970     0.08900188111150
   44     0.00001157322434     0.00205965750266     0.00200796939258     0.00364324026908     0.03116198019342
   45     0.00000041446450     0.00001833834132     0.00000784227564     0.00002314936771     0.00005215427099
   46     0.00000115198764     0.00002296743535     0.00004133686694     0.00001658604658     0.00005163718272
   47     0.00020525288596     0.00419169349908     0.00092835160389     0.00042915689711     0.00075830858180
   48     0.00008691700265     0.00008863098257     0.00002676670331     0.00000971616704     0.00002010907537
   49     0.00097147207083     0.00004285331394     0.00000996565267     0.00000277537849     0.00000244023174
   50     0.00118151819349     0.00001096207226     0.00000432954495     0.00000072046252     0.00000028921393
   51     0.00000553796564     0.00000010724158     0.00000006320717     0.00000002030663     0.00000002907096
   52     0.00000970068915     0.00000035558870     0.00000011327881     0.00000006868910     0.00000014941327
   53     0.00002523314998     0.00000051466179     0.00000038196206     0.00000005837423     0.00000013270386
   54     0.00000437530303     0.00000009781776     0.00000003795868     0.00000000742508     0.00000001035982
   55     0.00000548570927     0.00000033541105     0.00000071788600     0.00000009133045     0.00000039631749
   56     0.00000231817047     0.00000002683297     0.00000003654455     0.00000000312356     0.00000000175998
   57     0.00000042251792     0.00000001346302     0.00000000488850     0.00000000202776     0.00000000348741
   58     0.00000714614367     0.00000006640674     0.00000004168647     0.00000001360050     0.00000002279579
   59     0.00000016739502     0.00000000693447     0.00000000657485     0.00000000061185     0.00000000174634
   60     0.00000002267871     0.00000000166467     0.00000000154103     0.00000000039107     0.00000000086921
   61     0.00000012913905     0.00000000238894     0.00000000288894     0.00000000031572     0.00000000051163
   62     0.00000010569520     0.00000000311904     0.00000000448526     0.00000000240074     0.00000000129110
   63     0.00000088581049     0.00000000988200     0.00000000745480     0.00000000346427     0.00000000733432
   64     0.00000062569861     0.00000001586303     0.00000000370637     0.00000000106671     0.00000000098434
   65     0.00000067755068     0.00000001192654     0.00000000660261     0.00000000154170     0.00000000328173
   66     0.00000039601034     0.00004248000367     0.00007513503733     0.00004155924484     0.00024283856927
   67     0.00000137288953     0.00004656615557     0.00011259009952     0.00004259433156     0.00032382276400
   68     0.00000016697792     0.00001426265010     0.00000569795751     0.00000435042552     0.00003285349181

                11                  12                  13                  14                  15

    1     0.00088438789715     0.00279934922496     0.00016892457439     0.00003122868581     0.00001057239035
    2     0.00336077128814     0.02216716272940     0.00048353731464     0.00009421507845     0.00002288173117
    3     0.01812148003683     0.11989133032152     0.00163732579225     0.00056556048629     0.00006653572792
    4     0.00689620346739     0.06232762781435     0.00094326483235     0.00130254718243     0.00014878953893
    5     0.00043139103650     0.00410763311262     0.00008883372892     0.00011411742375     0.00001584892463
    6     0.00085072231112     0.00602887273770     0.00007360444579     0.00004471228932     0.00000578767970
    7     0.14167351711152     1.52991531664618     0.01929556266537     0.00286559846673     0.00050288990016
    8     0.11302586684635     0.12597862363594     0.02049288865194     0.00246263814553     0.00144409830119
    9     0.15267136462236     0.11088789080299     0.02422467073535     0.00325668459364     0.00093572158394
   10     1.50622497475248     0.10989109948085     0.15933985371785     0.01681076137878     0.00312472554924
   11     0.00000000000000     1.53363846656664     1.26978287312881     0.08227933909933     0.01786395643672
   12     1.53363846656664     0.00000000000000     0.14163158056676     0.02925271552163     0.00346316658054
   13     1.26978287312881     0.14163158056676     0.00000000000000     1.12546089842227     0.10571571031460
   14     0.08227933909933     0.02925271552163     1.12546089842227     0.00000000000000     1.31610563460505
   15     0.01786395643672     0.00346316658054     0.10571571031460     1.31610563460505     0.00000000000000
   16     0.00238894538718     0.00114777202806     0.01436377626050     0.12589179326926     1.44198739776593
   17     0.00412816940449     0.00248401637227     0.01185406700823     0.11948499542949     0.12431015055135
   18     0.00242427848579     0.00480422580069     0.01321344852056     0.12292444728131     0.12005423419998
   19     0.02842770531067     0.05511061535591     0.11060851059962     1.40366600176436     0.11919047477013
   20     0.00034314412323     0.00111803217584     0.00132797712424     0.01514478654079     0.01138368760462
   21     0.00006194302740     0.00013017194363     0.00030643375268     0.00277967352341     0.00572866752619
   22     0.00001173906417     0.00002678805966     0.00005614844097     0.00035817117673     0.00033503402120
   23     0.00001362046908     0.00011250571846     0.00001374415655     0.00011431423783     0.00034585382825
   24     0.00000219790405     0.00001164544347     0.00000271307400     0.00001211477514     0.00003533374562
   25     0.00000077091217     0.00000248798968     0.00000182547617     0.00002257135148     0.00014332640632
   26     0.00000067997676     0.00000139545540     0.00000221138990     0.00001757636184     0.00003224956321
   27     0.00000345363295     0.00000461081167     0.00001326744203     0.00009692103490     0.00029708192075
   28     0.00000016874984     0.00000052066266     0.00000021499025     0.00000193929901     0.00000860465144
   29     0.00000003735081     0.00000016552715     0.00000006232674     0.00000054474232     0.00000176884088
   30     0.00000003207295     0.00000009190103     0.00000003936912     0.00000024597973     0.00000123007489
   31     0.00000002493462     0.00000005000775     0.00000004702474     0.00000030647477     0.00000074633839
   32     0.00000003071519     0.00000002000621     0.00000000999063     0.00000020784711     0.00000009014731
   33     0.00000000742374     0.00000000873822     0.00000000556683     0.00000003762236     0.00000003621246
   34     0.00000002873802     0.00000003513127     0.00000003431027     0.00000022713188     0.00000014210395
   35     0.00000002899557     0.00000005619247     0.00000005075759     0.00000023982743     0.00000042840593
   36     0.00004001523551     0.00005378096984     0.00015256080454     0.00103356018985     0.00334358766642
   37     0.00362146413562     0.00078117794234     0.03795587932719     0.09650713168845     1.06082862387656
   38     0.00009029876559     0.00031356436163     0.00001631071386     0.00000699259388     0.00000080157372
   39     0.00028621243416     0.00108772876448     0.00006643251323     0.00002558781140     0.00000402808104
   40     0.00280497687309     0.02571996842328     0.00043212076937     0.00123210028090     0.00016303964978
   41     0.00004335070139     0.00025289374900     0.00000556879144     0.00000401220420     0.00000057982904
   42     0.00572875809490     0.01068645842540     0.00103702566086     0.00011909860772     0.00006491773941
   43     0.01580807174913     0.00399713251710     0.00133908447060     0.00038281302550     0.00006194603961
   44     0.07350387610417     0.01150596358255     0.93451189923162     0.05950645128716     0.01494786328533
   45     0.00036798526972     0.00006199856774     0.00115779136878     0.01143514313035     0.07480196308851
   46     0.00014728639858     0.00015547099891     0.00051156377111     0.00525332151214     0.01051707824844
   47     0.00971129268524     0.03784697261469     0.01594888912508     0.07339998399335     0.00966976483300
   48     0.00012068255974     0.00068082382621     0.00017536612807     0.00206885388948     0.00111699014401
   49     0.00000884523552     0.00005238410853     0.00000524143814     0.00003803259689     0.00011135332870
   50     0.00000070870879     0.00000268710065     0.00000028149138     0.00000130572135     0.00000144297679
   51     0.00000007555546     0.00000023543737     0.00000047168355     0.00000266718504     0.00000338126290
   52     0.00000070244179     0.00000063285677     0.00000239679738     0.00001587358065     0.00001969427419
   53     0.00000006441387     0.00000028024552     0.00000007828635     0.00000038189721     0.00000175194882
   54     0.00000003916336     0.00000007239747     0.00000009113439     0.00000104704398     0.00000787259870
   55     0.00000004181377     0.00000018945924     0.00000005813155     0.00000002779794     0.00000008578109
   56     0.00000000769472     0.00000001043909     0.00000000587574     0.00000002739134     0.00000008966233
   57     0.00000000199741     0.00000000651633     0.00000000367204     0.00000002254821     0.00000007463172
   58     0.00000001850139     0.00000012699956     0.00000002391445     0.00000026997206     0.00000028785861
   59     0.00000000172517     0.00000000214523     0.00000000108579     0.00000000905206     0.00000001165066
   60     0.00000000128593     0.00000000199908     0.00000000083968     0.00000000579242     0.00000000938915
   61     0.00000000060822     0.00000000143324     0.00000000073493     0.00000000369970     0.00000000567030
   62     0.00000000655616     0.00000000815262     0.00000000485561     0.00000001486591     0.00000000626450
   63     0.00000000716609     0.00000002179568     0.00000002411446     0.00000010516998     0.00000007629857
   64     0.00000000522851     0.00000001519905     0.00000000497037     0.00000003067376     0.00000017800890
   65     0.00000000488457     0.00000001194620     0.00000001482321     0.00000005208455     0.00000007604552
   66     0.00073531734791     0.00025643918749     0.00893132767499     0.01648386017945     0.05843597192443
   67     0.00097232545745     0.00030390474652     0.01055863944011     0.01667027367131     0.05826692578398
   68     0.00023348158862     0.00006227401169     0.00200849211302     0.00894368648292     0.05944827984813

                16                  17                  18                  19                  20

    1     0.00000207045946     0.00001258834768     0.00002446434451     0.00015772615285     0.00005005378181
    2     0.00000558499797     0.00001932323401     0.00005289438316     0.00025218834169     0.00006919113241
    3     0.00003974033157     0.00005425474940     0.00028568298547     0.00201085928139     0.00031625871714
    4     0.00025523632653     0.00027549938757     0.00179742174408     0.01078632251870     0.00301592031240
    5     0.00001237176941     0.00004041663865     0.00021476447402     0.00062160202097     0.00056501417686
    6     0.00000400850534     0.00000760343711     0.00004190235858     0.00019493591364     0.00006939963898
    7     0.00016159258348     0.00024905837447     0.00054887924304     0.00569352122554     0.00013235155880
    8     0.00019418740551     0.00129813319402     0.00026254210732     0.00310829413929     0.00002866104716
    9     0.00016324852817     0.00044438045564     0.00014150052298     0.00153215608929     0.00001791097148
   10     0.00047438720476     0.00126523320924     0.00040770494512     0.00428700395680     0.00005857105589
   11     0.00238894538718     0.00412816940449     0.00242427848579     0.02842770531067     0.00034314412323
   12     0.00114777202806     0.00248401637227     0.00480422580069     0.05511061535591     0.00111803217584
   13     0.01436377626050     0.01185406700823     0.01321344852056     0.11060851059962     0.00132797712424
   14     0.12589179326926     0.11948499542949     0.12292444728131     1.40366600176436     0.01514478654079
   15     1.44198739776593     0.12431015055135     0.12005423419998     0.11919047477013     0.01138368760462
   16     0.00000000000000     1.44429028889376     0.13317967927862     0.12546215734998     0.01368000464954
   17     1.44429028889376     0.00000000000000     1.39967296218655     0.12147857278597     0.10462766100036
   18     0.13317967927862     1.39967296218655     0.00000000000000     1.36150673908529     1.12671002515393
   19     0.12546215734998     0.12147857278597     1.36150673908529     0.00000000000000     0.12446285286355
   20     0.01368000464954     0.10462766100036     1.12671002515393     0.12446285286355     0.00000000000000
   21     0.00279220750703     0.03135120585126     0.08651063881741     0.02252336721677     1.31341009786185
   22     0.00035761807036     0.00332117810017     0.01461660513773     0.00210217917200     0.10511311742228
   23     0.00014362028896     0.00118120987977     0.00398897458119     0.00123566033652     0.04189779962853
   24     0.00002103337723     0.00015809745821     0.00041171486536     0.00013314307204     0.00360162626022
   25     0.00002616527362     0.00024457367001     0.00045799675944     0.00020751133831     0.00336477840159
   26     0.00002213698726     0.00013627990857     0.00049884803060     0.00010171700830     0.00248813881130
   27     0.00010250600949     0.00087867256896     0.00232726664815     0.00064814223908     0.01789035357659
   28     0.00000224535114     0.00001916601105     0.00004024152875     0.00001604843720     0.00022795531014
   29     0.00000069421847     0.00000415984237     0.00001432240553     0.00000382710527     0.00007721319579
   30     0.00000031840938     0.00000232902377     0.00000371724056     0.00000171371537     0.00002417134828
   31     0.00000029464295     0.00000178494588     0.00000492627152     0.00000175788265     0.00002255801701
   32     0.00000013387632     0.00000052730827     0.00000155942495     0.00000046135073     0.00000423983139
   33     0.00000002714221     0.00000011991845     0.00000043026022     0.00000011936165     0.00000133598325
   34     0.00000024882920     0.00000096816015     0.00000461907229     0.00000100237135     0.00002013634747
   35     0.00000035007015     0.00000161666799     0.00000410405170     0.00000133171810     0.00002113982727
   36     0.00353888921626     0.04954029452841     0.03205526710164     0.00520846127602     0.19180355875616
   37     0.11563980575409     0.01438059079300     0.00736354299738     0.01395348976116     0.00072348247583
   38     0.00000031687349     0.00000067399597     0.00000495710968     0.00002268179047     0.00000489581077
   39     0.00000155415324     0.00000172336580     0.00000617816588     0.00003775784209     0.00000722544086
   40     0.00021303592569     0.00024280102078     0.00183695617490     0.00892406324477     0.00217359897414
   41     0.00000042581402     0.00000070958412     0.00000278134337     0.00001408134065     0.00000562069076
   42     0.00001056444115     0.00004697263294     0.00002960146788     0.00019927791110     0.00000680224478
   43     0.00001567160083     0.00001155628152     0.00001499453033     0.00010524604912     0.00000169428360
   44     0.00152243704045     0.00107778321961     0.00130122517678     0.01046526047922     0.00024212195676
   45     0.87150042865725     0.07902827918258     0.01176519284607     0.00564595245757     0.00103064935699
   46     0.07711566085126     0.85939298170914     0.07559959590404     0.01121207514278     0.01460916604920
   47     0.00565102812225     0.01017631946035     0.07131404929332     0.83765313244583     0.02403571051197
   48     0.00136971571930     0.01014008457501     0.06238365963554     0.02154749535131     0.93630445663657
   49     0.00005158107650     0.00035178925071     0.00150581273533     0.00061466559007     0.01498810862435
   50     0.00000212733745     0.00001282727333     0.00003114436672     0.00000920700724     0.00020304029381
   51     0.00000276167242     0.00001814953324     0.00006218384405     0.00001655244172     0.00026193915151
   52     0.00002678822712     0.00016742995481     0.00025038224925     0.00007303406508     0.00164642774203
   53     0.00000067442338     0.00000438524624     0.00000809584055     0.00000326538299     0.00005174460870
   54     0.00000111731253     0.00001180403222     0.00001731390738     0.00001019155476     0.00011871533343
   55     0.00000006363528     0.00000021847559     0.00000035067405     0.00000015084218     0.00000320204443
   56     0.00000007679456     0.00000037136669     0.00000110772866     0.00000018377920     0.00000480536061
   57     0.00000002282494     0.00000017829431     0.00000030103258     0.00000011581170     0.00000152541184
   58     0.00000034769453     0.00000133735777     0.00000343079983     0.00000170208965     0.00001571862309
   59     0.00000000611332     0.00000003268608     0.00000008228103     0.00000002866569     0.00000039645672
   60     0.00000000266871     0.00000001958488     0.00000006989873     0.00000003146234     0.00000026289276
   61     0.00000000325875     0.00000001323171     0.00000005723999     0.00000001795654     0.00000022949625
   62     0.00000001750147     0.00000003668596     0.00000034475390     0.00000005679375     0.00000135709766
   63     0.00000016596727     0.00000077104678     0.00000332726065     0.00000052443858     0.00001336487436
   64     0.00000003904800     0.00000030291943     0.00000079134280     0.00000041915683     0.00000470660774
   65     0.00000004784099     0.00000033457980     0.00000077150715     0.00000029543725     0.00000520032944
   66     0.01537997600272     0.00127499657905     0.00299630435662     0.00120590111555     0.00037621250838
   67     0.01489611916335     0.00125790103149     0.00275997290432     0.00125939400771     0.00032904828643
   68     0.02380272372698     0.00189917108803     0.00055492675913     0.00108435631225     0.00008385557001

                21                  22                  23                  24                  25

    1     0.00001185782129     0.00004833458910     0.00043301504807     0.00019161124894     0.00001514151582
    2     0.00001231504666     0.00003412441147     0.00027091547305     0.00018125016088     0.00001496595215
    3     0.00005029546358     0.00004220378957     0.00035290375078     0.00025238806610     0.00001869420451
    4     0.00037497743982     0.00056784776184     0.00588525897445     0.00133722094631     0.00010215946047
    5     0.00017008451276     0.00129335551626     0.01916866064258     0.01063640179315     0.00051596492584
    6     0.00002009727155     0.00012702582731     0.00174077053851     0.00203538284906     0.00020930204146
    7     0.00002140620734     0.00000715694659     0.00005704933678     0.00002821913599     0.00000282175874
    8     0.00000823192480     0.00000244476800     0.00001414665577     0.00001559874685     0.00000202178574
    9     0.00000477710121     0.00000118201523     0.00000372795718     0.00000238337856     0.00000032732229
   10     0.00001568847235     0.00000338290242     0.00000317485430     0.00000218613196     0.00000060322684
   11     0.00006194302740     0.00001173906417     0.00001362046908     0.00000219790405     0.00000077091217
   12     0.00013017194363     0.00002678805966     0.00011250571846     0.00001164544347     0.00000248798968
   13     0.00030643375268     0.00005614844097     0.00001374415655     0.00000271307400     0.00000182547617
   14     0.00277967352341     0.00035817117673     0.00011431423783     0.00001211477514     0.00002257135148
   15     0.00572866752619     0.00033503402120     0.00034585382825     0.00003533374562     0.00014332640632
   16     0.00279220750703     0.00035761807036     0.00014362028896     0.00002103337723     0.00002616527362
   17     0.03135120585126     0.00332117810017     0.00118120987977     0.00015809745821     0.00024457367001
   18     0.08651063881741     0.01461660513773     0.00398897458119     0.00041171486536     0.00045799675944
   19     0.02252336721677     0.00210217917200     0.00123566033652     0.00013314307204     0.00020751133831
   20     1.31341009786185     0.10511311742228     0.04189779962853     0.00360162626022     0.00336477840159
   21     0.00000000000000     0.97340108918777     0.10511043600721     0.01454981341463     0.01120680272044
   22     0.97340108918777     0.00000000000000     1.40241688037883     0.12752253732586     0.12368920038237
   23     0.10511043600721     1.40241688037883     0.00000000000000     1.46150828882858     0.12538611311231
   24     0.01454981341463     0.12752253732586     1.46150828882858     0.00000000000000     1.40862272629595
   25     0.01120680272044     0.12368920038237     0.12538611311231     1.40862272629595     0.00000000000000
   26     0.01475673624668     0.12714979833898     0.12965327573564     0.12651886748353     1.39517170891523
   27     0.11157188501775     1.38529775851784     0.12438343900230     0.13239144285651     0.12583287228609
   28     0.00071782993131     0.00803942671761     0.01453272920517     0.11430846963042     1.01665535485345
   29     0.00016402596692     0.00172906010288     0.00175594221761     0.01408523523462     0.07952704937598
   30     0.00007293984233     0.00077997776297     0.00057273870195     0.00522913305941     0.02149709721465
   31     0.00006154147734     0.00106582502953     0.00121571474080     0.00300959207456     0.01659787965184
   32     0.00001552154466     0.00021533125879     0.00023369646558     0.00052951337654     0.00232317360196
   33     0.00000378125755     0.00004559577689     0.00005810989420     0.00014008977073     0.00064375515022
   34     0.00005982802479     0.00045747771994     0.00049750110502     0.00086865418161     0.00680193338549
   35     0.00006461036666     0.00053810770274     0.00051888518781     0.00242057511904     0.01692587253348
   36     2.17652093394637     0.13697527302603     0.02538333740921     0.00314545577773     0.00622589546296
[...]
   15     0.00000008966233     0.00000007463172     0.00000028785861     0.00000001165066     0.00000000938915
   16     0.00000007679456     0.00000002282494     0.00000034769453     0.00000000611332     0.00000000266871
   17     0.00000037136669     0.00000017829431     0.00000133735777     0.00000003268608     0.00000001958488
   18     0.00000110772866     0.00000030103258     0.00000343079983     0.00000008228103     0.00000006989873
   19     0.00000018377920     0.00000011581170     0.00000170208965     0.00000002866569     0.00000003146234
   20     0.00000480536061     0.00000152541184     0.00001571862309     0.00000039645672     0.00000026289276
   21     0.00001485854748     0.00000411981003     0.00005277726232     0.00000085856685     0.00000071943646
   22     0.00012942514179     0.00006792593093     0.00113014366604     0.00000533040603     0.00000874464382
   23     0.00010447909399     0.00006938961068     0.00107219871010     0.00000850937983     0.00000815389435
   24     0.00037385205798     0.00016330586349     0.00265627430058     0.00003867430333     0.00001993709196
   25     0.00177192439162     0.00078161962350     0.01231942880715     0.00014409922479     0.00007151295347
   26     0.00096246549334     0.00070332448998     0.01864243260225     0.00011191034307     0.00008883705312
   27     0.00046358416621     0.00023855840508     0.00536058672762     0.00003008799635     0.00002606364248
   28     0.01161109756836     0.00140705280508     0.00728702311574     0.00070537603522     0.00011685222303
   29     0.06506864638495     0.00965539152717     0.01327250238371     0.00340140720806     0.00062316357924
   30     0.78441703548884     0.06619082272449     0.04850726648122     0.01269696489581     0.00395536235110
   31     0.04864528842235     0.91310115607022     0.74549173636909     0.01601255405347     0.01738363048363
   32     0.01353746274443     0.06478600840285     0.06242749398883     0.06707596260067     0.06354329620393
   33     0.01490019860035     0.01850553729528     0.01397762747883     0.91107635662615     0.91907402231643
   34     0.00795472230050     0.01247083689407     0.01974540885434     0.01619559190762     0.01257710165988
   35     0.02158587676471     0.00296008831975     0.00921472553280     0.01360803493665     0.00185515711416
   36     0.00000547378434     0.00000216479107     0.00004181124196     0.00000043635296     0.00000041130308
   37     0.00000001147744     0.00000000454495     0.00000004488207     0.00000000184240     0.00000000085338
   38     0.00000002947385     0.00000000530614     0.00000002917167     0.00000000132904     0.00000000045895
   39     0.00000001555760     0.00000000187825     0.00000001871272     0.00000000073589     0.00000000047442
   40     0.00000018572774     0.00000004808080     0.00000043094399     0.00000001642279     0.00000001714019
   41     0.00000091800930     0.00000015417113     0.00000132896624     0.00000004166530     0.00000002720828
   42     0.00000000142407     0.00000000018216     0.00000000196411     0.00000000018678     0.00000000004078
   43     0.00000000049977     0.00000000006851     0.00000000086454     0.00000000010214     0.00000000004100
   44     0.00000000134803     0.00000000056665     0.00000000432834     0.00000000024028     0.00000000014255
   45     0.00000000600145     0.00000000133543     0.00000002212132     0.00000000111646     0.00000000027934
   46     0.00000005411859     0.00000001755764     0.00000066394845     0.00000000349085     0.00000000390416
   47     0.00000018868538     0.00000002133923     0.00000032722990     0.00000001033232     0.00000000229731
   48     0.00000464145024     0.00000095818496     0.00000686846865     0.00000038302709     0.00000020712854
   49     0.00001516495673     0.00000296419212     0.00001962683631     0.00000166046217     0.00000064866544
   50     0.00004530381366     0.00001337429546     0.00010427466852     0.00000261780717     0.00000317291112
   51     0.00035927339663     0.00015489042777     0.00372250606368     0.00006723789613     0.00004498953419
   52     0.00003768422293     0.00001615371930     0.00035006291149     0.00000214833050     0.00000223580211
   53     0.00121580252915     0.00017653970803     0.00100101380669     0.00006659433134     0.00002134965264
   54     0.00046896260357     0.00026792989591     0.00044636699591     0.00006059924089     0.00002058693330
   55     0.01802859204101     0.00577200596356     0.01019607188368     0.00035318921726     0.00009939741836
   56     0.00000000000000     0.00935641031787     0.02648984282449     0.00724213037298     0.00173034627398
   57     0.00935641031787     0.00000000000000     0.02536173772982     0.00255634974875     0.00557383549645
   58     0.02648984282449     0.02536173772982     0.00000000000000     0.00111304258177     0.00113282324184
   59     0.00724213037298     0.00255634974875     0.00111304258177     0.00000000000000     0.03506168667709
   60     0.00173034627398     0.00557383549645     0.00113282324184     0.03506168667709     0.00000000000000
   61     0.00061375373799     0.00113172582288     0.00066006078888     0.03477759657642     0.03771542412230
   62     0.00048975934959     0.00134055784978     0.00161510660683     0.00347416002109     0.00133306998877
   63     0.00113167211581     0.00129721261201     0.00542737382711     0.00109922478753     0.00107852396459
   64     0.00540962102074     0.00059462442052     0.00073865482412     0.00918723908329     0.00079557166372
   65     0.00082118571068     0.00028799788577     0.00069788894904     0.00063914584486     0.00021595067109
   66     0.00000000450919     0.00000000296757     0.00000001251126     0.00000000058144     0.00000000029933
   67     0.00000000222855     0.00000000250840     0.00000002215404     0.00000000043481     0.00000000024602
   68     0.00000000075425     0.00000000022251     0.00000000811622     0.00000000016821     0.00000000008340

                61                  62                  63                  64                  65

    1     0.00000001551866     0.00000006013237     0.00000006308541     0.00000004461114     0.00000006140090
    2     0.00000000253230     0.00000001003625     0.00000004933997     0.00000002628108     0.00000003339004
    3     0.00000000707708     0.00000006061355     0.00000004143199     0.00000003522322     0.00000004902686
    4     0.00000002855251     0.00000010331976     0.00000046555807     0.00000055651792     0.00000040762530
    5     0.00000007735518     0.00000087783121     0.00000202800202     0.00000112251855     0.00000096932883
    6     0.00000012913905     0.00000010569520     0.00000088581049     0.00000062569861     0.00000067755068
    7     0.00000000238894     0.00000000311904     0.00000000988200     0.00000001586303     0.00000001192654
    8     0.00000000288894     0.00000000448526     0.00000000745480     0.00000000370637     0.00000000660261
    9     0.00000000031572     0.00000000240074     0.00000000346427     0.00000000106671     0.00000000154170
   10     0.00000000051163     0.00000000129110     0.00000000733432     0.00000000098434     0.00000000328173
   11     0.00000000060822     0.00000000655616     0.00000000716609     0.00000000522851     0.00000000488457
   12     0.00000000143324     0.00000000815262     0.00000002179568     0.00000001519905     0.00000001194620
   13     0.00000000073493     0.00000000485561     0.00000002411446     0.00000000497037     0.00000001482321
   14     0.00000000369970     0.00000001486591     0.00000010516998     0.00000003067376     0.00000005208455
   15     0.00000000567030     0.00000000626450     0.00000007629857     0.00000017800890     0.00000007604552
   16     0.00000000325875     0.00000001750147     0.00000016596727     0.00000003904800     0.00000004784099
   17     0.00000001323171     0.00000003668596     0.00000077104678     0.00000030291943     0.00000033457980
   18     0.00000005723999     0.00000034475390     0.00000332726065     0.00000079134280     0.00000077150715
   19     0.00000001795654     0.00000005679375     0.00000052443858     0.00000041915683     0.00000029543725
   20     0.00000022949625     0.00000135709766     0.00001336487436     0.00000470660774     0.00000520032944
   21     0.00000044962181     0.00000345985991     0.00004141164202     0.00001314721850     0.00001674953333
   22     0.00000349027815     0.00001628103110     0.00026232606996     0.00008620991771     0.00010455424754
   23     0.00000445419578     0.00003375330408     0.00028819159806     0.00010361137457     0.00010604260936
   24     0.00000770354376     0.00007467723262     0.00040294060329     0.00045321558405     0.00033396330509
   25     0.00004429750247     0.00026827290821     0.00285287024027     0.00144853620032     0.00415754238048
   26     0.00007662554048     0.00056998337154     0.01424498633732     0.00065924097073     0.00527386867882
   27     0.00001540873207     0.00011099192107     0.00195609851009     0.00020709146901     0.00032918612352
   28     0.00011267343946     0.00101539053063     0.00303630586288     0.01354773024917     0.01809879186759
   29     0.00072936823780     0.01287299593787     0.01181507530791     0.07146997113602     0.06083148161531
   30     0.00173454823021     0.00173748631833     0.00699779066342     0.02248851461632     0.01281536302480
   31     0.01226338046831     0.01528872337448     0.01998735020488     0.00806871028386     0.00295198953708
   32     0.06261281339606     0.04830340621985     0.07872417218315     0.01491578292556     0.01000148941560
   33     0.91953225132749     0.02538115897772     0.01103353306392     0.01715057902819     0.00175730741251
   34     0.02161777492799     0.79755531249946     0.93867729763721     0.05616353942401     0.06110539689008
   35     0.00411298728226     0.05898969130254     0.06664194408627     0.76608728883367     0.89785600543608
   36     0.00000015915815     0.00000059351860     0.00001616540846     0.00000822515131     0.00000428386484
   37     0.00000000062867     0.00000000240119     0.00000001922049     0.00000001177098     0.00000001003596
   38     0.00000000040072     0.00000000167675     0.00000000421096     0.00000000617727     0.00000001164038
   39     0.00000000079054     0.00000000106122     0.00000000487036     0.00000000725701     0.00000000559683
   40     0.00000000340081     0.00000001790934     0.00000008556723     0.00000022825114     0.00000013964588
   41     0.00000003444476     0.00000007612323     0.00000040255076     0.00000031404481     0.00000021546945
   42     0.00000000002569     0.00000000015261     0.00000000044587     0.00000000047269     0.00000000083959
   43     0.00000000002579     0.00000000020359     0.00000000015806     0.00000000021404     0.00000000024886
   44     0.00000000009820     0.00000000052245     0.00000000498775     0.00000000070739     0.00000000194603
   45     0.00000000089444     0.00000000154866     0.00000004545390     0.00000000428358     0.00000000831339
   46     0.00000000426002     0.00000001993650     0.00000029088165     0.00000002314206     0.00000014654700
   47     0.00000000355652     0.00000001149637     0.00000008157827     0.00000008080091     0.00000004350876
   48     0.00000006572836     0.00000037539115     0.00000289692415     0.00000296783599     0.00000175376452
   49     0.00000044593604     0.00000324550738     0.00002617468054     0.00002098525627     0.00001334043084
   50     0.00000094798153     0.00001533791093     0.00004121079659     0.00005568902151     0.00006705321011
   51     0.00008415376676     0.00117458124272     0.01092685315076     0.00045405613306     0.00287957240577
   52     0.00000053139169     0.00000783015852     0.00027170049320     0.00002818212292     0.00002049615086
   53     0.00002635660041     0.00041657736879     0.00020231923727     0.00050679045243     0.00098233977861
   54     0.00001763061206     0.00011017263134     0.00033982057790     0.00118145235346     0.00480135888987
   55     0.00026789440658     0.00064846172030     0.00030969331832     0.00101231377170     0.00141879340505
   56     0.00061375373799     0.00048975934959     0.00113167211581     0.00540962102074     0.00082118571068
   57     0.00113172582288     0.00134055784978     0.00129721261201     0.00059462442052     0.00028799788577
   58     0.00066006078888     0.00161510660683     0.00542737382711     0.00073865482412     0.00069788894904
   59     0.03477759657642     0.00347416002109     0.00109922478753     0.00918723908329     0.00063914584486
   60     0.03771542412230     0.00133306998877     0.00107852396459     0.00079557166372     0.00021595067109
   61     0.00000000000000     0.00829397310184     0.00131394652574     0.00173886561351     0.00016398187409
   62     0.00829397310184     0.00000000000000     0.03717839435654     0.01297449565782     0.00593954304379
   63     0.00131394652574     0.03717839435654     0.00000000000000     0.00944991464167     0.00707113403520
   64     0.00173886561351     0.01297449565782     0.00944991464167     0.00000000000000     0.02334547765545
   65     0.00016398187409     0.00593954304379     0.00707113403520     0.02334547765545     0.00000000000000
   66     0.00000000012309     0.00000000101682     0.00000000454550     0.00000000723947     0.00000000297159
   67     0.00000000018223     0.00000000070854     0.00000000214800     0.00000000638723     0.00000000232236
   68     0.00000000007515     0.00000000031904     0.00000000294594     0.00000000342760     0.00000000151649

                66                  67                  68

    1     0.00000073249956     0.00000113907454     0.00000024620412
    2     0.00000188246836     0.00000281553891     0.00000073677657
    3     0.00001102619459     0.00001029758723     0.00000387566921
    4     0.00000851543529     0.00000866124738     0.00000817099154
    5     0.00000059017066     0.00000076492051     0.00000044950248
    6     0.00000039601034     0.00000137288953     0.00000016697792
    7     0.00004248000367     0.00004656615557     0.00001426265010
    8     0.00007513503733     0.00011259009952     0.00000569795751
    9     0.00004155924484     0.00004259433156     0.00000435042552
   10     0.00024283856927     0.00032382276400     0.00003285349181
   11     0.00073531734791     0.00097232545745     0.00023348158862
   12     0.00025643918749     0.00030390474652     0.00006227401169
   13     0.00893132767499     0.01055863944011     0.00200849211302
   14     0.01648386017945     0.01667027367131     0.00894368648292
   15     0.05843597192443     0.05826692578398     0.05944827984813
   16     0.01537997600272     0.01489611916335     0.02380272372698
   17     0.00127499657905     0.00125790103149     0.00189917108803
   18     0.00299630435662     0.00275997290432     0.00055492675913
   19     0.00120590111555     0.00125939400771     0.00108435631225
   20     0.00037621250838     0.00032904828643     0.00008385557001
   21     0.00021380877217     0.00020097785912     0.00003087943231
   22     0.00001188036699     0.00001443675437     0.00000694754713
   23     0.00001412770234     0.00001315567325     0.00000273222694
   24     0.00000146257417     0.00000143543570     0.00000032430773
   25     0.00000610328900     0.00000557121722     0.00000027952129
   26     0.00000110662436     0.00000133219927     0.00000030264390
   27     0.00001106940518     0.00001192340848     0.00000157837227
   28     0.00000039219925     0.00000031964076     0.00000003499396
   29     0.00000007102758     0.00000007510045     0.00000001212385
   30     0.00000004588635     0.00000004252502     0.00000000705916
   31     0.00000003170257     0.00000003193973     0.00000000614635
   32     0.00000000463882     0.00000000394201     0.00000000598884
   33     0.00000000120964     0.00000000125735     0.00000000065798
   34     0.00000000932764     0.00000000496644     0.00000000501556
   35     0.00000002120150     0.00000001733211     0.00000001161516
   36     0.00012592769576     0.00012123130666     0.00001663462231
   37     0.91932052746664     0.91851711539426     0.92009783698662
   38     0.00000008691484     0.00000009787734     0.00000003884368
   39     0.00000024524328     0.00000031391142     0.00000010016390
   40     0.00000718957867     0.00000771025664     0.00000830373477
   41     0.00000005271886     0.00000007271461     0.00000004261793
   42     0.00000328208140     0.00000448448981     0.00000045400059
   43     0.00000269402274     0.00000310125976     0.00000061893146
   44     0.00472824472866     0.00445076708222     0.00104588080935
   45     0.00127416283451     0.00120674001365     0.00765433936950
   46     0.00020716505200     0.00021976949992     0.00012790152719
   47     0.00018189190903     0.00018338663380     0.00034854702240
   48     0.00003847864519     0.00004220035964     0.00003838023692
   49     0.00000446974279     0.00000374223572     0.00000110587455
   50     0.00000006397945     0.00000009902725     0.00000005077782
   51     0.00000020390305     0.00000014475019     0.00000008428647
   52     0.00000091857113     0.00000076808391     0.00000046143434
   53     0.00000009037806     0.00000006803898     0.00000001117524
   54     0.00000032971012     0.00000032999109     0.00000001354998
   55     0.00000000366091     0.00000000466736     0.00000000142324
   56     0.00000000450919     0.00000000222855     0.00000000075425
   57     0.00000000296757     0.00000000250840     0.00000000022251
   58     0.00000001251126     0.00000002215404     0.00000000811622
   59     0.00000000058144     0.00000000043481     0.00000000016821
   60     0.00000000029933     0.00000000024602     0.00000000008340
   61     0.00000000012309     0.00000000018223     0.00000000007515
   62     0.00000000101682     0.00000000070854     0.00000000031904
   63     0.00000000454550     0.00000000214800     0.00000000294594
   64     0.00000000723947     0.00000000638723     0.00000000342760
   65     0.00000000297159     0.00000000232236     0.00000000151649
   66     0.00000000000000     0.03488020143026     0.03835621700514
   67     0.03488020143026     0.00000000000000     0.03848856785933
   68     0.03835621700514     0.03848856785933     0.00000000000000



  Atomic Valences: 

 #  #
 Irrep: 1
      1:  4.3918305
      2:  4.4227118
      3:  4.6023667
      4:  4.5818889
      5:  3.9140134
      6:  4.5449845
      7:  4.7422593
      8:  4.3683859
      9:  4.5239863
     10:  3.8636198
     11:  4.9997382
     12:  3.9607593
     13:  4.0359218
     14:  4.6642965
     15:  4.6251016
     16:  4.4379180
     17:  4.4023421
     18:  4.6690285
     19:  4.4248053
     20:  4.0803450
     21:  5.0017216
     22:  4.6144626
     23:  4.4485731
     24:  4.4459360
     25:  4.6832656
     26:  4.4796203
     27:  4.4308163
     28:  4.5018558
     29:  4.2588727
     30:  4.5570660
     31:  4.5653077
     32:  4.2014552
     33:  4.2833156
     34:  4.5616958
     35:  4.5421643
     36:  2.7602396
     37:  4.1509295
     38:  1.0980054
     39:  1.1014333
     40:  1.1150171
     41:  1.0915667
     42:  1.1093082
     43:  1.0860241
     44:  1.1755617
     45:  1.0998957
     46:  1.1070508
     47:  1.1356551
     48:  1.1837741
     49:  1.1123596
     50:  1.1049251
     51:  1.1274081
     52:  1.0965550
     53:  1.1226921
     54:  1.1050764
     55:  1.0429235
     56:  1.0450196
     57:  1.1450164
     58:  1.0403287
     59:  1.1368184
     60:  1.1041834
     61:  1.1096764
     62:  1.0372410
     63:  1.2341694
     64:  1.0403779
     65:  1.1251207
     66:  1.1058941
     67:  1.1062054
     68:  1.1044208


    Psi4 stopped on: Tuesday, 10 March 2020 11:19PM
    Psi4 wall time for execution: 0:20:48.78

*** Psi4 exiting successfully. Buy a developer a beer!
