
    -----------------------------------------------------------------------
          Psi4: An Open-Source Ab Initio Electronic Structure Package
                               Psi4 1.3.2 release

                         Git: Rev {HEAD} ecbda83 


    R. M. Parrish, L. A. Burns, D. G. A. Smith, A. C. Simmonett,
    A. E. DePrince III, E. G. Hohenstein, U. Bozkaya, A. Yu. Sokolov,
    R. Di Remigio, R. M. Richard, J. F. Gonthier, A. M. James,
    H. R. McAlexander, A. Kumar, M. Saitow, X. Wang, B. P. Pritchard,
    P. Verma, H. F. Schaefer III, K. Patkowski, R. A. King, E. F. Valeev,
    F. A. Evangelista, J. M. Turney, T. D. Crawford, and C. D. Sherrill,
    J. Chem. Theory Comput. 13(7) pp 3185--3197 (2017).
    (doi: 10.1021/acs.jctc.7b00174)


                         Additional Contributions by
    P. Kraus, H. Kruse, M. H. Lechner, M. C. Schieber, R. A. Shaw,
    A. Alenaizan, R. Galvelis, Z. L. Glick, S. Lehtola, and J. P. Misiewicz

    -----------------------------------------------------------------------


    Psi4 started on: Tuesday, 14 April 2020 12:44PM

    Process ID: 85549
    Host:       node84.bme.utexas.edu
    PSIDATADIR: /home/bdw2292/miniconda3/envs/p4env/share/psi4
    Memory:     500.0 MiB
    Threads:    1
    
  ==> Input File <==

--------------------------------------------------------------------------
molecule { 
0 1
 C   -0.295818    4.442537   -0.481709
 C    1.040188    4.313934   -0.079205
 C    1.672484    3.056721   -0.136641
 C    0.883575    1.991016   -0.636099
 N   -0.391387    2.094787   -1.032983
 C   -0.964858    3.305368   -0.948046
 C    3.104546    2.817804    0.271452
 C    4.037693    3.818859    0.587460
 C    5.332366    3.374893    0.883137
 N    5.703999    2.096254    0.894131
 C    4.737681    1.201637    0.604348
 N    3.479667    1.526141    0.303124
 N    5.124809   -0.126764    0.635546
 C    4.445681   -1.361471    0.327392
 C    5.206855   -2.550129    0.110569
 C    4.498855   -3.716014   -0.227640
 C    3.105483   -3.778918   -0.348232
 C    2.366049   -2.620941   -0.085439
 C    3.049615   -1.437811    0.236274
 N    0.939026   -2.507604   -0.141775
 C   -0.031159   -3.377529   -0.583944
 C   -1.430105   -2.813191   -0.747903
 C   -1.693591   -1.504659   -1.186096
 C   -3.006524   -1.032883   -1.254627
 C   -4.105356   -1.839924   -0.907687
 C   -3.825069   -3.167630   -0.523467
 C   -2.516446   -3.651409   -0.450372
 C   -5.546021   -1.318310   -0.890714
 N   -5.965367   -0.121663   -0.139558
 C   -5.634054    1.243931   -0.609866
 C   -4.390276    1.918135    0.028667
 N   -4.397832    1.893422    1.510319
 C   -5.195613    2.922135    2.188514
 C   -4.604596    0.492782    1.953429
 C   -5.860666   -0.174133    1.338521
 O    0.195866   -4.553755   -0.821205
 C    6.723035   -2.597645    0.200288
 H   -0.808064    5.398844   -0.433448
 H    1.558658    5.194209    0.293246
 H    1.310420    0.999714   -0.751737
 H   -2.000758    3.357214   -1.277605
 H    3.823944    4.880517    0.582037
 H    6.136640    4.069967    1.122865
 H    6.110795   -0.181609    0.841854
 H    5.052707   -4.634610   -0.417700
 H    2.598335   -4.696165   -0.620345
 H    2.481272   -0.546095    0.442415
 H    0.587731   -1.599273    0.127913
 H   -0.869615   -0.849381   -1.459524
 H   -3.166890   -0.024950   -1.627616
 H   -4.639124   -3.839094   -0.250771
 H   -2.319629   -4.675624   -0.142833
 H   -5.827977   -1.136750   -1.937822
 H   -6.183068   -2.126988   -0.504402
 H   -5.539472    1.260343   -1.965462
 H   -6.826989    2.107976   -0.250356
 H   -4.315296    3.089334   -0.354230
 H   -3.540584    1.468849   -0.269953
 H   -6.262669    2.795135    1.973884
 H   -4.884600    3.920167    1.858587
 H   -5.043886    2.864783    3.272619
 H   -4.626210    0.450262    3.099579
 H   -3.386720   -0.293682    1.494438
 H   -7.034766    0.489887    1.877196
 H   -5.913852   -1.551773    1.781154
 H    7.100913   -2.280842    1.182648
 H    7.180625   -1.944311   -0.547868
 H    7.124224   -3.599929    0.028367
}
memory 20GB
set_num_threads(6)
psi4_io.set_default_path("/scratch/bdw2292")
set freeze_core True
E, wfn = energy('mp2/6-311++G**',return_wfn=True)
oeprop(wfn,"WIBERG_LOWDIN_INDICES")
clean()
--------------------------------------------------------------------------

  Memory set to  18.626 GiB by Python driver.
  Threads set to 6 by Python driver.
    SCF Algorithm Type (re)set to DF.

*** tstart() called on node84.bme.utexas.edu
*** at Tue Apr 14 12:44:39 2020

   => Loading Basis Set <=

    Name: 6-311++G**
    Role: ORBITAL
    Keyword: BASIS
    atoms 1-4, 6-9, 11, 14-19, 21-28, 30-31, 33-35, 37 entry C          line   119 file /home/bdw2292/miniconda3/envs/p4env/share/psi4/basis/6-311ppgss.gbs 
    atoms 5, 10, 12-13, 20, 29, 32                     entry N          line   140 file /home/bdw2292/miniconda3/envs/p4env/share/psi4/basis/6-311ppgss.gbs 
    atoms 36                                           entry O          line   161 file /home/bdw2292/miniconda3/envs/p4env/share/psi4/basis/6-311ppgss.gbs 
    atoms 38-68                                        entry H          line    42 file /home/bdw2292/miniconda3/envs/p4env/share/psi4/basis/6-311ppgss.gbs 


         ---------------------------------------------------------
                                   SCF
               by Justin Turney, Rob Parrish, Andy Simmonett
                          and Daniel G. A. Smith
                              RHF Reference
                        6 Threads,  19073 MiB Core
         ---------------------------------------------------------

  ==> Geometry <==

    Molecular point group: c1
    Full point group: C1

    Geometry (in Angstrom), charge = 0, multiplicity = 1:

       Center              X                  Y                   Z               Mass       
    ------------   -----------------  -----------------  -----------------  -----------------
         C           -0.390939736801     4.484990410641    -0.494047283962    12.000000000000
         C            0.945066263199     4.356387410641    -0.091543283962    12.000000000000
         C            1.577362263199     3.099174410641    -0.148979283962    12.000000000000
         C            0.788453263199     2.033469410641    -0.648437283962    12.000000000000
         N           -0.486508736801     2.137240410641    -1.045321283962    14.003074004430
         C           -1.059979736801     3.347821410641    -0.960384283962    12.000000000000
         C            3.009424263199     2.860257410641     0.259113716038    12.000000000000
         C            3.942571263199     3.861312410641     0.575121716038    12.000000000000
         C            5.237244263199     3.417346410641     0.870798716038    12.000000000000
         N            5.608877263199     2.138707410641     0.881792716038    14.003074004430
         C            4.642559263199     1.244090410641     0.592009716038    12.000000000000
         N            3.384545263199     1.568594410641     0.290785716038    14.003074004430
         N            5.029687263199    -0.084310589359     0.623207716038    14.003074004430
         C            4.350559263199    -1.319017589359     0.315053716038    12.000000000000
         C            5.111733263199    -2.507675589359     0.098230716038    12.000000000000
         C            4.403733263199    -3.673560589359    -0.239978283962    12.000000000000
         C            3.010361263199    -3.736464589359    -0.360570283962    12.000000000000
         C            2.270927263199    -2.578487589359    -0.097777283962    12.000000000000
         C            2.954493263199    -1.395357589359     0.223935716038    12.000000000000
         N            0.843904263199    -2.465150589359    -0.154113283962    14.003074004430
         C           -0.126280736801    -3.335075589359    -0.596282283962    12.000000000000
         C           -1.525226736801    -2.770737589359    -0.760241283962    12.000000000000
         C           -1.788712736801    -1.462205589359    -1.198434283962    12.000000000000
         C           -3.101645736801    -0.990429589359    -1.266965283962    12.000000000000
         C           -4.200477736801    -1.797470589359    -0.920025283962    12.000000000000
         C           -3.920190736801    -3.125176589359    -0.535805283962    12.000000000000
         C           -2.611567736801    -3.608955589359    -0.462710283962    12.000000000000
         C           -5.641142736801    -1.275856589359    -0.903052283962    12.000000000000
         N           -6.060488736801    -0.079209589359    -0.151896283962    14.003074004430
         C           -5.729175736801     1.286384410641    -0.622204283962    12.000000000000
         C           -4.485397736801     1.960588410641     0.016328716038    12.000000000000
         N           -4.492953736801     1.935875410641     1.497980716038    14.003074004430
         C           -5.290734736801     2.964588410641     2.176175716038    12.000000000000
         C           -4.699717736801     0.535235410641     1.941090716038    12.000000000000
         C           -5.955787736801    -0.131679589359     1.326182716038    12.000000000000
         O            0.100744263199    -4.511301589359    -0.833543283962    15.994914619570
         C            6.627913263199    -2.555191589359     0.187949716038    12.000000000000
         H           -0.903185736801     5.441297410641    -0.445786283962     1.007825032230
         H            1.463536263199     5.236662410641     0.280907716038     1.007825032230
         H            1.215298263199     1.042167410641    -0.764075283962     1.007825032230
         H           -2.095879736801     3.399667410641    -1.289943283962     1.007825032230
         H            3.728822263199     4.922970410641     0.569698716038     1.007825032230
         H            6.041518263199     4.112420410641     1.110526716038     1.007825032230
         H            6.015673263199    -0.139155589359     0.829515716038     1.007825032230
         H            4.957585263199    -4.592156589359    -0.430038283962     1.007825032230
         H            2.503213263199    -4.653711589359    -0.632683283962     1.007825032230
         H            2.386150263199    -0.503641589359     0.430076716038     1.007825032230
         H            0.492609263199    -1.556819589359     0.115574716038     1.007825032230
         H           -0.964736736801    -0.806927589359    -1.471862283962     1.007825032230
         H           -3.262011736801     0.017503410641    -1.639954283962     1.007825032230
         H           -4.734245736801    -3.796640589359    -0.263109283962     1.007825032230
         H           -2.414750736801    -4.633170589359    -0.155171283962     1.007825032230
         H           -5.923098736801    -1.094296589359    -1.950160283962     1.007825032230
         H           -6.278189736801    -2.084534589359    -0.516740283962     1.007825032230
         H           -5.634593736801     1.302796410641    -1.977800283962     1.007825032230
         H           -6.922110736801     2.150429410641    -0.262694283962     1.007825032230
         H           -4.410417736801     3.131787410641    -0.366568283962     1.007825032230
         H           -3.635705736801     1.511302410641    -0.282291283962     1.007825032230
         H           -6.357790736801     2.837588410641     1.961545716038     1.007825032230
         H           -4.979721736801     3.962620410641     1.846248716038     1.007825032230
         H           -5.139007736801     2.907236410641     3.260280716038     1.007825032230
         H           -4.721331736801     0.492715410641     3.087240716038     1.007825032230
         H           -3.481841736801    -0.251228589359     1.482099716038     1.007825032230
         H           -7.129887736801     0.532340410641     1.864857716038     1.007825032230
         H           -6.008973736801    -1.509319589359     1.768815716038     1.007825032230
         H            7.005791263199    -2.238388589359     1.170309716038     1.007825032230
         H            7.085503263199    -1.901857589359    -0.560206283962     1.007825032230
         H            7.029102263199    -3.557475589359     0.016028716038     1.007825032230

  Running in c1 symmetry.

  Rotational constants: A =      0.00437  B =      0.00209  C =      0.00150 [cm^-1]
  Rotational constants: A =    131.08260  B =     62.76141  C =     44.93719 [MHz]
  Nuclear repulsion = 3784.720068514755440

  Charge       = 0
  Multiplicity = 1
  Electrons    = 262
  Nalpha       = 131
  Nbeta        = 131

  ==> Algorithm <==

  SCF Algorithm Type is DF.
  DIIS enabled.
  MOM disabled.
  Fractional occupation disabled.
  Guess Type is SAD.
  Energy threshold   = 1.00e-08
  Density threshold  = 1.00e-08
  Integral threshold = 0.00e+00

  ==> Primary Basis <==

  Basis Set: 6-311++G**
    Blend: 6-311++G**
    Number of shells: 525
    Number of basis function: 1031
    Number of Cartesian functions: 1068
    Spherical Harmonics?: true
    Max angular momentum: 2

   => Loading Basis Set <=

    Name: (6-311++G** AUX)
    Role: JKFIT
    Keyword: DF_BASIS_SCF
    atoms 1-4, 6-9, 11, 14-19, 21-28, 30-31, 33-35, 37 entry C          line   162 file /home/bdw2292/miniconda3/envs/p4env/share/psi4/basis/aug-cc-pvtz-jkfit.gbs 
    atoms 5, 10, 12-13, 20, 29, 32                     entry N          line   224 file /home/bdw2292/miniconda3/envs/p4env/share/psi4/basis/aug-cc-pvtz-jkfit.gbs 
    atoms 36                                           entry O          line   286 file /home/bdw2292/miniconda3/envs/p4env/share/psi4/basis/aug-cc-pvtz-jkfit.gbs 
    atoms 38-68                                        entry H          line    70 file /home/bdw2292/miniconda3/envs/p4env/share/psi4/basis/aug-cc-pvtz-jkfit.gbs 

  ==> Pre-Iterations <==

   -------------------------------------------------------
    Irrep   Nso     Nmo     Nalpha   Nbeta   Ndocc  Nsocc
   -------------------------------------------------------
     A       1031    1031       0       0       0       0
   -------------------------------------------------------
    Total    1031    1031     131     131     131       0
   -------------------------------------------------------

  ==> Integral Setup <==

  ==> DiskDFJK: Density-Fitted J/K Matrices <==

    J tasked:                  Yes
    K tasked:                  Yes
    wK tasked:                  No
    OpenMP threads:              6
    Integrals threads:           6
    Memory [MiB]:            14305
    Algorithm:                Disk
    Integral Cache:           NONE
    Schwarz Cutoff:          1E-12
    Fitting Condition:       1E-10

   => Auxiliary Basis Set <=

  Basis Set: (6-311++G** AUX)
    Blend: AUG-CC-PVTZ-JKFIT
    Number of shells: 1544
    Number of basis function: 5274
    Number of Cartesian functions: 6552
    Spherical Harmonics?: true
    Max angular momentum: 4

  Minimum eigenvalue in the overlap matrix is 1.2906996168E-07.
  Using Symmetric Orthogonalization.

  SCF Guess: Superposition of Atomic Densities via on-the-fly atomic UHF.

  ==> Iterations <==

                           Total Energy        Delta E     RMS |[F,P]|

   @DF-RHF iter SAD: -1571.26574229772996   -1.57127e+03   0.00000e+00 
   @DF-RHF iter   1: -1571.33827557305881   -7.25333e-02   1.21323e-03 DIIS
   @DF-RHF iter   2: -1572.10948900589892   -7.71213e-01   6.34322e-04 DIIS
   @DF-RHF iter   3: -1572.29882969467917   -1.89341e-01   1.64406e-04 DIIS
   @DF-RHF iter   4: -1572.31596903658033   -1.71393e-02   6.49062e-05 DIIS
   @DF-RHF iter   5: -1572.31850836284616   -2.53933e-03   1.31326e-05 DIIS
   @DF-RHF iter   6: -1572.31866028931813   -1.51926e-04   6.03339e-06 DIIS
   @DF-RHF iter   7: -1572.31869591170994   -3.56224e-05   2.01806e-06 DIIS
   @DF-RHF iter   8: -1572.31870171941318   -5.80770e-06   8.03573e-07 DIIS
   @DF-RHF iter   9: -1572.31870268548346   -9.66070e-07   3.29902e-07 DIIS
   @DF-RHF iter  10: -1572.31870288116966   -1.95686e-07   1.47356e-07 DIIS
   @DF-RHF iter  11: -1572.31870292215126   -4.09816e-08   7.04642e-08 DIIS
   @DF-RHF iter  12: -1572.31870293324300   -1.10917e-08   2.88741e-08 DIIS
   @DF-RHF iter  13: -1572.31870293557472   -2.33172e-09   1.22438e-08 DIIS
   @DF-RHF iter  14: -1572.31870293550742    6.73026e-11   5.73441e-09 DIIS
  Energy and wave function converged.


  ==> Post-Iterations <==

    Orbital Energies [Eh]
    ---------------------

    Doubly Occupied:                                                      

       1A    -20.520989     2A    -15.603339     3A    -15.600929  
       4A    -15.585372     5A    -15.577141     6A    -15.572739  
       7A    -15.567518     8A    -15.559174     9A    -11.373631  
      10A    -11.363535    11A    -11.334378    12A    -11.333483  
      13A    -11.333376    14A    -11.313094    15A    -11.308697  
      16A    -11.301316    17A    -11.299366    18A    -11.298986  
      19A    -11.292274    20A    -11.288004    21A    -11.278744  
      22A    -11.278024    23A    -11.272127    24A    -11.263990  
      25A    -11.257976    26A    -11.255207    27A    -11.252265  
      28A    -11.252249    29A    -11.251611    30A    -11.248582  
      31A    -11.246676    32A    -11.244533    33A    -11.243555  
      34A    -11.239356    35A    -11.233576    36A    -11.230327  
      37A    -11.224381    38A     -1.385519    39A     -1.344460  
      40A     -1.276743    41A     -1.250324    42A     -1.249350  
      43A     -1.240961    44A     -1.208772    45A     -1.204808  
      46A     -1.160817    47A     -1.139130    48A     -1.114691  
      49A     -1.074200    50A     -1.059064    51A     -1.047013  
      52A     -1.037188    53A     -1.022083    54A     -1.007227  
      55A     -1.003751    56A     -0.980337    57A     -0.949225  
      58A     -0.931650    59A     -0.925421    60A     -0.899963  
      61A     -0.871484    62A     -0.865579    63A     -0.857016  
      64A     -0.839980    65A     -0.838793    66A     -0.830997  
      67A     -0.825017    68A     -0.806623    69A     -0.778081  
      70A     -0.753537    71A     -0.737649    72A     -0.730386  
      73A     -0.722883    74A     -0.718386    75A     -0.696968  
      76A     -0.681732    77A     -0.670056    78A     -0.665660  
      79A     -0.656062    80A     -0.651837    81A     -0.651275  
      82A     -0.639941    83A     -0.636724    84A     -0.631299  
      85A     -0.626802    86A     -0.621357    87A     -0.618834  
      88A     -0.611568    89A     -0.606529    90A     -0.602437  
      91A     -0.600421    92A     -0.594751    93A     -0.591447  
      94A     -0.591142    95A     -0.583975    96A     -0.582300  
      97A     -0.579130    98A     -0.574331    99A     -0.563346  
     100A     -0.559857   101A     -0.547587   102A     -0.543496  
     103A     -0.541992   104A     -0.529353   105A     -0.524864  
     106A     -0.522484   107A     -0.514027   108A     -0.513470  
     109A     -0.508041   110A     -0.504255   111A     -0.500539  
     112A     -0.492014   113A     -0.483557   114A     -0.479866  
     115A     -0.450860   116A     -0.449809   117A     -0.443433  
     118A     -0.441088   119A     -0.426959   120A     -0.425143  
     121A     -0.413280   122A     -0.410480   123A     -0.398923  
     124A     -0.383643   125A     -0.372671   126A     -0.344930  
     127A     -0.343624   128A     -0.341475   129A     -0.318861  
     130A     -0.313524   131A     -0.289521  

    Virtual:                                                              

     132A      0.027103   133A      0.035392   134A      0.041694  
     135A      0.043474   136A      0.044714   137A      0.046262  
     138A      0.048963   139A      0.055244   140A      0.057858  
     141A      0.061461   142A      0.063119   143A      0.065749  
     144A      0.067520   145A      0.071229   146A      0.073440  
     147A      0.075123   148A      0.076377   149A      0.083226  
     150A      0.083959   151A      0.086401   152A      0.086600  
     153A      0.089414   154A      0.091489   155A      0.093780  
     156A      0.097186   157A      0.100848   158A      0.102249  
     159A      0.106098   160A      0.108956   161A      0.109872  
     162A      0.112841   163A      0.114359   164A      0.116306  
     165A      0.117711   166A      0.119680   167A      0.125272  
     168A      0.127935   169A      0.130226   170A      0.132106  
     171A      0.136213   172A      0.142112   173A      0.142405  
     174A      0.143928   175A      0.146594   176A      0.149791  
     177A      0.152650   178A      0.153048   179A      0.154681  
     180A      0.156100   181A      0.157932   182A      0.159501  
     183A      0.162159   184A      0.164430   185A      0.165613  
     186A      0.167819   187A      0.170447   188A      0.174925  
     189A      0.175823   190A      0.177472   191A      0.178786  
     192A      0.180430   193A      0.181197   194A      0.185441  
     195A      0.185540   196A      0.186700   197A      0.188843  
     198A      0.190032   199A      0.192447   200A      0.195618  
     201A      0.196454   202A      0.198261   203A      0.200132  
     204A      0.201428   205A      0.201680   206A      0.203271  
     207A      0.204205   208A      0.206303   209A      0.209004  
     210A      0.210488   211A      0.212360   212A      0.213983  
     213A      0.218336   214A      0.219719   215A      0.219891  
     216A      0.222086   217A      0.225618   218A      0.227544  
     219A      0.227803   220A      0.229731   221A      0.231151  
     222A      0.233470   223A      0.234684   224A      0.238430  
     225A      0.240443   226A      0.242126   227A      0.244489  
     228A      0.245509   229A      0.248094   230A      0.251402  
     231A      0.252938   232A      0.255197   233A      0.256346  
     234A      0.257410   235A      0.261000   236A      0.264710  
     237A      0.264873   238A      0.267220   239A      0.269997  
     240A      0.271601   241A      0.272818   242A      0.275104  
     243A      0.277275   244A      0.280918   245A      0.281598  
     246A      0.286910   247A      0.289134   248A      0.291962  
     249A      0.293109   250A      0.297021   251A      0.300840  
     252A      0.301851   253A      0.303914   254A      0.305116  
     255A      0.306671   256A      0.310908   257A      0.312283  
     258A      0.315765   259A      0.317877   260A      0.318715  
     261A      0.322253   262A      0.326804   263A      0.327610  
     264A      0.329479   265A      0.331088   266A      0.332208  
     267A      0.334551   268A      0.336802   269A      0.339666  
     270A      0.341255   271A      0.344798   272A      0.345188  
     273A      0.346565   274A      0.350061   275A      0.350385  
     276A      0.352742   277A      0.357529   278A      0.358720  
     279A      0.360184   280A      0.361956   281A      0.362467  
     282A      0.366368   283A      0.367613   284A      0.368852  
     285A      0.370755   286A      0.373027   287A      0.375652  
     288A      0.375919   289A      0.379067   290A      0.380869  
     291A      0.381327   292A      0.383228   293A      0.383799  
     294A      0.386276   295A      0.387895   296A      0.390841  
     297A      0.391313   298A      0.393482   299A      0.395361  
     300A      0.398171   301A      0.398900   302A      0.401354  
     303A      0.404341   304A      0.406193   305A      0.407175  
     306A      0.408937   307A      0.409382   308A      0.411300  
     309A      0.412538   310A      0.413558   311A      0.416190  
     312A      0.418300   313A      0.421054   314A      0.423479  
     315A      0.425332   316A      0.428245   317A      0.428661  
     318A      0.431703   319A      0.433313   320A      0.434247  
     321A      0.435613   322A      0.437187   323A      0.438409  
     324A      0.440819   325A      0.444529   326A      0.446305  
     327A      0.448465   328A      0.451021   329A      0.451330  
     330A      0.454141   331A      0.455291   332A      0.460002  
     333A      0.460677   334A      0.462800   335A      0.463411  
     336A      0.464757   337A      0.467021   338A      0.472434  
     339A      0.474561   340A      0.476965   341A      0.477640  
     342A      0.480610   343A      0.484158   344A      0.486233  
     345A      0.489588   346A      0.490279   347A      0.495514  
     348A      0.500373   349A      0.506118   350A      0.506866  
     351A      0.508820   352A      0.513355   353A      0.514315  
     354A      0.516151   355A      0.516500   356A      0.517729  
     357A      0.521688   358A      0.524619   359A      0.527175  
     360A      0.532715   361A      0.535529   362A      0.538221  
     363A      0.538694   364A      0.542296   365A      0.545663  
     366A      0.548928   367A      0.556865   368A      0.561161  
     369A      0.563105   370A      0.568859   371A      0.571920  
     372A      0.575866   373A      0.582177   374A      0.584729  
     375A      0.589598   376A      0.597719   377A      0.605740  
     378A      0.607142   379A      0.613018   380A      0.615962  
     381A      0.620649   382A      0.624991   383A      0.630731  
     384A      0.632242   385A      0.635920   386A      0.642140  
     387A      0.651520   388A      0.660197   389A      0.665727  
     390A      0.679196   391A      0.688395   392A      0.690246  
     393A      0.701303   394A      0.709514   395A      0.712896  
     396A      0.715764   397A      0.719901   398A      0.726009  
     399A      0.731725   400A      0.733706   401A      0.740092  
     402A      0.746583   403A      0.749549   404A      0.754540  
     405A      0.756355   406A      0.763260   407A      0.766201  
     408A      0.767948   409A      0.770366   410A      0.774771  
     411A      0.776765   412A      0.778865   413A      0.785972  
     414A      0.793473   415A      0.794286   416A      0.799100  
     417A      0.803030   418A      0.809648   419A      0.812486  
     420A      0.815983   421A      0.818554   422A      0.821090  
     423A      0.825255   424A      0.829614   425A      0.831825  
     426A      0.833089   427A      0.835282   428A      0.838201  
     429A      0.840131   430A      0.843354   431A      0.849857  
     432A      0.851967   433A      0.858176   434A      0.860289  
     435A      0.865253   436A      0.868468   437A      0.870291  
     438A      0.874678   439A      0.876497   440A      0.879008  
     441A      0.882083   442A      0.884117   443A      0.887522  
     444A      0.890297   445A      0.896862   446A      0.900599  
     447A      0.906479   448A      0.907369   449A      0.909681  
     450A      0.916251   451A      0.917705   452A      0.920468  
     453A      0.922818   454A      0.926754   455A      0.928919  
     456A      0.933527   457A      0.935278   458A      0.938182  
     459A      0.939817   460A      0.943046   461A      0.945050  
     462A      0.949675   463A      0.952276   464A      0.956276  
     465A      0.957927   466A      0.964790   467A      0.967975  
     468A      0.968441   469A      0.970758   470A      0.975279  
     471A      0.979448   472A      0.982502   473A      0.984971  
     474A      0.988878   475A      0.996489   476A      0.996817  
     477A      1.002273   478A      1.003739   479A      1.010501  
     480A      1.018376   481A      1.020150   482A      1.023279  
     483A      1.026749   484A      1.034394   485A      1.037023  
     486A      1.037263   487A      1.043032   488A      1.048671  
     489A      1.052447   490A      1.054006   491A      1.059923  
     492A      1.066517   493A      1.072217   494A      1.072337  
     495A      1.076074   496A      1.079550   497A      1.085045  
     498A      1.090163   499A      1.096529   500A      1.100140  
     501A      1.106625   502A      1.112001   503A      1.112919  
     504A      1.116164   505A      1.121714   506A      1.123589  
     507A      1.133090   508A      1.135180   509A      1.138277  
     510A      1.140455   511A      1.145878   512A      1.148752  
     513A      1.152897   514A      1.158556   515A      1.161845  
     516A      1.168163   517A      1.171005   518A      1.172955  
     519A      1.175082   520A      1.183383   521A      1.186368  
     522A      1.188217   523A      1.191810   524A      1.194243  
     525A      1.199155   526A      1.203692   527A      1.207787  
     528A      1.214173   529A      1.221517   530A      1.223856  
     531A      1.227079   532A      1.229679   533A      1.233420  
     534A      1.239162   535A      1.243592   536A      1.247760  
     537A      1.252073   538A      1.253837   539A      1.259632  
     540A      1.260760   541A      1.262774   542A      1.267046  
     543A      1.273423   544A      1.278723   545A      1.282844  
     546A      1.284334   547A      1.288981   548A      1.292491  
     549A      1.297972   550A      1.302240   551A      1.308111  
     552A      1.310322   553A      1.312969   554A      1.322246  
     555A      1.328286   556A      1.339426   557A      1.341552  
     558A      1.346713   559A      1.350131   560A      1.358534  
     561A      1.360513   562A      1.367495   563A      1.377299  
     564A      1.382188   565A      1.387855   566A      1.393250  
     567A      1.396966   568A      1.409586   569A      1.419853  
     570A      1.425364   571A      1.428909   572A      1.432860  
     573A      1.442853   574A      1.451897   575A      1.454972  
     576A      1.461871   577A      1.464796   578A      1.468651  
     579A      1.473912   580A      1.476219   581A      1.490612  
     582A      1.497428   583A      1.504853   584A      1.517092  
     585A      1.523699   586A      1.530532   587A      1.534538  
     588A      1.545766   589A      1.551741   590A      1.557261  
     591A      1.568144   592A      1.574802   593A      1.583787  
     594A      1.599267   595A      1.601942   596A      1.611843  
     597A      1.618532   598A      1.623133   599A      1.634912  
     600A      1.641336   601A      1.651510   602A      1.666163  
     603A      1.684429   604A      1.692239   605A      1.695901  
     606A      1.697914   607A      1.710834   608A      1.716081  
     609A      1.724179   610A      1.730493   611A      1.744011  
     612A      1.747312   613A      1.752963   614A      1.754316  
     615A      1.760974   616A      1.767395   617A      1.775297  
     618A      1.781879   619A      1.783740   620A      1.791701  
     621A      1.798417   622A      1.800740   623A      1.807711  
     624A      1.808106   625A      1.812071   626A      1.813923  
     627A      1.815843   628A      1.818856   629A      1.822369  
     630A      1.828503   631A      1.830254   632A      1.836188  
     633A      1.841292   634A      1.845436   635A      1.852317  
     636A      1.855164   637A      1.857163   638A      1.858915  
     639A      1.861364   640A      1.865899   641A      1.868821  
     642A      1.871512   643A      1.876554   644A      1.877503  
     645A      1.884592   646A      1.890419   647A      1.899360  
     648A      1.904270   649A      1.912804   650A      1.923842  
     651A      1.926193   652A      1.927085   653A      1.935043  
     654A      1.935916   655A      1.940964   656A      1.944684  
     657A      1.948581   658A      1.956579   659A      1.960169  
     660A      1.963926   661A      1.967420   662A      1.973086  
     663A      1.979247   664A      1.983547   665A      1.987433  
     666A      1.999397   667A      2.001021   668A      2.002012  
     669A      2.007055   670A      2.008931   671A      2.013566  
     672A      2.019749   673A      2.024360   674A      2.030975  
     675A      2.032442   676A      2.044766   677A      2.047364  
     678A      2.047788   679A      2.052944   680A      2.061286  
     681A      2.073320   682A      2.075779   683A      2.080400  
     684A      2.081851   685A      2.089030   686A      2.094138  
     687A      2.098079   688A      2.099327   689A      2.105042  
     690A      2.109703   691A      2.117437   692A      2.118929  
     693A      2.130508   694A      2.135717   695A      2.141803  
     696A      2.146640   697A      2.149682   698A      2.154547  
     699A      2.163216   700A      2.175724   701A      2.177090  
     702A      2.187605   703A      2.191222   704A      2.195529  
     705A      2.199011   706A      2.202003   707A      2.205454  
     708A      2.222475   709A      2.226753   710A      2.235953  
     711A      2.238743   712A      2.244056   713A      2.252203  
     714A      2.255640   715A      2.256107   716A      2.261523  
     717A      2.262963   718A      2.270092   719A      2.274015  
     720A      2.280569   721A      2.281275   722A      2.286706  
     723A      2.299469   724A      2.305627   725A      2.310893  
     726A      2.314996   727A      2.320251   728A      2.324512  
     729A      2.335635   730A      2.339526   731A      2.346981  
     732A      2.357624   733A      2.364913   734A      2.369850  
     735A      2.373132   736A      2.379607   737A      2.384878  
     738A      2.393869   739A      2.395722   740A      2.403612  
     741A      2.408453   742A      2.409700   743A      2.421527  
     744A      2.428968   745A      2.431140   746A      2.432843  
     747A      2.437170   748A      2.449869   749A      2.450898  
     750A      2.465013   751A      2.479232   752A      2.486426  
     753A      2.492155   754A      2.499451   755A      2.505222  
     756A      2.513573   757A      2.528248   758A      2.532124  
     759A      2.546704   760A      2.550129   761A      2.554913  
     762A      2.561888   763A      2.578304   764A      2.583405  
     765A      2.585646   766A      2.597885   767A      2.606210  
     768A      2.622208   769A      2.647961   770A      2.654009  
     771A      2.659073   772A      2.661675   773A      2.669488  
     774A      2.681744   775A      2.687949   776A      2.699064  
     777A      2.709593   778A      2.716272   779A      2.727500  
     780A      2.740037   781A      2.745939   782A      2.748556  
     783A      2.765028   784A      2.782669   785A      2.785951  
     786A      2.794253   787A      2.799753   788A      2.808362  
     789A      2.813552   790A      2.816779   791A      2.823312  
     792A      2.833839   793A      2.838383   794A      2.855133  
     795A      2.858608   796A      2.863530   797A      2.867300  
     798A      2.873919   799A      2.880653   800A      2.889062  
     801A      2.898929   802A      2.903287   803A      2.911785  
     804A      2.929135   805A      2.930332   806A      2.932641  
     807A      2.940074   808A      2.949054   809A      2.954507  
     810A      2.961910   811A      2.966315   812A      2.972392  
     813A      2.975595   814A      2.983782   815A      2.986250  
     816A      2.996934   817A      3.003517   818A      3.012761  
     819A      3.018003   820A      3.019135   821A      3.029960  
     822A      3.041364   823A      3.044888   824A      3.053464  
     825A      3.057482   826A      3.061020   827A      3.063343  
     828A      3.069487   829A      3.071049   830A      3.075323  
     831A      3.084755   832A      3.093321   833A      3.099968  
     834A      3.105131   835A      3.112028   836A      3.114552  
     837A      3.116613   838A      3.117101   839A      3.120734  
     840A      3.124839   841A      3.132242   842A      3.139225  
     843A      3.147351   844A      3.151915   845A      3.158382  
     846A      3.168851   847A      3.173674   848A      3.178354  
     849A      3.181282   850A      3.190684   851A      3.197714  
     852A      3.200327   853A      3.205598   854A      3.213370  
     855A      3.222081   856A      3.224804   857A      3.233545  
     858A      3.241052   859A      3.249531   860A      3.260945  
     861A      3.266931   862A      3.271794   863A      3.279534  
     864A      3.281806   865A      3.288322   866A      3.292583  
     867A      3.297850   868A      3.299603   869A      3.304023  
     870A      3.309907   871A      3.326677   872A      3.328345  
     873A      3.332609   874A      3.334852   875A      3.339407  
     876A      3.343105   877A      3.352702   878A      3.353486  
     879A      3.358851   880A      3.365895   881A      3.369601  
     882A      3.373587   883A      3.382869   884A      3.388297  
     885A      3.399640   886A      3.401140   887A      3.404515  
     888A      3.412623   889A      3.420241   890A      3.437811  
     891A      3.449473   892A      3.461779   893A      3.468113  
     894A      3.508070   895A      3.519090   896A      3.544140  
     897A      3.570049   898A      3.590632   899A      3.599788  
     900A      3.609851   901A      3.617289   902A      3.634436  
     903A      3.653530   904A      3.658189   905A      3.663218  
     906A      3.673859   907A      3.677917   908A      3.690256  
     909A      3.720423   910A      3.766809   911A      3.775668  
     912A      3.782864   913A      3.787030   914A      3.801452  
     915A      3.810431   916A      3.818706   917A      3.833635  
     918A      3.860091   919A      3.868328   920A      3.877556  
     921A      3.891957   922A      3.904951   923A      3.924420  
     924A      3.927301   925A      3.939723   926A      3.948076  
     927A      3.954452   928A      3.960607   929A      3.975517  
     930A      3.980079   931A      4.008623   932A      4.025760  
     933A      4.053628   934A      4.068338   935A      4.081578  
     936A      4.091269   937A      4.103278   938A      4.122732  
     939A      4.128536   940A      4.131919   941A      4.149259  
     942A      4.162295   943A      4.179016   944A      4.189368  
     945A      4.192161   946A      4.200798   947A      4.211435  
     948A      4.218103   949A      4.262951   950A      4.346564  
     951A      4.358636   952A      4.363629   953A      4.383838  
     954A      4.401820   955A      4.414487   956A      4.421924  
     957A      4.428428   958A      4.432416   959A      4.441037  
     960A      4.454703   961A      4.459388   962A      4.468640  
     963A      4.521080   964A      4.547003   965A      4.553122  
     966A      4.574030   967A      4.585317   968A      4.608943  
     969A      4.626044   970A      4.671563   971A      4.723496  
     972A      4.771481   973A      4.775829   974A      4.789615  
     975A      4.911561   976A      4.941683   977A      5.005643  
     978A      5.045382   979A      5.206864   980A      5.249605  
     981A      5.267814   982A      5.275374   983A      5.293403  
     984A      5.332872   985A      5.353880   986A      5.398628  
     987A      5.418275   988A      5.605645   989A      5.689171  
     990A      5.699000   991A      5.800052   992A      5.854896  
     993A      5.867592   994A      6.392966   995A     24.745335  
     996A     24.779657   997A     24.795230   998A     24.820167  
     999A     24.843915  1000A     24.913238  1001A     24.940995  
    1002A     25.015827  1003A     25.020825  1004A     25.042230  
    1005A     25.072424  1006A     25.073638  1007A     25.088573  
    1008A     25.093246  1009A     25.101419  1010A     25.120136  
    1011A     25.122593  1012A     25.133651  1013A     25.138306  
    1014A     25.139721  1015A     25.174401  1016A     25.204732  
    1017A     25.206590  1018A     25.236111  1019A     25.248526  
    1020A     25.248936  1021A     25.253906  1022A     25.324002  
    1023A     25.328642  1024A     36.940813  1025A     36.983188  
    1026A     37.022749  1027A     37.069829  1028A     37.075950  
    1029A     37.137464  1030A     37.155014  1031A     51.761231  

    Final Occupation by Irrep:
              A 
    DOCC [   131 ]

  @DF-RHF Final Energy: -1572.31870293550742

   => Energetics <=

    Nuclear Repulsion Energy =           3784.7200685147554395
    One-Electron Energy =               -9667.5711979810057528
    Two-Electron Energy =                4310.5324265307426685
    Total Energy =                      -1572.3187029355076447

Computation Completed


Properties will be evaluated at   0.000000,   0.000000,   0.000000 [a0]

Properties computed using the SCF density matrix

  Nuclear Dipole Moment: [e a0]
     X:   -32.8902      Y:     9.0401      Z:     6.3507

  Electronic Dipole Moment: [e a0]
     X:    33.0402      Y:    -6.3112      Z:    -5.8706

  Dipole Moment: [e a0]
     X:     0.1500      Y:     2.7289      Z:     0.4802     Total:     2.7749

  Dipole Moment: [D]
     X:     0.3813      Y:     6.9362      Z:     1.2205     Total:     7.0531


*** tstop() called on node84.bme.utexas.edu at Tue Apr 14 13:06:53 2020
Module time:
	user time   =    4030.98 seconds =      67.18 minutes
	system time =     136.25 seconds =       2.27 minutes
	total time  =       1334 seconds =      22.23 minutes
Total time:
	user time   =    4030.98 seconds =      67.18 minutes
	system time =     136.25 seconds =       2.27 minutes
	total time  =       1334 seconds =      22.23 minutes

*** tstart() called on node84.bme.utexas.edu
*** at Tue Apr 14 13:06:53 2020


  //>>>>>>>>>>>>>>>>>>>>>>>>>>>>>>>>>>>//
  //               DFMP2               //
  //<<<<<<<<<<<<<<<<<<<<<<<<<<<<<<<<<<<//

   => Loading Basis Set <=

    Name: (6-311++G** AUX)
    Role: RIFIT
    Keyword: DF_BASIS_MP2
    atoms 1-4, 6-9, 11, 14-19, 21-28, 30-31, 33-35, 37 entry C          line   148 file /home/bdw2292/miniconda3/envs/p4env/share/psi4/basis/aug-cc-pvtz-ri.gbs 
    atoms 5, 10, 12-13, 20, 29, 32                     entry N          line   206 file /home/bdw2292/miniconda3/envs/p4env/share/psi4/basis/aug-cc-pvtz-ri.gbs 
    atoms 36                                           entry O          line   264 file /home/bdw2292/miniconda3/envs/p4env/share/psi4/basis/aug-cc-pvtz-ri.gbs 
    atoms 38-68                                        entry H          line    30 file /home/bdw2292/miniconda3/envs/p4env/share/psi4/basis/aug-cc-pvtz-ri.gbs 

	 --------------------------------------------------------
	                          DF-MP2                         
	      2nd-Order Density-Fitted Moller-Plesset Theory     
	              RMP2 Wavefunction,   6 Threads             
	                                                         
	        Rob Parrish, Justin Turney, Andy Simmonett,      
	           Ed Hohenstein, and C. David Sherrill          
	 --------------------------------------------------------

   => Auxiliary Basis Set <=

  Basis Set: (6-311++G** AUX)
    Blend: AUG-CC-PVTZ-RI
    Number of shells: 1470
    Number of basis function: 5348
    Number of Cartesian functions: 6737
    Spherical Harmonics?: true
    Max angular momentum: 4

	 --------------------------------------------------------
	                 NBF =  1031, NAUX =  5348
	 --------------------------------------------------------
	   CLASS    FOCC     OCC    AOCC    AVIR     VIR    FVIR
	   PAIRS      37     131      94     900     900       0
	 --------------------------------------------------------

	-----------------------------------------------------------
	 ==================> DF-MP2 Energies <==================== 
	-----------------------------------------------------------
	 Reference Energy          =   -1572.3187029355074174 [Eh]
	 Singles Energy            =      -0.0000000000000000 [Eh]
	 Same-Spin Energy          =      -1.4717290840938850 [Eh]
	 Opposite-Spin Energy      =      -4.0498038714454347 [Eh]
	 Correlation Energy        =      -5.5215329555393193 [Eh]
	 Total Energy              =   -1577.8402358910466319 [Eh]
	-----------------------------------------------------------
	 ================> DF-SCS-MP2 Energies <================== 
	-----------------------------------------------------------
	 SCS Same-Spin Scale       =       0.3333333333333333 [-]
	 SCS Opposite-Spin Scale   =       1.2000000000000000 [-]
	 SCS Same-Spin Energy      =      -0.4905763613646283 [Eh]
	 SCS Opposite-Spin Energy  =      -4.8597646457345212 [Eh]
	 SCS Correlation Energy    =      -5.3503410070991499 [Eh]
	 SCS Total Energy          =   -1577.6690439426065495 [Eh]
	-----------------------------------------------------------


*** tstop() called on node84.bme.utexas.edu at Tue Apr 14 13:14:48 2020
Module time:
	user time   =    2645.90 seconds =      44.10 minutes
	system time =      18.44 seconds =       0.31 minutes
	total time  =        475 seconds =       7.92 minutes
Total time:
	user time   =    6676.90 seconds =     111.28 minutes
	system time =     154.70 seconds =       2.58 minutes
	total time  =       1809 seconds =      30.15 minutes


Properties will be evaluated at   0.000000,   0.000000,   0.000000 [a0]
OEProp: No title given, name of density matrix used for the following properties is 'SCF density'


  Wiberg Bond Indices using Orthogonal Lowdin Orbitals:

  Irrep: 1 Size: 68 x 68

                 1                   2                   3                   4                   5

    1     0.00000000000000     1.46431219749446     0.12551405674081     0.14056140562892     0.12388803551795
    2     1.46431219749446     0.00000000000000     1.40053931823222     0.12839094683618     0.12136784755536
    3     0.12551405674081     1.40053931823222     0.00000000000000     1.36067878801190     0.11877999041068
    4     0.14056140562892     0.12839094683618     1.36067878801190     0.00000000000000     1.66045216260686
    5     0.12388803551795     0.12136784755536     0.11877999041068     1.66045216260686     0.00000000000000
    6     1.46171533048154     0.13885709016704     0.13529033356767     0.15384196979266     1.62448258769277
    7     0.01462143135585     0.10299090424254     1.02069234160196     0.10435120913131     0.01392047847722
    8     0.00356228080406     0.04143826180488     0.09825296789718     0.02378608118133     0.00220329246962
    9     0.00036978877178     0.00468977760334     0.01475726857075     0.00410566286025     0.00067388814983
   10     0.00041463558240     0.00535443652848     0.00581052890593     0.00599669142682     0.00033026714355
   11     0.00086064776819     0.00332756162915     0.01799732490093     0.00685006860614     0.00043199149360
   12     0.00280747321454     0.02195444916025     0.11929842908993     0.06168692045216     0.00406248670401
   13     0.00015972180339     0.00047111886954     0.00162970553527     0.00092410562717     0.00008451516287
   14     0.00003105564925     0.00009367231973     0.00057821230220     0.00131505858493     0.00011020810936
   15     0.00000992818654     0.00002342335012     0.00006784141078     0.00014299622461     0.00001545001028
   16     0.00000210256610     0.00000620066245     0.00004143996404     0.00027550573882     0.00001259933094
   17     0.00001225150340     0.00001881739203     0.00005456562327     0.00026776225211     0.00004010106061
   18     0.00002797346206     0.00005297078302     0.00029519843448     0.00181025939162     0.00022205755902
   19     0.00017639673709     0.00024191697615     0.00205710811032     0.01034959704534     0.00061248563793
   20     0.00006246200793     0.00006602563501     0.00030160564053     0.00281366059269     0.00057440360843
   21     0.00001221780900     0.00001208983824     0.00005010843092     0.00036370468437     0.00017346412689
   22     0.00005154723710     0.00003304779378     0.00004258749466     0.00058919326372     0.00130775167811
   23     0.00046765911795     0.00027246055460     0.00035196665103     0.00603339806493     0.01933607293101
   24     0.00019653572696     0.00015171932553     0.00022494789306     0.00130738130444     0.01045427185960
   25     0.00001695674831     0.00001075860317     0.00001650714381     0.00011068206321     0.00049380682987
   26     0.00000744989937     0.00000534176711     0.00001448799529     0.00020997471080     0.00046495220196
   27     0.00000724627089     0.00000439243367     0.00001299518423     0.00016125111913     0.00044763980595
   28     0.00000904552995     0.00000226256228     0.00000325848574     0.00001826709039     0.00004754513387
   29     0.00007353368787     0.00000631962957     0.00000780719659     0.00001409543970     0.00007596620312
   30     0.00024413869913     0.00004058501749     0.00004540413675     0.00010061345598     0.00062021267825
   31     0.00227915495487     0.00036589973312     0.00079650238372     0.00078331239410     0.00607253306535
   32     0.00047651588265     0.00012634181497     0.00029005478225     0.00015960399115     0.00062068141689
   33     0.00020841140698     0.00003429754705     0.00011525837733     0.00008243652917     0.00011315514276
   34     0.00006645803363     0.00006602337500     0.00007445849487     0.00007382759214     0.00040284531319
   35     0.00004468344406     0.00000726790270     0.00000606151476     0.00002469856657     0.00004961942795
   36     0.00000190650179     0.00000247920521     0.00001225593552     0.00010449608207     0.00003485620427
   37     0.00000227162734     0.00000727034022     0.00003308489076     0.00003398695429     0.00000280471811
   38     0.88551562160869     0.07929336889204     0.01182057416374     0.00639994503616     0.01071713929408
   39     0.07745254800826     0.87041323309649     0.07294686943590     0.01175821099355     0.00395779525325
   40     0.00568217077656     0.01052139987166     0.06908759366205     0.85038844079804     0.08693620803583
   41     0.07655908499965     0.01150822638394     0.00595133369751     0.01564977080908     0.08812070413946
   42     0.00105688941977     0.01392645214988     0.01431860990305     0.00137727233762     0.00029345436568
   43     0.00004433352239     0.00027577127261     0.00143114853023     0.00031686110108     0.00007719268037
   44     0.00002429829664     0.00008198014259     0.00034964685905     0.00009097233729     0.00000777603260
   45     0.00000033848858     0.00000107949736     0.00000700998695     0.00001844876829     0.00000161656155
   46     0.00000092724363     0.00000162229269     0.00000679762898     0.00002365506386     0.00000731519035
   47     0.00013489853437     0.00019779783960     0.00200509356459     0.00750260833831     0.00053200569736
   48     0.00012147187714     0.00006838852531     0.00018966886849     0.00217513217077     0.00063146279516
   49     0.00029521295261     0.00012664559234     0.00023534716520     0.00446662349641     0.01050911122588
   50     0.00006976974311     0.00004694983180     0.00009717195777     0.00030312260526     0.00297747475729
   51     0.00000072603396     0.00000034604007     0.00000119642305     0.00001475383551     0.00002605358796
   52     0.00000106269899     0.00000051886826     0.00000111257274     0.00000921764304     0.00003287824340
   53     0.00000073528886     0.00000049201175     0.00000057989178     0.00000233878142     0.00001105274137
   54     0.00000382861229     0.00000019058622     0.00000035135503     0.00000548053857     0.00000409110968
   55     0.00001982112702     0.00000623068483     0.00000532029354     0.00001021265533     0.00010795461279
   56     0.00003196847631     0.00000515751968     0.00000663204148     0.00006038831214     0.00031452675161
   57     0.00102342733756     0.00008494879615     0.00013874887280     0.00017744587804     0.00071781588516
   58     0.00055068771029     0.00019952140555     0.00024198538055     0.00044142416827     0.00403267051412
   59     0.00001819491068     0.00000389587821     0.00000475789105     0.00001282842372     0.00001935140683
   60     0.00009213845140     0.00001551410085     0.00003510077531     0.00002936458426     0.00002382350567
   61     0.00002578486081     0.00000560279366     0.00000708364339     0.00000546550329     0.00000502017353
   62     0.00000413720561     0.00000381843745     0.00000466570765     0.00001029109718     0.00001635173381
   63     0.00002610126816     0.00003902184064     0.00002342255455     0.00006448526435     0.00038437764333
   64     0.00002057618469     0.00000172062202     0.00000186798420     0.00001059271600     0.00001043718933
   65     0.00000237680322     0.00000046258598     0.00000063002343     0.00000084142441     0.00000606983699
   66     0.00000073416269     0.00000198879843     0.00001217654297     0.00000855801783     0.00000058083119
   67     0.00000100618884     0.00000257126554     0.00000938083180     0.00000807523148     0.00000073026624
   68     0.00000024865890     0.00000066670117     0.00000375301004     0.00000773882994     0.00000042659843

                 6                   7                   8                   9                  10

    1     1.46171533048154     0.01462143135585     0.00356228080406     0.00036978877178     0.00041463558240
    2     0.13885709016704     0.10299090424254     0.04143826180488     0.00468977760334     0.00535443652848
    3     0.13529033356767     1.02069234160196     0.09825296789718     0.01475726857075     0.00581052890593
    4     0.15384196979266     0.10435120913131     0.02378608118133     0.00410566286025     0.00599669142682
    5     1.62448258769277     0.01392047847722     0.00220329246962     0.00067388814983     0.00033026714355
    6     0.00000000000000     0.00984135020382     0.00675526264106     0.00120535691957     0.00329840552861
    7     0.00984135020382     0.00000000000000     1.38698278814804     0.14637514015875     0.11203078989751
    8     0.00675526264106     1.38698278814804     0.00000000000000     1.43284431108723     0.13051601315101
    9     0.00120535691957     0.14637514015875     1.43284431108723     0.00000000000000     1.66093355258060
   10     0.00329840552861     0.11203078989751     0.13051601315101     1.66093355258060     0.00000000000000
   11     0.00084199514778     0.14185546352736     0.11329530139413     0.15264598496580     1.50827870422467
   12     0.00600397829306     1.53188531362817     0.12673151026134     0.11111676698655     0.11017243928780
   13     0.00007497119163     0.01936749012579     0.02056630135167     0.02417873942737     0.15991910281803
   14     0.00004308981490     0.00292731189676     0.00249385360705     0.00326597971989     0.01690915197430
   15     0.00000526258568     0.00050603400970     0.00145869556092     0.00093401086689     0.00314642287394
   16     0.00000429806910     0.00016309573846     0.00019547426424     0.00016213445327     0.00047694656862
   17     0.00000802413377     0.00025286179279     0.00131415285107     0.00044114223928     0.00128325055007
   18     0.00004496891956     0.00056160738193     0.00026466296696     0.00014177356745     0.00041099321730
   19     0.00019397752358     0.00579816704966     0.00314043386379     0.00153223798625     0.00431730609114
   20     0.00006872117808     0.00012905992184     0.00002854493971     0.00001765390507     0.00005713378854
   21     0.00001931828931     0.00002110338482     0.00000839164119     0.00000466956271     0.00001580163410
   22     0.00013204076067     0.00000740124910     0.00000281671069     0.00000119179412     0.00000323661125
   23     0.00174757074525     0.00005890446767     0.00001273604738     0.00000350217743     0.00000320220938
   24     0.00165594422343     0.00002731440036     0.00001179905374     0.00000197558236     0.00000104641249
   25     0.00016082637854     0.00000282426116     0.00000168638875     0.00000032085886     0.00000053255723
   26     0.00009932745071     0.00000170752643     0.00000051626447     0.00000013760624     0.00000020989287
   27     0.00008068288567     0.00000255811438     0.00000095169759     0.00000035309122     0.00000084749111
   28     0.00005255421013     0.00000084092588     0.00000020920351     0.00000006083372     0.00000012188134
   29     0.00026012636431     0.00000137253294     0.00000071102495     0.00000017356200     0.00000023949341
   30     0.00145087052555     0.00000511720711     0.00000381423183     0.00000076555297     0.00000149683483
   31     0.01729438702542     0.00004794232115     0.00006877657010     0.00001168041576     0.00002791976561
   32     0.00245371086589     0.00001369856099     0.00001871787524     0.00000274144264     0.00000929861767
   33     0.00049487889995     0.00000541144943     0.00000624760489     0.00000095864785     0.00000293009161
   34     0.00045355203063     0.00000730714537     0.00000260141496     0.00000080106009     0.00000092833824
   35     0.00012586295591     0.00000064301013     0.00000028720049     0.00000007084678     0.00000009506187
   36     0.00000632231183     0.00001008726539     0.00000790533763     0.00000391382207     0.00001068982046
   37     0.00000188381568     0.00014493871850     0.00013695671873     0.00013458345932     0.00072919953170
   38     0.08262523214118     0.00129518662730     0.00025030623348     0.00003953042485     0.00002593539386
   39     0.01170263956338     0.01618668253602     0.01464152005106     0.00113581750464     0.00039617434017
   40     0.01483845355389     0.01576494736371     0.00169207993723     0.00040518334412     0.00058632576020
   41     0.87075349718916     0.00052750089663     0.00026579280151     0.00005166217460     0.00010461229862
   42     0.00047584798925     0.07530719245231     0.87657773295900     0.08081588289444     0.01046965517990
   43     0.00004329913332     0.01168575168640     0.07504609406773     0.87553554537563     0.09026535817209
   44     0.00001164719164     0.00207452984386     0.00202643016011     0.00367389828270     0.03145465307924
   45     0.00000044032235     0.00001863966122     0.00000770795413     0.00002309412758     0.00005176435760
   46     0.00000112999734     0.00002335085073     0.00004240263065     0.00001654812358     0.00005255068199
   47     0.00018537271493     0.00419586053184     0.00092454402999     0.00043710907283     0.00075060272868
   48     0.00008012144814     0.00008275569086     0.00002800682739     0.00000991439546     0.00002027989086
   49     0.00103787434842     0.00004493668163     0.00001001829927     0.00000291570323     0.00000242675417
   50     0.00094484377986     0.00001045452896     0.00000405861642     0.00000068153162     0.00000028591236
   51     0.00000556546093     0.00000010512378     0.00000005206538     0.00000001320070     0.00000002869915
   52     0.00000723705679     0.00000041863220     0.00000012110164     0.00000005793674     0.00000014701079
   53     0.00000612144594     0.00000009597258     0.00000003818866     0.00000000592919     0.00000001549683
   54     0.00001380443764     0.00000006093776     0.00000004184701     0.00000000841573     0.00000001340251
   55     0.00010736556150     0.00000104431027     0.00000032591877     0.00000004215364     0.00000011295498
   56     0.00026920247183     0.00000075263504     0.00000035303963     0.00000011458964     0.00000017171666
   57     0.00766787134693     0.00001340585166     0.00000818527618     0.00000134183369     0.00000372056141
   58     0.00595012679262     0.00001787318143     0.00001818618191     0.00000290445362     0.00000875758536
   59     0.00004966150423     0.00000029488302     0.00000020804793     0.00000004492761     0.00000005279789
   60     0.00015956035179     0.00000161913242     0.00000188469977     0.00000029260079     0.00000084664102
   61     0.00003681892563     0.00000041218785     0.00000022967518     0.00000002938199     0.00000008695381
   62     0.00003316853624     0.00000051772406     0.00000011908459     0.00000003561325     0.00000003840010
   63     0.00010584507335     0.00000394175163     0.00000062542823     0.00000025236861     0.00000012687198
   64     0.00005973836165     0.00000017202746     0.00000018100787     0.00000002277484     0.00000003853039
   65     0.00000999708357     0.00000016178252     0.00000003341013     0.00000000666945     0.00000001064157
   66     0.00000036767791     0.00004641750497     0.00007799030508     0.00004410443663     0.00027017852147
   67     0.00000118937489     0.00004206037800     0.00010230779824     0.00003837133462     0.00027316324233
   68     0.00000016097850     0.00001448932468     0.00000484092567     0.00000418882830     0.00003074058642

                11                  12                  13                  14                  15

    1     0.00086064776819     0.00280747321454     0.00015972180339     0.00003105564925     0.00000992818654
    2     0.00332756162915     0.02195444916025     0.00047111886954     0.00009367231973     0.00002342335012
    3     0.01799732490093     0.11929842908993     0.00162970553527     0.00057821230220     0.00006784141078
    4     0.00685006860614     0.06168692045216     0.00092410562717     0.00131505858493     0.00014299622461
    5     0.00043199149360     0.00406248670401     0.00008451516287     0.00011020810936     0.00001545001028
    6     0.00084199514778     0.00600397829306     0.00007497119163     0.00004308981490     0.00000526258568
    7     0.14185546352736     1.53188531362817     0.01936749012579     0.00292731189676     0.00050603400970
    8     0.11329530139413     0.12673151026134     0.02056630135167     0.00249385360705     0.00145869556092
    9     0.15264598496580     0.11111676698655     0.02417873942737     0.00326597971989     0.00093401086689
   10     1.50827870422467     0.11017243928780     0.15991910281803     0.01690915197430     0.00314642287394
   11     0.00000000000000     1.53377980439253     1.27163180686837     0.08264634578393     0.01787672247784
   12     1.53377980439253     0.00000000000000     0.14208398849850     0.02968032574896     0.00349488157690
   13     1.27163180686837     0.14208398849850     0.00000000000000     1.12577857238648     0.10568821213305
   14     0.08264634578393     0.02968032574896     1.12577857238648     0.00000000000000     1.31700542613490
   15     0.01787672247784     0.00349488157690     0.10568821213305     1.31700542613490     0.00000000000000
   16     0.00237982602891     0.00116222929477     0.01432578143623     0.12563854062099     1.44169469021191
   17     0.00411917318171     0.00248742695631     0.01189553098256     0.11965829301947     0.12417962990806
   18     0.00242605498855     0.00489397139094     0.01308462728272     0.12220546399454     0.12000422710712
   19     0.02844145782552     0.05535261050154     0.11022856490017     1.40207960544439     0.11983141608205
   20     0.00033877871193     0.00108127352595     0.00130576687361     0.01498198867965     0.01135419898953
   21     0.00006104160257     0.00012748652147     0.00029996311859     0.00274540200391     0.00569932865302
   22     0.00001196172767     0.00002702044474     0.00005528755923     0.00035427850217     0.00033663545853
   23     0.00001375607901     0.00011409725310     0.00001366253485     0.00011589861012     0.00034630637056
   24     0.00000203330867     0.00001062657369     0.00000281493971     0.00001250039801     0.00003530651749
   25     0.00000072833398     0.00000256220874     0.00000200793803     0.00002299625656     0.00014422076799
   26     0.00000056434836     0.00000144813916     0.00000223798927     0.00001757040040     0.00003181632702
   27     0.00000327963682     0.00000425074126     0.00001281206604     0.00009716146642     0.00029854366221
   28     0.00000013469690     0.00000055459686     0.00000017782045     0.00000202492730     0.00000987009597
   29     0.00000014948555     0.00000062897922     0.00000009779399     0.00000093121133     0.00000535367223
   30     0.00000057888743     0.00000251011744     0.00000012518213     0.00000029229832     0.00000066241561
   31     0.00000536748420     0.00003985278527     0.00000092457569     0.00000066359334     0.00000019998382
   32     0.00000168704915     0.00001408668532     0.00000016783479     0.00000153349591     0.00000038854373
   33     0.00000069415265     0.00000580105271     0.00000010197424     0.00000024966737     0.00000010681139
   34     0.00000051624996     0.00000257534924     0.00000008426863     0.00000079015840     0.00000095869110
   35     0.00000011352309     0.00000041064099     0.00000007018437     0.00000040284615     0.00000135578915
   36     0.00003886035424     0.00005295150254     0.00014739753686     0.00100483692352     0.00331462440921
   37     0.00357095263860     0.00078857928890     0.03781219349102     0.09652216314091     1.05909574429333
   38     0.00009010418963     0.00031389846437     0.00001566862023     0.00000729131450     0.00000077817721
   39     0.00029230442937     0.00109398642664     0.00007048372375     0.00002524991764     0.00000415147236
   40     0.00273644293600     0.02492692103403     0.00043560119572     0.00117791841797     0.00014362188789
   41     0.00004267105455     0.00024948076992     0.00000579449694     0.00000388659718     0.00000057942447
   42     0.00576269846584     0.01073857544390     0.00104502961105     0.00012103953346     0.00006560137356
   43     0.01584885636554     0.00400762945696     0.00136187617553     0.00038729518331     0.00006278002387
   44     0.07403274408540     0.01159192957074     0.93387825001574     0.05938198060275     0.01486067957564
   45     0.00036559254133     0.00006279011089     0.00115467677627     0.01143463257146     0.07493077207802
   46     0.00014733126840     0.00015736110957     0.00051484898890     0.00525485369652     0.01051710453129
   47     0.00962751268643     0.03734834312376     0.01577232616885     0.07321174675059     0.00972403649118
   48     0.00011822183487     0.00063871947261     0.00017449125532     0.00204037816214     0.00111311960553
   49     0.00000885700035     0.00005305122018     0.00000502673631     0.00003751233343     0.00011304367242
   50     0.00000057631068     0.00000221331691     0.00000029774622     0.00000125856347     0.00000142464547
   51     0.00000007206607     0.00000014503589     0.00000050688342     0.00000274908210     0.00000329781843
   52     0.00000069448920     0.00000062327481     0.00000234189044     0.00001545788499     0.00001958233201
   53     0.00000003605751     0.00000010472154     0.00000007648917     0.00000081522424     0.00000527043891
   54     0.00000001850058     0.00000006930408     0.00000004432294     0.00000024498662     0.00000025679208
   55     0.00000005706712     0.00000030072082     0.00000002177051     0.00000006208426     0.00000011645848
   56     0.00000016074902     0.00000032800913     0.00000003041059     0.00000005404792     0.00000022115449
   57     0.00000095758777     0.00000703396577     0.00000010787405     0.00000005977373     0.00000002512007
   58     0.00000221554792     0.00001032084843     0.00000026381058     0.00000059167168     0.00000013768503
   59     0.00000002318792     0.00000019423713     0.00000001112560     0.00000004880227     0.00000002407614
   60     0.00000026550818     0.00000207338639     0.00000007570877     0.00000002502347     0.00000001263766
   61     0.00000005383252     0.00000037607217     0.00000001941620     0.00000001998119     0.00000001515646
   62     0.00000006083051     0.00000021369553     0.00000001373413     0.00000007670021     0.00000011540582
   63     0.00000026247682     0.00000078017701     0.00000011334835     0.00000074723097     0.00000213939196
   64     0.00000003423422     0.00000009391381     0.00000000903045     0.00000007326533     0.00000017223790
   65     0.00000001254753     0.00000004391022     0.00000000961473     0.00000007551350     0.00000018627151
   66     0.00084319845175     0.00027649349851     0.00994464264255     0.01646048503344     0.05720454419773
   67     0.00081865498636     0.00027414669878     0.00917906232831     0.01650864027735     0.05880781339655
   68     0.00022836159003     0.00006060186741     0.00199255342498     0.00893585282480     0.05983004996394

                16                  17                  18                  19                  20

    1     0.00000210256610     0.00001225150340     0.00002797346206     0.00017639673709     0.00006246200793
    2     0.00000620066245     0.00001881739203     0.00005297078302     0.00024191697615     0.00006602563501
    3     0.00004143996404     0.00005456562327     0.00029519843448     0.00205710811032     0.00030160564053
    4     0.00027550573882     0.00026776225211     0.00181025939162     0.01034959704534     0.00281366059269
    5     0.00001259933094     0.00004010106061     0.00022205755902     0.00061248563793     0.00057440360843
    6     0.00000429806910     0.00000802413377     0.00004496891956     0.00019397752358     0.00006872117808
    7     0.00016309573846     0.00025286179279     0.00056160738193     0.00579816704966     0.00012905992184
    8     0.00019547426424     0.00131415285107     0.00026466296696     0.00314043386379     0.00002854493971
    9     0.00016213445327     0.00044114223928     0.00014177356745     0.00153223798625     0.00001765390507
   10     0.00047694656862     0.00128325055007     0.00041099321730     0.00431730609114     0.00005713378854
   11     0.00237982602891     0.00411917318171     0.00242605498855     0.02844145782552     0.00033877871193
   12     0.00116222929477     0.00248742695631     0.00489397139094     0.05535261050154     0.00108127352595
   13     0.01432578143623     0.01189553098256     0.01308462728272     0.11022856490017     0.00130576687361
   14     0.12563854062099     0.11965829301947     0.12220546399454     1.40207960544439     0.01498198867965
   15     1.44169469021191     0.12417962990806     0.12000422710712     0.11983141608205     0.01135419898953
   16     0.00000000000000     1.44475558790031     0.13302135872464     0.12562902136985     0.01369119460254
   17     1.44475558790031     0.00000000000000     1.39940281366021     0.12204977131242     0.10459506006811
   18     0.13302135872464     1.39940281366021     0.00000000000000     1.36305772899014     1.12611039284535
   19     0.12562902136985     0.12204977131242     1.36305772899014     0.00000000000000     0.12381371878601
   20     0.01369119460254     0.10459506006811     1.12611039284535     0.12381371878601     0.00000000000000
   21     0.00275714830560     0.03108414066102     0.08604279075686     0.02239124533108     1.31268890510213
   22     0.00035522420014     0.00329133096928     0.01467295108144     0.00210041877503     0.10573931229552
   23     0.00014288805459     0.00117662152449     0.00400893370855     0.00124762414993     0.04222197170809
   24     0.00002140032064     0.00015932194740     0.00042457114308     0.00013398488534     0.00371210110335
   25     0.00002572353720     0.00024638163644     0.00046229897671     0.00021128785974     0.00342461941998
   26     0.00002125802856     0.00013514544181     0.00050420575305     0.00010270348598     0.00251127706369
   27     0.00010338144421     0.00087987465605     0.00236853698009     0.00065650211818     0.01813744989367
   28     0.00000228794767     0.00002050720973     0.00004065274766     0.00001673584762     0.00025562817045
   29     0.00000104506607     0.00000853067071     0.00001456777819     0.00000761162845     0.00010522720554
   30     0.00000029171684     0.00000175649918     0.00000372336385     0.00000157233380     0.00002191410631
   31     0.00000024955075     0.00000153375136     0.00000293857635     0.00000239467592     0.00001780964778
   32     0.00000021179140     0.00000094704889     0.00000128002314     0.00000103359763     0.00000634899069
   33     0.00000003258797     0.00000022577508     0.00000046922501     0.00000033992463     0.00000175385791
   34     0.00000035063591     0.00000255420739     0.00000444172016     0.00000360549250     0.00003280874473
   35     0.00000036508107     0.00000276654717     0.00000544897130     0.00000182170949     0.00003446049879
   36     0.00341306681541     0.04809903606067     0.03144109117582     0.00519826750479     0.19172423626834
   37     0.11534078363068     0.01435339960346     0.00738090093907     0.01405326672094     0.00072662791138
   38     0.00000033171685     0.00000068425868     0.00000526245370     0.00002278385336     0.00000481542936
   39     0.00000168165012     0.00000224356833     0.00000604125731     0.00003699121788     0.00000638355968
   40     0.00024644064928     0.00023373612879     0.00173663865075     0.00825042668672     0.00189985630294
   41     0.00000045052817     0.00000077974667     0.00000276168618     0.00001370340560     0.00000520625898
   42     0.00001080273666     0.00004774815233     0.00003002888195     0.00020162725107     0.00000673237423
   43     0.00001573723605     0.00001174424264     0.00001524430342     0.00010718462298     0.00000170737921
   44     0.00150427537949     0.00108010170628     0.00129169817405     0.01046395369043     0.00023959888238
   45     0.87147637458948     0.07891559458606     0.01176930781386     0.00567406283319     0.00103227069603
   46     0.07709736008614     0.86009231698758     0.07573522159191     0.01126253501182     0.01469217342801
   47     0.00569066063844     0.01028264536340     0.07191469423165     0.83826309744961     0.02407535573660
   48     0.00136649702045     0.01011533695442     0.06243276563424     0.02141106797196     0.93630268421134
   49     0.00004993557122     0.00034866136997     0.00150233555958     0.00061180087923     0.01482041923510
   50     0.00000198209050     0.00001234375448     0.00003097763769     0.00000939301943     0.00019926547218
   51     0.00000279050876     0.00001855896431     0.00006605334497     0.00001719086277     0.00028993099465
   52     0.00002643230306     0.00016507315946     0.00024845278871     0.00007268399893     0.00166670603381
   53     0.00000090829014     0.00000873503186     0.00001469476609     0.00000694133543     0.00009030796070
   54     0.00000037374228     0.00000204240723     0.00000895644405     0.00000203461744     0.00004953624615
   55     0.00000007690283     0.00000034704863     0.00000091303381     0.00000033946009     0.00000469386154
   56     0.00000004610709     0.00000037965827     0.00000066613094     0.00000033787842     0.00000318105470
   57     0.00000002052326     0.00000009885783     0.00000016168789     0.00000021625136     0.00000131407692
   58     0.00000013340400     0.00000098149877     0.00000219767557     0.00000130137507     0.00001341384084
   59     0.00000001003092     0.00000003168918     0.00000012203827     0.00000006956778     0.00000040163915
   60     0.00000000437222     0.00000002205972     0.00000005285948     0.00000009250365     0.00000021889565
   61     0.00000000622908     0.00000003727715     0.00000003686503     0.00000002787867     0.00000020272872
   62     0.00000002643108     0.00000024702018     0.00000030105912     0.00000044363742     0.00000199793986
   63     0.00000098148321     0.00000795321774     0.00001005445876     0.00000743271873     0.00005240051459
   64     0.00000006007817     0.00000033765513     0.00000056367557     0.00000031302356     0.00000414397274
   65     0.00000010555455     0.00000056783931     0.00000122613673     0.00000034126278     0.00000764228504
   66     0.01461790910571     0.00125924957323     0.00276226305893     0.00119978389612     0.00034877144264
   67     0.01549325993085     0.00125638055762     0.00297475531103     0.00125981024079     0.00035479466565
   68     0.02381336381908     0.00190586225784     0.00055311530256     0.00109373440111     0.00008291606343

                21                  22                  23                  24                  25

    1     0.00001221780900     0.00005154723710     0.00046765911795     0.00019653572696     0.00001695674831
    2     0.00001208983824     0.00003304779378     0.00027246055460     0.00015171932553     0.00001075860317
    3     0.00005010843092     0.00004258749466     0.00035196665103     0.00022494789306     0.00001650714381
    4     0.00036370468437     0.00058919326372     0.00603339806493     0.00130738130444     0.00011068206321
    5     0.00017346412689     0.00130775167811     0.01933607293101     0.01045427185960     0.00049380682987
    6     0.00001931828931     0.00013204076067     0.00174757074525     0.00165594422343     0.00016082637854
    7     0.00002110338482     0.00000740124910     0.00005890446767     0.00002731440036     0.00000282426116
    8     0.00000839164119     0.00000281671069     0.00001273604738     0.00001179905374     0.00000168638875
    9     0.00000466956271     0.00000119179412     0.00000350217743     0.00000197558236     0.00000032085886
   10     0.00001580163410     0.00000323661125     0.00000320220938     0.00000104641249     0.00000053255723
   11     0.00006104160257     0.00001196172767     0.00001375607901     0.00000203330867     0.00000072833398
   12     0.00012748652147     0.00002702044474     0.00011409725310     0.00001062657369     0.00000256220874
   13     0.00029996311859     0.00005528755923     0.00001366253485     0.00000281493971     0.00000200793803
   14     0.00274540200391     0.00035427850217     0.00011589861012     0.00001250039801     0.00002299625656
   15     0.00569932865302     0.00033663545853     0.00034630637056     0.00003530651749     0.00014422076799
   16     0.00275714830560     0.00035522420014     0.00014288805459     0.00002140032064     0.00002572353720
   17     0.03108414066102     0.00329133096928     0.00117662152449     0.00015932194740     0.00024638163644
   18     0.08604279075686     0.01467295108144     0.00400893370855     0.00042457114308     0.00046229897671
   19     0.02239124533108     0.00210041877503     0.00124762414993     0.00013398488534     0.00021128785974
   20     1.31268890510213     0.10573931229552     0.04222197170809     0.00371210110335     0.00342461941998
   21     0.00000000000000     0.97271937473407     0.10431455688236     0.01451855618040     0.01120887708281
   22     0.97271937473407     0.00000000000000     1.39664831450388     0.12798756244614     0.12384569218147
   23     0.10431455688236     1.39664831450388     0.00000000000000     1.46030059386929     0.12554579850228
   24     0.01451855618040     0.12798756244614     1.46030059386929     0.00000000000000     1.39766667336292
   25     0.01120887708281     0.12384569218147     0.12554579850228     1.39766667336292     0.00000000000000
   26     0.01484478919292     0.12660613969398     0.12987148144925     0.12624273841649     1.40421619267789
   27     0.11187827098361     1.39007474420433     0.12444288492256     0.13234641978628     0.12645458624624
   28     0.00071831320239     0.00850426222926     0.01451793152678     0.10131535623743     1.01597315354007
   29     0.00026818349098     0.00293180230174     0.00200620327622     0.02253783989346     0.08302165325994
   30     0.00007243260842     0.00065469497723     0.00156808090404     0.01793736820598     0.01780491741598
   31     0.00006102108172     0.00052186940724     0.00414245050024     0.02325756027368     0.00820189108008
   32     0.00003547194234     0.00038957607665     0.00113213962503     0.00381163458153     0.00281180410104
   33     0.00000685040658     0.00007887271293     0.00029674694186     0.00087008889509     0.00075170584242
   34     0.00011266239998     0.00214280297578     0.00718839248896     0.01888155840777     0.01996817704803
   35     0.00009512717675     0.00101197697456     0.00135056124463     0.00826737379959     0.02547621203228
   36     2.17901505104451     0.13660302214643     0.02477081757162     0.00311943455795     0.00620081331725
[...]
   15     0.00000022115449     0.00000002512007     0.00000013768503     0.00000002407614     0.00000001263766
   16     0.00000004610709     0.00000002052326     0.00000013340400     0.00000001003092     0.00000000437222
   17     0.00000037965827     0.00000009885783     0.00000098149877     0.00000003168918     0.00000002205972
   18     0.00000066613094     0.00000016168789     0.00000219767557     0.00000012203827     0.00000005285948
   19     0.00000033787842     0.00000021625136     0.00000130137507     0.00000006956778     0.00000009250365
   20     0.00000318105470     0.00000131407692     0.00001341384084     0.00000040163915     0.00000021889565
   21     0.00001585827441     0.00000280354741     0.00004488381312     0.00000138346368     0.00000052356131
   22     0.00012445462844     0.00002156909441     0.00035818507929     0.00000764196469     0.00000511171847
   23     0.00016799693605     0.00013207694578     0.00313994796013     0.00002956474959     0.00001598627024
   24     0.00064482595253     0.00086822687682     0.01607036542607     0.00010743644549     0.00007871604131
   25     0.00152513425574     0.00033654537215     0.00385923581463     0.00014818496794     0.00005315588699
   26     0.00044079394477     0.00007099445879     0.00054171881089     0.00005161395201     0.00001109889288
   27     0.00009708205281     0.00004758215992     0.00060485002129     0.00001115200898     0.00000642093641
   28     0.01246313995166     0.00099311830957     0.00350498882117     0.00064403843860     0.00010806500224
   29     0.06886047315444     0.01046777879083     0.01166859061483     0.00307241470327     0.00060653723181
   30     0.79444342016020     0.05675170332790     0.05873974760563     0.01290148980818     0.00386058034320
   31     0.05526455464587     0.84404462980133     0.89274861438643     0.01582866078302     0.01947803675483
   32     0.01327784022423     0.05166504473346     0.06799562248103     0.06788958144587     0.06372385881962
   33     0.01466468010032     0.02095741520546     0.01056677840907     0.91049390360272     0.91900015834203
   34     0.00730632684366     0.01307803312823     0.02007582244989     0.01616273902512     0.01249071820859
   35     0.02010106739537     0.00202249475405     0.00698979440011     0.01256980690771     0.00166273193231
   36     0.00001217905612     0.00000161642543     0.00001579000337     0.00000048104228     0.00000030397773
   37     0.00000002500541     0.00000001011027     0.00000003062002     0.00000000656973     0.00000000355670
   38     0.00000080004532     0.00012809156346     0.00003127857980     0.00000432695079     0.00000384960637
   39     0.00000064866762     0.00000967598805     0.00001054023564     0.00000045133616     0.00000109149238
   40     0.00000427837870     0.00000879151149     0.00002835442077     0.00000051771074     0.00000115703865
   41     0.00005392187535     0.00596523434044     0.00297082451705     0.00001236868878     0.00007575212242
   42     0.00000005394528     0.00000076340132     0.00000191688780     0.00000002569076     0.00000028182911
   43     0.00000000719566     0.00000007233013     0.00000022095305     0.00000000161730     0.00000000857485
   44     0.00000001714242     0.00000002012645     0.00000005179841     0.00000000084015     0.00000000547084
   45     0.00000000329517     0.00000000228727     0.00000001224734     0.00000000066062     0.00000000027050
   46     0.00000002442709     0.00000001235414     0.00000037011921     0.00000000497490     0.00000000182841
   47     0.00000001593637     0.00000006056537     0.00000099646251     0.00000001861014     0.00000004834831
   48     0.00000150051578     0.00000073704365     0.00000927468322     0.00000039543459     0.00000012581524
   49     0.00002045490142     0.00001285514547     0.00043853508627     0.00000201536615     0.00000068776973
   50     0.00025738112492     0.00104506625154     0.00993066658399     0.00005608232075     0.00005318143518
   51     0.00005830776118     0.00001146213112     0.00004242798555     0.00000471450978     0.00000129290647
   52     0.00001811046355     0.00000277097774     0.00002849682706     0.00000128344390     0.00000049908142
   53     0.00116894277690     0.00010073822999     0.00050492085339     0.00006385804022     0.00001707315935
   54     0.00043334978770     0.00030710878898     0.00022031065009     0.00006624134658     0.00002058809698
   55     0.01713611851023     0.00541630980515     0.00739313068089     0.00042992772229     0.00009718625602
   56     0.00000000000000     0.00965914748965     0.01077734428672     0.00731472635815     0.00149547911631
   57     0.00965914748965     0.00000000000000     0.03623828242339     0.00289646329199     0.00669341008078
   58     0.01077734428672     0.03623828242339     0.00000000000000     0.00094129256053     0.00109680172672
   59     0.00731472635815     0.00289646329199     0.00094129256053     0.00000000000000     0.03482720741656
   60     0.00149547911631     0.00669341008078     0.00109680172672     0.03482720741656     0.00000000000000
   61     0.00061354439167     0.00116232713843     0.00088741379335     0.03494231884725     0.03764756554165
   62     0.00042603405988     0.00113113653492     0.00117138194986     0.00273419361511     0.00109404573998
   63     0.00065207383193     0.00102321102748     0.00576579381636     0.00100550496980     0.00066469028219
   64     0.00472435076444     0.00040572739734     0.00101720921800     0.00669803846491     0.00054786029185
   65     0.00074442293762     0.00045708689917     0.00028713092523     0.00038736196475     0.00025732977999
   66     0.00000001079492     0.00000000223774     0.00000001151501     0.00000000085982     0.00000000045229
   67     0.00000000950911     0.00000000297486     0.00000000741501     0.00000000146308     0.00000000104515
   68     0.00000000080178     0.00000000139258     0.00000000291954     0.00000000036053     0.00000000029485

                61                  62                  63                  64                  65

    1     0.00002578486081     0.00000413720561     0.00002610126816     0.00002057618469     0.00000237680322
    2     0.00000560279366     0.00000381843745     0.00003902184064     0.00000172062202     0.00000046258598
    3     0.00000708364339     0.00000466570765     0.00002342255455     0.00000186798420     0.00000063002343
    4     0.00000546550329     0.00001029109718     0.00006448526435     0.00001059271600     0.00000084142441
    5     0.00000502017353     0.00001635173381     0.00038437764333     0.00001043718933     0.00000606983699
    6     0.00003681892563     0.00003316853624     0.00010584507335     0.00005973836165     0.00000999708357
    7     0.00000041218785     0.00000051772406     0.00000394175163     0.00000017202746     0.00000016178252
    8     0.00000022967518     0.00000011908459     0.00000062542823     0.00000018100787     0.00000003341013
    9     0.00000002938199     0.00000003561325     0.00000025236861     0.00000002277484     0.00000000666945
   10     0.00000008695381     0.00000003840010     0.00000012687198     0.00000003853039     0.00000001064157
   11     0.00000005383252     0.00000006083051     0.00000026247682     0.00000003423422     0.00000001254753
   12     0.00000037607217     0.00000021369553     0.00000078017701     0.00000009391381     0.00000004391022
   13     0.00000001941620     0.00000001373413     0.00000011334835     0.00000000903045     0.00000000961473
   14     0.00000001998119     0.00000007670021     0.00000074723097     0.00000007326533     0.00000007551350
   15     0.00000001515646     0.00000011540582     0.00000213939196     0.00000017223790     0.00000018627151
   16     0.00000000622908     0.00000002643108     0.00000098148321     0.00000006007817     0.00000010555455
   17     0.00000003727715     0.00000024702018     0.00000795321774     0.00000033765513     0.00000056783931
   18     0.00000003686503     0.00000030105912     0.00001005445876     0.00000056367557     0.00000122613673
   19     0.00000002787867     0.00000044363742     0.00000743271873     0.00000031302356     0.00000034126278
   20     0.00000020272872     0.00000199793986     0.00005240051459     0.00000414397274     0.00000764228504
   21     0.00000141456486     0.00000889536909     0.00012851751024     0.00002398142587     0.00001681878798
   22     0.00001392315009     0.00011489668496     0.00251559491558     0.00017383402657     0.00017106055891
   23     0.00002830926512     0.00025569830488     0.00671543952387     0.00050925699757     0.00036949522744
   24     0.00007787946665     0.00059631907315     0.01652234772480     0.00079535639517     0.00138955169782
   25     0.00008341337932     0.00082428101496     0.01369424036131     0.00147536330118     0.00904638835681
   26     0.00002732164178     0.00023412148291     0.00473228229334     0.00044728252593     0.00534290321481
   27     0.00001367847530     0.00010055921082     0.00205753914145     0.00011799741408     0.00048648986357
   28     0.00011023317810     0.00119762229796     0.00644572447041     0.01156357905269     0.02623825045080
   29     0.00059304143056     0.01027107097850     0.01201191703969     0.06411719876874     0.04972088922794
   30     0.00167591169298     0.00246743920817     0.00822797075284     0.02016410656244     0.01439538112242
   31     0.01230682278454     0.01275433712252     0.01918007136196     0.00765163026569     0.00198623575863
   32     0.06344039464291     0.05846814400945     0.06059752486258     0.01323197147570     0.01380757196736
   33     0.91930640580605     0.01942305181040     0.01323429971255     0.01398637992578     0.00140953103884
   34     0.01828491122045     0.88526292173982     0.76547756044631     0.04804229623049     0.05540008751353
   35     0.00387181275202     0.06088503226826     0.04553391927349     0.80182555758804     0.82159691389707
   36     0.00000058555498     0.00000426095320     0.00005926175850     0.00000585742353     0.00000817791545
   37     0.00000000221851     0.00000001292247     0.00000021724543     0.00000001503647     0.00000001370056
   38     0.00000515147708     0.00000050178646     0.00000110276474     0.00000493803545     0.00000020901066
   39     0.00000078241467     0.00000018201764     0.00000237842244     0.00000002874721     0.00000003272296
   40     0.00000016480383     0.00000119108525     0.00000634776540     0.00000143525401     0.00000003913835
   41     0.00000973177331     0.00001216096044     0.00001443106806     0.00002789374186     0.00001894390342
   42     0.00000005653336     0.00000001378478     0.00000033040157     0.00000001272978     0.00000000285839
   43     0.00000000125941     0.00000000165038     0.00000004391686     0.00000000226795     0.00000000072175
   44     0.00000000226465     0.00000000376516     0.00000002425963     0.00000000108835     0.00000000310592
   45     0.00000000061724     0.00000000271445     0.00000024431021     0.00000000236067     0.00000002123997
   46     0.00000001027152     0.00000005008528     0.00000248119049     0.00000004438828     0.00000015031942
   47     0.00000003669342     0.00000061650031     0.00000208224568     0.00000015997638     0.00000005197387
   48     0.00000044774683     0.00000868208519     0.00007998019275     0.00002301144284     0.00000369836138
   49     0.00000282904258     0.00002573655390     0.00052780767709     0.00004405711957     0.00002371130723
   50     0.00003168265651     0.00008560499320     0.00293035367055     0.00022724736536     0.00009513064311
   51     0.00000429545848     0.00002429834964     0.00032068345361     0.00003988815754     0.00138074134722
   52     0.00000139544509     0.00000849785994     0.00007122168846     0.00001363740370     0.00001422178234
   53     0.00002151666189     0.00026905530626     0.00044984982275     0.00058771429765     0.00129673298441
   54     0.00002177974871     0.00013669899745     0.00072370923821     0.00113893711927     0.00747805710706
   55     0.00024865475390     0.00042788266997     0.00038819714226     0.00063019202645     0.00158417948331
   56     0.00061354439167     0.00042603405988     0.00065207383193     0.00472435076444     0.00074442293762
   57     0.00116232713843     0.00113113653492     0.00102321102748     0.00040572739734     0.00045708689917
   58     0.00088741379335     0.00117138194986     0.00576579381636     0.00101720921800     0.00028713092523
   59     0.03494231884725     0.00273419361511     0.00100550496980     0.00669803846491     0.00038736196475
   60     0.03764756554165     0.00109404573998     0.00066469028219     0.00054786029185     0.00025732977999
   61     0.00000000000000     0.00600076843937     0.00109121404119     0.00154873262030     0.00009831182460
   62     0.00600076843937     0.00000000000000     0.02112321426535     0.00884527433087     0.00546748937533
   63     0.00109121404119     0.02112321426535     0.00000000000000     0.02183135369036     0.00903039943632
   64     0.00154873262030     0.00884527433087     0.02183135369036     0.00000000000000     0.01758341494532
   65     0.00009831182460     0.00546748937533     0.00903039943632     0.01758341494532     0.00000000000000
   66     0.00000000046318     0.00000000392162     0.00000004645499     0.00000000733094     0.00000000633587
   67     0.00000000080038     0.00000000521680     0.00000010405109     0.00000001216365     0.00000000767410
   68     0.00000000005245     0.00000000141579     0.00000001465796     0.00000000086538     0.00000000216418

                66                  67                  68

    1     0.00000073416269     0.00000100618884     0.00000024865890
    2     0.00000198879843     0.00000257126554     0.00000066670117
    3     0.00001217654297     0.00000938083180     0.00000375301004
    4     0.00000855801783     0.00000807523148     0.00000773882994
    5     0.00000058083119     0.00000073026624     0.00000042659843
    6     0.00000036767791     0.00000118937489     0.00000016097850
    7     0.00004641750497     0.00004206037800     0.00001448932468
    8     0.00007799030508     0.00010230779824     0.00000484092567
    9     0.00004410443663     0.00003837133462     0.00000418882830
   10     0.00027017852147     0.00027316324233     0.00003074058642
   11     0.00084319845175     0.00081865498636     0.00022836159003
   12     0.00027649349851     0.00027414669878     0.00006060186741
   13     0.00994464264255     0.00917906232831     0.00199255342498
   14     0.01646048503344     0.01650864027735     0.00893585282480
   15     0.05720454419773     0.05880781339655     0.05983004996394
   16     0.01461790910571     0.01549325993085     0.02381336381908
   17     0.00125924957323     0.00125638055762     0.00190586225784
   18     0.00276226305893     0.00297475531103     0.00055311530256
   19     0.00119978389612     0.00125981024079     0.00109373440111
   20     0.00034877144264     0.00035479466565     0.00008291606343
   21     0.00019581918478     0.00021540653413     0.00003018794645
   22     0.00001124896670     0.00001557257635     0.00000665934596
   23     0.00001304292232     0.00001417995892     0.00000266603526
   24     0.00000135058847     0.00000156386163     0.00000031345019
   25     0.00000556487675     0.00000607779364     0.00000026221419
   26     0.00000102145092     0.00000138330093     0.00000026764407
   27     0.00001014157286     0.00001288369514     0.00000154103127
   28     0.00000040438957     0.00000037616646     0.00000004159525
   29     0.00000020756110     0.00000024688457     0.00000001519102
   30     0.00000002026617     0.00000003403633     0.00000000843649
   31     0.00000001428182     0.00000002647325     0.00000001686448
   32     0.00000000833261     0.00000001301595     0.00000000378909
   33     0.00000000341187     0.00000000641789     0.00000000129295
   34     0.00000003202738     0.00000004063479     0.00000000903829
   35     0.00000004626916     0.00000006183429     0.00000000805397
   36     0.00011725553633     0.00012836492602     0.00001579926521
   37     0.91868446077400     0.91953702759265     0.92064956484789
   38     0.00000009549993     0.00000008674974     0.00000003949962
   39     0.00000027831764     0.00000025433527     0.00000010137992
   40     0.00000683501670     0.00000758347890     0.00000705613357
   41     0.00000005678490     0.00000005922556     0.00000003781091
   42     0.00000337262841     0.00000406116899     0.00000044054410
   43     0.00000303374267     0.00000275088185     0.00000064773352
   44     0.00539757560139     0.00379142234708     0.00104006443939
   45     0.00120910407962     0.00128176196309     0.00770150197574
   46     0.00021761323146     0.00020608230414     0.00012844148215
   47     0.00018309574866     0.00018170904028     0.00034990239579
   48     0.00003689484306     0.00004362080257     0.00003863830240
   49     0.00000425206876     0.00000416032881     0.00000094639535
   50     0.00000005774105     0.00000012195927     0.00000004923012
   51     0.00000019035424     0.00000013324715     0.00000007727991
   52     0.00000089516129     0.00000079957591     0.00000045624165
   53     0.00000018900397     0.00000023738396     0.00000001473903
   54     0.00000001174704     0.00000001217448     0.00000000986692
   55     0.00000000297997     0.00000000906199     0.00000000253422
   56     0.00000001079492     0.00000000950911     0.00000000080178
   57     0.00000000223774     0.00000000297486     0.00000000139258
   58     0.00000001151501     0.00000000741501     0.00000000291954
   59     0.00000000085982     0.00000000146308     0.00000000036053
   60     0.00000000045229     0.00000000104515     0.00000000029485
   61     0.00000000046318     0.00000000080038     0.00000000005245
   62     0.00000000392162     0.00000000521680     0.00000000141579
   63     0.00000004645499     0.00000010405109     0.00000001465796
   64     0.00000000733094     0.00000001216365     0.00000000086538
   65     0.00000000633587     0.00000000767410     0.00000000216418
   66     0.00000000000000     0.03544393177603     0.03911990960125
   67     0.03544393177603     0.00000000000000     0.03905390074540
   68     0.03911990960125     0.03905390074540     0.00000000000000



  Atomic Valences: 

 #  #
 Irrep: 1
      1:  4.3920560
      2:  4.4221811
      3:  4.6036804
      4:  4.5801223
      5:  3.9234665
      6:  4.5662510
      7:  4.7429736
      8:  4.3678477
      9:  4.5227987
     10:  3.8652334
     11:  5.0047065
     12:  3.9627506
     13:  4.0373030
     14:  4.6633530
     15:  4.6241726
     16:  4.4372428
     17:  4.4020711
     18:  4.6685365
     19:  4.4250257
     20:  4.0790131
     21:  5.0014573
     22:  4.6172030
     23:  4.4604823
     24:  4.4972415
     25:  4.6995455
     26:  4.4461033
     27:  4.4261915
     28:  4.5136186
     29:  4.2614191
     30:  4.5462588
     31:  4.6057893
     32:  4.2023813
     33:  4.2739681
     34:  4.5658996
     35:  4.5577767
     36:  2.7576828
     37:  4.1497198
     38:  1.0981989
     39:  1.1011027
     40:  1.1122635
     41:  1.1058104
     42:  1.1093520
     43:  1.0860572
     44:  1.1756179
     45:  1.0999252
     46:  1.1069661
     47:  1.1343964
     48:  1.1839842
     49:  1.1129437
     50:  1.1243490
     51:  1.1029411
     52:  1.0972111
     53:  1.1093088
     54:  1.1171933
     55:  1.0560475
     56:  1.0456656
     57:  1.0839851
     58:  1.1882157
     59:  1.1324197
     60:  1.1060622
     61:  1.1042641
     62:  1.1019400
     63:  1.0455744
     64:  1.0501840
     65:  1.0476255
     66:  1.1060486
     67:  1.1073623
     68:  1.1067133


    Psi4 stopped on: Tuesday, 14 April 2020 01:14PM
    Psi4 wall time for execution: 0:30:11.07

*** Psi4 exiting successfully. Buy a developer a beer!
