
    -----------------------------------------------------------------------
          Psi4: An Open-Source Ab Initio Electronic Structure Package
                               Psi4 1.3.2 release

                         Git: Rev {HEAD} ecbda83 


    R. M. Parrish, L. A. Burns, D. G. A. Smith, A. C. Simmonett,
    A. E. DePrince III, E. G. Hohenstein, U. Bozkaya, A. Yu. Sokolov,
    R. Di Remigio, R. M. Richard, J. F. Gonthier, A. M. James,
    H. R. McAlexander, A. Kumar, M. Saitow, X. Wang, B. P. Pritchard,
    P. Verma, H. F. Schaefer III, K. Patkowski, R. A. King, E. F. Valeev,
    F. A. Evangelista, J. M. Turney, T. D. Crawford, and C. D. Sherrill,
    J. Chem. Theory Comput. 13(7) pp 3185--3197 (2017).
    (doi: 10.1021/acs.jctc.7b00174)


                         Additional Contributions by
    P. Kraus, H. Kruse, M. H. Lechner, M. C. Schieber, R. A. Shaw,
    A. Alenaizan, R. Galvelis, Z. L. Glick, S. Lehtola, and J. P. Misiewicz

    -----------------------------------------------------------------------


    Psi4 started on: Tuesday, 03 March 2020 06:01PM

    Process ID: 70737
    Host:       node42.bme.utexas.edu
    PSIDATADIR: /home/bdw2292/miniconda3/envs/p4env/share/psi4
    Memory:     500.0 MiB
    Threads:    1
    
  ==> Input File <==

--------------------------------------------------------------------------
molecule { 
0 1
 C    0.571070    4.284753   -2.493937
 C    1.769495    4.238511   -1.768088
 C    2.255858    3.004477   -1.294275
 C    1.469189    1.867843   -1.610054
 N    0.319232    1.892031   -2.296225
 C   -0.113771    3.086414   -2.727687
 C    3.513266    2.857564   -0.474619
 C    4.372793    3.891236   -0.070362
 C    5.454115    3.501448    0.731191
 N    5.693776    2.251563    1.123192
 C    4.812766    1.328456    0.687946
 N    3.759724    1.595002   -0.085493
 N    5.021600    0.021767    1.081115
 C    4.321513   -1.179800    0.727965
 C    5.054561   -2.375239    0.471085
 C    4.312576   -3.513170    0.112715
 C    2.919540   -3.522053   -0.030476
 C    2.217914   -2.338290    0.223385
 C    2.924933   -1.194687    0.628595
 N    0.807669   -2.150690    0.078851
 C   -0.164964   -2.962122   -0.456528
 C   -1.527254   -2.342805   -0.701153
 C   -1.693443   -1.009426   -1.113002
 C   -2.972391   -0.480147   -1.293857
 C   -4.125554   -1.260644   -1.089517
 C   -3.943558   -2.600389   -0.695366
 C   -2.667843   -3.140166   -0.514108
 C   -5.523554   -0.656451   -1.229554
 N   -6.095271    0.076480   -0.084851
 C   -5.586983    1.431269    0.227623
 C   -4.457474    1.466538    1.289425
 N   -4.796402    0.774962    2.555268
 C   -5.597404    1.529444    3.526497
 C   -5.260539   -0.599172    2.243777
 C   -6.373550   -0.668593    1.165100
 O    0.030798   -4.139436   -0.714049
 C    6.569059   -2.451353    0.549886
 H    0.174818    5.225049   -2.865737
 H    2.295932    5.170699   -1.578462
 H    1.795591    0.882272   -1.289760
 H   -1.048798    3.079323   -3.286091
 H    4.232053    4.932998   -0.331363
 H    6.167676    4.244290    1.086982
 H    5.861924   -0.069078    1.633343
 H    4.837441   -4.443133   -0.102564
 H    2.388969   -4.410700   -0.350345
 H    2.402089   -0.267591    0.819177
 H    0.482410   -1.234639    0.354354
 H   -0.818278   -0.390167   -1.298875
 H   -3.063909    0.561239   -1.601593
 H   -4.809345   -3.237117   -0.514318
 H   -2.535584   -4.175275   -0.208829
 H   -5.522920    0.033198   -2.086420
 H   -6.230288   -1.463538   -1.471478
 H   -5.329493    1.952233   -0.659592
 H   -6.792277    2.227393    0.879218
 H   -4.189702    2.910101    1.594740
 H   -3.494353    1.011936    0.887659
 H   -6.602588    1.728269    3.138277
 H   -5.111602    2.484153    3.757682
 H   -5.686745    0.963914    4.461220
 H   -5.568625   -1.109820    3.182744
 H   -4.073917   -1.340164    1.703236
 H   -7.637384    0.001787    1.827713
 H   -6.658536   -1.750369    0.929713
 H    6.915966   -2.413978    1.592350
 H    7.046167   -1.619011    0.013697
 H    6.972269   -3.374944    0.112093
}
memory 20GB
set_num_threads(6)
psi4_io.set_default_path("/scratch/bdw2292")
set freeze_core True
E, wfn = energy('mp2/6-311++G**',return_wfn=True)
oeprop(wfn,"WIBERG_LOWDIN_INDICES")
clean()
--------------------------------------------------------------------------

  Memory set to  18.626 GiB by Python driver.
  Threads set to 6 by Python driver.
    SCF Algorithm Type (re)set to DF.

*** tstart() called on node42.bme.utexas.edu
*** at Tue Mar  3 18:01:52 2020

   => Loading Basis Set <=

    Name: 6-311++G**
    Role: ORBITAL
    Keyword: BASIS
    atoms 1-4, 6-9, 11, 14-19, 21-28, 30-31, 33-35, 37 entry C          line   119 file /home/bdw2292/miniconda3/envs/p4env/share/psi4/basis/6-311ppgss.gbs 
    atoms 5, 10, 12-13, 20, 29, 32                     entry N          line   140 file /home/bdw2292/miniconda3/envs/p4env/share/psi4/basis/6-311ppgss.gbs 
    atoms 36                                           entry O          line   161 file /home/bdw2292/miniconda3/envs/p4env/share/psi4/basis/6-311ppgss.gbs 
    atoms 38-68                                        entry H          line    42 file /home/bdw2292/miniconda3/envs/p4env/share/psi4/basis/6-311ppgss.gbs 


         ---------------------------------------------------------
                                   SCF
               by Justin Turney, Rob Parrish, Andy Simmonett
                          and Daniel G. A. Smith
                              RHF Reference
                        6 Threads,  19073 MiB Core
         ---------------------------------------------------------

  ==> Geometry <==

    Molecular point group: c1
    Full point group: C1

    Geometry (in Angstrom), charge = 0, multiplicity = 1:

       Center              X                  Y                   Z               Mass       
    ------------   -----------------  -----------------  -----------------  -----------------
         C            0.443445150514     4.275147730324    -2.438130648283    12.000000000000
         C            1.641870150514     4.228905730324    -1.712281648283    12.000000000000
         C            2.128233150514     2.994871730324    -1.238468648283    12.000000000000
         C            1.341564150514     1.858237730324    -1.554247648283    12.000000000000
         N            0.191607150514     1.882425730324    -2.240418648283    14.003074004430
         C           -0.241395849486     3.076808730324    -2.671880648283    12.000000000000
         C            3.385641150514     2.847958730324    -0.418812648283    12.000000000000
         C            4.245168150514     3.881630730324    -0.014555648283    12.000000000000
         C            5.326490150514     3.491842730324     0.786997351717    12.000000000000
         N            5.566151150514     2.241957730324     1.178998351717    14.003074004430
         C            4.685141150514     1.318850730324     0.743752351717    12.000000000000
         N            3.632099150514     1.585396730324    -0.029686648283    14.003074004430
         N            4.893975150514     0.012161730324     1.136921351717    14.003074004430
         C            4.193888150514    -1.189405269676     0.783771351717    12.000000000000
         C            4.926936150514    -2.384844269676     0.526891351717    12.000000000000
         C            4.184951150514    -3.522775269676     0.168521351717    12.000000000000
         C            2.791915150514    -3.531658269676     0.025330351717    12.000000000000
         C            2.090289150514    -2.347895269676     0.279191351717    12.000000000000
         C            2.797308150514    -1.204292269676     0.684401351717    12.000000000000
         N            0.680044150514    -2.160295269676     0.134657351717    14.003074004430
         C           -0.292588849486    -2.971727269676    -0.400721648283    12.000000000000
         C           -1.654878849486    -2.352410269676    -0.645346648283    12.000000000000
         C           -1.821067849486    -1.019031269676    -1.057195648283    12.000000000000
         C           -3.100015849486    -0.489752269676    -1.238050648283    12.000000000000
         C           -4.253178849486    -1.270249269676    -1.033710648283    12.000000000000
         C           -4.071182849486    -2.609994269676    -0.639559648283    12.000000000000
         C           -2.795467849486    -3.149771269676    -0.458301648283    12.000000000000
         C           -5.651178849486    -0.666056269676    -1.173747648283    12.000000000000
         N           -6.222895849486     0.066874730324    -0.029044648283    14.003074004430
         C           -5.714607849486     1.421663730324     0.283429351717    12.000000000000
         C           -4.585098849486     1.456932730324     1.345231351717    12.000000000000
         N           -4.924026849486     0.765356730324     2.611074351717    14.003074004430
         C           -5.725028849486     1.519838730324     3.582303351717    12.000000000000
         C           -5.388163849486    -0.608777269676     2.299583351717    12.000000000000
         C           -6.501174849486    -0.678198269676     1.220906351717    12.000000000000
         O           -0.096826849486    -4.149041269676    -0.658242648283    15.994914619570
         C            6.441434150514    -2.460958269676     0.605692351717    12.000000000000
         H            0.047193150514     5.215443730324    -2.809930648283     1.007825032230
         H            2.168307150514     5.161093730324    -1.522655648283     1.007825032230
         H            1.667966150514     0.872666730324    -1.233953648283     1.007825032230
         H           -1.176422849486     3.069717730324    -3.230284648283     1.007825032230
         H            4.104428150514     4.923392730324    -0.275556648283     1.007825032230
         H            6.040051150514     4.234684730324     1.142788351717     1.007825032230
         H            5.734299150514    -0.078683269676     1.689149351717     1.007825032230
         H            4.709816150514    -4.452738269676    -0.046757648283     1.007825032230
         H            2.261344150514    -4.420305269676    -0.294538648283     1.007825032230
         H            2.274464150514    -0.277196269676     0.874983351717     1.007825032230
         H            0.354785150514    -1.244244269676     0.410160351717     1.007825032230
         H           -0.945902849486    -0.399772269676    -1.243068648283     1.007825032230
         H           -3.191533849486     0.551633730324    -1.545786648283     1.007825032230
         H           -4.936969849486    -3.246722269676    -0.458511648283     1.007825032230
         H           -2.663208849486    -4.184880269676    -0.153022648283     1.007825032230
         H           -5.650544849486     0.023592730324    -2.030613648283     1.007825032230
         H           -6.357912849486    -1.473143269676    -1.415671648283     1.007825032230
         H           -5.457117849486     1.942627730324    -0.603785648283     1.007825032230
         H           -6.919901849486     2.217787730324     0.935024351717     1.007825032230
         H           -4.317326849486     2.900495730324     1.650546351717     1.007825032230
         H           -3.621977849486     1.002330730324     0.943465351717     1.007825032230
         H           -6.730212849486     1.718663730324     3.194083351717     1.007825032230
         H           -5.239226849486     2.474547730324     3.813488351717     1.007825032230
         H           -5.814369849486     0.954308730324     4.517026351717     1.007825032230
         H           -5.696249849486    -1.119425269676     3.238550351717     1.007825032230
         H           -4.201541849486    -1.349769269676     1.759042351717     1.007825032230
         H           -7.765008849486    -0.007818269676     1.883519351717     1.007825032230
         H           -6.786160849486    -1.759974269676     0.985519351717     1.007825032230
         H            6.788341150514    -2.423583269676     1.648156351717     1.007825032230
         H            6.918542150514    -1.628616269676     0.069503351717     1.007825032230
         H            6.844644150514    -3.384549269676     0.167899351717     1.007825032230

  Running in c1 symmetry.

  Rotational constants: A =      0.00443  B =      0.00186  C =      0.00153 [cm^-1]
  Rotational constants: A =    132.79872  B =     55.86468  C =     45.73690 [MHz]
  Nuclear repulsion = 3759.494588161472620

  Charge       = 0
  Multiplicity = 1
  Electrons    = 262
  Nalpha       = 131
  Nbeta        = 131

  ==> Algorithm <==

  SCF Algorithm Type is DF.
  DIIS enabled.
  MOM disabled.
  Fractional occupation disabled.
  Guess Type is SAD.
  Energy threshold   = 1.00e-08
  Density threshold  = 1.00e-08
  Integral threshold = 0.00e+00

  ==> Primary Basis <==

  Basis Set: 6-311++G**
    Blend: 6-311++G**
    Number of shells: 525
    Number of basis function: 1031
    Number of Cartesian functions: 1068
    Spherical Harmonics?: true
    Max angular momentum: 2

   => Loading Basis Set <=

    Name: (6-311++G** AUX)
    Role: JKFIT
    Keyword: DF_BASIS_SCF
    atoms 1-4, 6-9, 11, 14-19, 21-28, 30-31, 33-35, 37 entry C          line   162 file /home/bdw2292/miniconda3/envs/p4env/share/psi4/basis/aug-cc-pvtz-jkfit.gbs 
    atoms 5, 10, 12-13, 20, 29, 32                     entry N          line   224 file /home/bdw2292/miniconda3/envs/p4env/share/psi4/basis/aug-cc-pvtz-jkfit.gbs 
    atoms 36                                           entry O          line   286 file /home/bdw2292/miniconda3/envs/p4env/share/psi4/basis/aug-cc-pvtz-jkfit.gbs 
    atoms 38-68                                        entry H          line    70 file /home/bdw2292/miniconda3/envs/p4env/share/psi4/basis/aug-cc-pvtz-jkfit.gbs 

  ==> Pre-Iterations <==

   -------------------------------------------------------
    Irrep   Nso     Nmo     Nalpha   Nbeta   Ndocc  Nsocc
   -------------------------------------------------------
     A       1031    1031       0       0       0       0
   -------------------------------------------------------
    Total    1031    1031     131     131     131       0
   -------------------------------------------------------

  ==> Integral Setup <==

  ==> DiskDFJK: Density-Fitted J/K Matrices <==

    J tasked:                  Yes
    K tasked:                  Yes
    wK tasked:                  No
    OpenMP threads:              6
    Integrals threads:           6
    Memory [MiB]:            14305
    Algorithm:                Disk
    Integral Cache:           NONE
    Schwarz Cutoff:          1E-12
    Fitting Condition:       1E-10

   => Auxiliary Basis Set <=

  Basis Set: (6-311++G** AUX)
    Blend: AUG-CC-PVTZ-JKFIT
    Number of shells: 1544
    Number of basis function: 5274
    Number of Cartesian functions: 6552
    Spherical Harmonics?: true
    Max angular momentum: 4

  Minimum eigenvalue in the overlap matrix is 1.4092331096E-07.
  Using Symmetric Orthogonalization.

  SCF Guess: Superposition of Atomic Densities via on-the-fly atomic UHF.

  ==> Iterations <==

                           Total Energy        Delta E     RMS |[F,P]|

   @DF-RHF iter SAD: -1571.30726366042563   -1.57131e+03   0.00000e+00 
   @DF-RHF iter   1: -1571.34428903220646   -3.70254e-02   1.21513e-03 DIIS
   @DF-RHF iter   2: -1572.11610056202676   -7.71812e-01   6.44107e-04 DIIS
   @DF-RHF iter   3: -1572.31230722828241   -1.96207e-01   1.65988e-04 DIIS
   @DF-RHF iter   4: -1572.32984561791977   -1.75384e-02   6.61840e-05 DIIS
   @DF-RHF iter   5: -1572.33252821548740   -2.68260e-03   1.38657e-05 DIIS
   @DF-RHF iter   6: -1572.33269487883354   -1.66663e-04   6.07385e-06 DIIS
   @DF-RHF iter   7: -1572.33273339956736   -3.85207e-05   2.02786e-06 DIIS
   @DF-RHF iter   8: -1572.33273932856468   -5.92900e-06   8.03063e-07 DIIS
   @DF-RHF iter   9: -1572.33274027017524   -9.41611e-07   3.27669e-07 DIIS
   @DF-RHF iter  10: -1572.33274045765870   -1.87483e-07   1.51782e-07 DIIS
   @DF-RHF iter  11: -1572.33274049978240   -4.21237e-08   7.05084e-08 DIIS
   @DF-RHF iter  12: -1572.33274051106719   -1.12848e-08   2.94302e-08 DIIS
   @DF-RHF iter  13: -1572.33274051340754   -2.34036e-09   1.24267e-08 DIIS
   @DF-RHF iter  14: -1572.33274051380681   -3.99268e-10   5.86376e-09 DIIS
  Energy and wave function converged.


  ==> Post-Iterations <==

    Orbital Energies [Eh]
    ---------------------

    Doubly Occupied:                                                      

       1A    -20.522742     2A    -15.602999     3A    -15.599196  
       4A    -15.585055     5A    -15.574474     6A    -15.572307  
       7A    -15.564184     8A    -15.555841     9A    -11.371625  
      10A    -11.365167    11A    -11.331499    12A    -11.315235  
      13A    -11.312926    14A    -11.306029    15A    -11.303112  
      16A    -11.301302    17A    -11.299770    18A    -11.297300  
      19A    -11.296306    20A    -11.294126    21A    -11.287602  
      22A    -11.282244    23A    -11.277797    24A    -11.263950  
      25A    -11.259506    26A    -11.258452    27A    -11.254222  
      28A    -11.251953    29A    -11.250351    30A    -11.248248  
      31A    -11.248001    32A    -11.247738    33A    -11.244638  
      34A    -11.240142    35A    -11.236466    36A    -11.234055  
      37A    -11.228940    38A     -1.388062    39A     -1.343948  
      40A     -1.276469    41A     -1.252921    42A     -1.248371  
      43A     -1.241841    44A     -1.208338    45A     -1.202069  
      46A     -1.163806    47A     -1.140160    48A     -1.113671  
      49A     -1.073465    50A     -1.061184    51A     -1.046650  
      52A     -1.038782    53A     -1.025894    54A     -1.008144  
      55A     -1.002883    56A     -0.979961    57A     -0.947110  
      58A     -0.929331    59A     -0.924721    60A     -0.899294  
      61A     -0.870634    62A     -0.868076    63A     -0.856177  
      64A     -0.849797    65A     -0.838924    66A     -0.836757  
      67A     -0.826517    68A     -0.807825    69A     -0.779083  
      70A     -0.753835    71A     -0.739912    72A     -0.730953  
      73A     -0.721025    74A     -0.713919    75A     -0.698624  
      76A     -0.681487    77A     -0.679712    78A     -0.666355  
      79A     -0.660697    80A     -0.655612    81A     -0.652450  
      82A     -0.650043    83A     -0.640892    84A     -0.630804  
      85A     -0.628056    86A     -0.619652    87A     -0.611662  
      88A     -0.610540    89A     -0.608064    90A     -0.603646  
      91A     -0.601044    92A     -0.598363    93A     -0.597607  
      94A     -0.591024    95A     -0.588103    96A     -0.581839  
      97A     -0.580341    98A     -0.576543    99A     -0.567822  
     100A     -0.559184   101A     -0.547344   102A     -0.542459  
     103A     -0.542158   104A     -0.532464   105A     -0.528085  
     106A     -0.521494   107A     -0.512713   108A     -0.511807  
     109A     -0.508721   110A     -0.501716   111A     -0.497648  
     112A     -0.494043   113A     -0.488439   114A     -0.478812  
     115A     -0.457489   116A     -0.450235   117A     -0.440992  
     118A     -0.429927   119A     -0.427864   120A     -0.420907  
     121A     -0.412679   122A     -0.398205   123A     -0.396149  
     124A     -0.381201   125A     -0.369136   126A     -0.347785  
     127A     -0.344623   128A     -0.343965   129A     -0.315945  
     130A     -0.312242   131A     -0.295498  

    Virtual:                                                              

     132A      0.026545   133A      0.034636   134A      0.041062  
     135A      0.043457   136A      0.044384   137A      0.046637  
     138A      0.048172   139A      0.053039   140A      0.057017  
     141A      0.059282   142A      0.062273   143A      0.066230  
     144A      0.068636   145A      0.068901   146A      0.070186  
     147A      0.075022   148A      0.075170   149A      0.079613  
     150A      0.081946   151A      0.084984   152A      0.086929  
     153A      0.089155   154A      0.090742   155A      0.095684  
     156A      0.097007   157A      0.098446   158A      0.100375  
     159A      0.104323   160A      0.106065   161A      0.107298  
     162A      0.111119   163A      0.112515   164A      0.114937  
     165A      0.116496   166A      0.119203   167A      0.122915  
     168A      0.123081   169A      0.126088   170A      0.128996  
     171A      0.133659   172A      0.136149   173A      0.138944  
     174A      0.143189   175A      0.144575   176A      0.146433  
     177A      0.147928   178A      0.151376   179A      0.153145  
     180A      0.154760   181A      0.156328   182A      0.160297  
     183A      0.162782   184A      0.163945   185A      0.164974  
     186A      0.165342   187A      0.167224   188A      0.170631  
     189A      0.172280   190A      0.174606   191A      0.175826  
     192A      0.178428   193A      0.179939   194A      0.180303  
     195A      0.182358   196A      0.184362   197A      0.184842  
     198A      0.187234   199A      0.189921   200A      0.193318  
     201A      0.194655   202A      0.195594   203A      0.198354  
     204A      0.199317   205A      0.202263   206A      0.203342  
     207A      0.203906   208A      0.206105   209A      0.206653  
     210A      0.209276   211A      0.210737   212A      0.212646  
     213A      0.214220   214A      0.215143   215A      0.217166  
     216A      0.219738   217A      0.220618   218A      0.222002  
     219A      0.223008   220A      0.224518   221A      0.228650  
     222A      0.230268   223A      0.231589   224A      0.232782  
     225A      0.233203   226A      0.236580   227A      0.240179  
     228A      0.240910   229A      0.243230   230A      0.247565  
     231A      0.249240   232A      0.249722   233A      0.252348  
     234A      0.255102   235A      0.256234   236A      0.257929  
     237A      0.261648   238A      0.264128   239A      0.267155  
     240A      0.268807   241A      0.270885   242A      0.272425  
     243A      0.272784   244A      0.277274   245A      0.277972  
     246A      0.280251   247A      0.284271   248A      0.286949  
     249A      0.288690   250A      0.291689   251A      0.294954  
     252A      0.297088   253A      0.300683   254A      0.303069  
     255A      0.303768   256A      0.307708   257A      0.310640  
     258A      0.311038   259A      0.316164   260A      0.316661  
     261A      0.320723   262A      0.321151   263A      0.322575  
     264A      0.325556   265A      0.327896   266A      0.330327  
     267A      0.333302   268A      0.334648   269A      0.337594  
     270A      0.339466   271A      0.339915   272A      0.344282  
     273A      0.344817   274A      0.348730   275A      0.349582  
     276A      0.350355   277A      0.351280   278A      0.355690  
     279A      0.358144   280A      0.361332   281A      0.362294  
     282A      0.364781   283A      0.366223   284A      0.368188  
     285A      0.369911   286A      0.371098   287A      0.373590  
     288A      0.375283   289A      0.376388   290A      0.378349  
     291A      0.379577   292A      0.382707   293A      0.384034  
     294A      0.384936   295A      0.386810   296A      0.388863  
     297A      0.390087   298A      0.393219   299A      0.393313  
     300A      0.396759   301A      0.399193   302A      0.399963  
     303A      0.403294   304A      0.403401   305A      0.404772  
     306A      0.409359   307A      0.410178   308A      0.411737  
     309A      0.412467   310A      0.414032   311A      0.414433  
     312A      0.417975   313A      0.419039   314A      0.420613  
     315A      0.422413   316A      0.423235   317A      0.426068  
     318A      0.427698   319A      0.430499   320A      0.430973  
     321A      0.432365   322A      0.433755   323A      0.436593  
     324A      0.438438   325A      0.441002   326A      0.445032  
     327A      0.445992   328A      0.447855   329A      0.451156  
     330A      0.455076   331A      0.455411   332A      0.457864  
     333A      0.459715   334A      0.461160   335A      0.462915  
     336A      0.467434   337A      0.468963   338A      0.470360  
     339A      0.474818   340A      0.476801   341A      0.478694  
     342A      0.480173   343A      0.482631   344A      0.483361  
     345A      0.490346   346A      0.490887   347A      0.492279  
     348A      0.495619   349A      0.499793   350A      0.501670  
     351A      0.504743   352A      0.507482   353A      0.510800  
     354A      0.515411   355A      0.515920   356A      0.519983  
     357A      0.521888   358A      0.524857   359A      0.526637  
     360A      0.529750   361A      0.532029   362A      0.534993  
     363A      0.539547   364A      0.542274   365A      0.544841  
     366A      0.548171   367A      0.551431   368A      0.552668  
     369A      0.556901   370A      0.561027   371A      0.571126  
     372A      0.574969   373A      0.583048   374A      0.586850  
     375A      0.589811   376A      0.594059   377A      0.596481  
     378A      0.602927   379A      0.610312   380A      0.611889  
     381A      0.615945   382A      0.623409   383A      0.624541  
     384A      0.633851   385A      0.639032   386A      0.645785  
     387A      0.652661   388A      0.660907   389A      0.665216  
     390A      0.681510   391A      0.689524   392A      0.692370  
     393A      0.701745   394A      0.703413   395A      0.706920  
     396A      0.712107   397A      0.717028   398A      0.724157  
     399A      0.728781   400A      0.732355   401A      0.738124  
     402A      0.742005   403A      0.746975   404A      0.752900  
     405A      0.758261   406A      0.759166   407A      0.762246  
     408A      0.766802   409A      0.769624   410A      0.773231  
     411A      0.776655   412A      0.778420   413A      0.784225  
     414A      0.786665   415A      0.791309   416A      0.794784  
     417A      0.801293   418A      0.806120   419A      0.807850  
     420A      0.809719   421A      0.814197   422A      0.817835  
     423A      0.819179   424A      0.821550   425A      0.827559  
     426A      0.829577   427A      0.831577   428A      0.834234  
     429A      0.840112   430A      0.844610   431A      0.849454  
     432A      0.857682   433A      0.860040   434A      0.862057  
     435A      0.864029   436A      0.873070   437A      0.875650  
     438A      0.877363   439A      0.881370   440A      0.885507  
     441A      0.890286   442A      0.892402   443A      0.894824  
     444A      0.898494   445A      0.901730   446A      0.902702  
     447A      0.905852   448A      0.913376   449A      0.914407  
     450A      0.918774   451A      0.918853   452A      0.922504  
     453A      0.925497   454A      0.928035   455A      0.930664  
     456A      0.933939   457A      0.935860   458A      0.937430  
     459A      0.938775   460A      0.943675   461A      0.948814  
     462A      0.952542   463A      0.955766   464A      0.958216  
     465A      0.960311   466A      0.962854   467A      0.969524  
     468A      0.971425   469A      0.971591   470A      0.976467  
     471A      0.979005   472A      0.982449   473A      0.985344  
     474A      0.988093   475A      0.992247   476A      0.994863  
     477A      0.996524   478A      1.003226   479A      1.004901  
     480A      1.008357   481A      1.012030   482A      1.013815  
     483A      1.023292   484A      1.028122   485A      1.029554  
     486A      1.032713   487A      1.039067   488A      1.042419  
     489A      1.050852   490A      1.053448   491A      1.056982  
     492A      1.061361   493A      1.064077   494A      1.070385  
     495A      1.071319   496A      1.075912   497A      1.080835  
     498A      1.086633   499A      1.089594   500A      1.092673  
     501A      1.094679   502A      1.096991   503A      1.107887  
     504A      1.113963   505A      1.116773   506A      1.118841  
     507A      1.123621   508A      1.133731   509A      1.139635  
     510A      1.141690   511A      1.145214   512A      1.149386  
     513A      1.150504   514A      1.155589   515A      1.165719  
     516A      1.168264   517A      1.169914   518A      1.176672  
     519A      1.178701   520A      1.183622   521A      1.186833  
     522A      1.189707   523A      1.190220   524A      1.195413  
     525A      1.199865   526A      1.203516   527A      1.208844  
     528A      1.212658   529A      1.213654   530A      1.219617  
     531A      1.220778   532A      1.224891   533A      1.228459  
     534A      1.233977   535A      1.236870   536A      1.243597  
     537A      1.247362   538A      1.248853   539A      1.253706  
     540A      1.258510   541A      1.264842   542A      1.267099  
     543A      1.269958   544A      1.276587   545A      1.280422  
     546A      1.282806   547A      1.287306   548A      1.294738  
     549A      1.295180   550A      1.297571   551A      1.301408  
     552A      1.308200   553A      1.312720   554A      1.317169  
     555A      1.321458   556A      1.324316   557A      1.340968  
     558A      1.347782   559A      1.351795   560A      1.356587  
     561A      1.359015   562A      1.369498   563A      1.378157  
     564A      1.381304   565A      1.387086   566A      1.393272  
     567A      1.399309   568A      1.404548   569A      1.411374  
     570A      1.422036   571A      1.422607   572A      1.433933  
     573A      1.436501   574A      1.440561   575A      1.445491  
     576A      1.447847   577A      1.454866   578A      1.461033  
     579A      1.469659   580A      1.475000   581A      1.486325  
     582A      1.495542   583A      1.507462   584A      1.510583  
     585A      1.523001   586A      1.527781   587A      1.532699  
     588A      1.552334   589A      1.558383   590A      1.564515  
     591A      1.570334   592A      1.578475   593A      1.591347  
     594A      1.601443   595A      1.607752   596A      1.617730  
     597A      1.625469   598A      1.626155   599A      1.634075  
     600A      1.636246   601A      1.659686   602A      1.661735  
     603A      1.670305   604A      1.682768   605A      1.684291  
     606A      1.697491   607A      1.706007   608A      1.716528  
     609A      1.727063   610A      1.730892   611A      1.741461  
     612A      1.748797   613A      1.755369   614A      1.756504  
     615A      1.762036   616A      1.765441   617A      1.771041  
     618A      1.773828   619A      1.782248   620A      1.786420  
     621A      1.790548   622A      1.792568   623A      1.796416  
     624A      1.800043   625A      1.809322   626A      1.812591  
     627A      1.818543   628A      1.820490   629A      1.824880  
     630A      1.827205   631A      1.829308   632A      1.837495  
     633A      1.839117   634A      1.841408   635A      1.843016  
     636A      1.850903   637A      1.855006   638A      1.861769  
     639A      1.864856   640A      1.868003   641A      1.869311  
     642A      1.874116   643A      1.876507   644A      1.878467  
     645A      1.893108   646A      1.897495   647A      1.899580  
     648A      1.903647   649A      1.910969   650A      1.917345  
     651A      1.924749   652A      1.932960   653A      1.938924  
     654A      1.940471   655A      1.951079   656A      1.952366  
     657A      1.952697   658A      1.957223   659A      1.966339  
     660A      1.968156   661A      1.969830   662A      1.971169  
     663A      1.977118   664A      1.983517   665A      1.984381  
     666A      1.994129   667A      1.996403   668A      1.999505  
     669A      2.002921   670A      2.012585   671A      2.012864  
     672A      2.021936   673A      2.028218   674A      2.033400  
     675A      2.033851   676A      2.038691   677A      2.041992  
     678A      2.048182   679A      2.056213   680A      2.059247  
     681A      2.065599   682A      2.068971   683A      2.077213  
     684A      2.079568   685A      2.084084   686A      2.085189  
     687A      2.089722   688A      2.096949   689A      2.103137  
     690A      2.105782   691A      2.121560   692A      2.122596  
     693A      2.128497   694A      2.137470   695A      2.144546  
     696A      2.152142   697A      2.155484   698A      2.172463  
     699A      2.174759   700A      2.178385   701A      2.182753  
     702A      2.189274   703A      2.192366   704A      2.203951  
     705A      2.210715   706A      2.215604   707A      2.222173  
     708A      2.226317   709A      2.235142   710A      2.238656  
     711A      2.249360   712A      2.252877   713A      2.254406  
     714A      2.259560   715A      2.262063   716A      2.266359  
     717A      2.269432   718A      2.271959   719A      2.275432  
     720A      2.284693   721A      2.288333   722A      2.289081  
     723A      2.295515   724A      2.299833   725A      2.309476  
     726A      2.316087   727A      2.319304   728A      2.323607  
     729A      2.325844   730A      2.327842   731A      2.337720  
     732A      2.348762   733A      2.353590   734A      2.356095  
     735A      2.364698   736A      2.369356   737A      2.376350  
     738A      2.383399   739A      2.388467   740A      2.399496  
     741A      2.404007   742A      2.406794   743A      2.409930  
     744A      2.420116   745A      2.429808   746A      2.440688  
     747A      2.444439   748A      2.447265   749A      2.458917  
     750A      2.468508   751A      2.470584   752A      2.473631  
     753A      2.493860   754A      2.496472   755A      2.511086  
     756A      2.517357   757A      2.521615   758A      2.534881  
     759A      2.539285   760A      2.540594   761A      2.549204  
     762A      2.569041   763A      2.578129   764A      2.583753  
     765A      2.588617   766A      2.601674   767A      2.615300  
     768A      2.625937   769A      2.635099   770A      2.649007  
     771A      2.654700   772A      2.664452   773A      2.674219  
     774A      2.680883   775A      2.705960   776A      2.711425  
     777A      2.721285   778A      2.724082   779A      2.740611  
     780A      2.746421   781A      2.749742   782A      2.768744  
     783A      2.775480   784A      2.781048   785A      2.782918  
     786A      2.801000   787A      2.808149   788A      2.813793  
     789A      2.826829   790A      2.829538   791A      2.831680  
     792A      2.840540   793A      2.852687   794A      2.857252  
     795A      2.862230   796A      2.865915   797A      2.870587  
     798A      2.882051   799A      2.884997   800A      2.890626  
     801A      2.895702   802A      2.898833   803A      2.907001  
     804A      2.920411   805A      2.921602   806A      2.935895  
     807A      2.945684   808A      2.953443   809A      2.958312  
     810A      2.963385   811A      2.974000   812A      2.974780  
     813A      2.982780   814A      2.985670   815A      2.992497  
     816A      2.997370   817A      3.008048   818A      3.010491  
     819A      3.011700   820A      3.016790   821A      3.031776  
     822A      3.032342   823A      3.043368   824A      3.049051  
     825A      3.052635   826A      3.058981   827A      3.061637  
     828A      3.067422   829A      3.071178   830A      3.073643  
     831A      3.076623   832A      3.085995   833A      3.092183  
     834A      3.096673   835A      3.101919   836A      3.108044  
     837A      3.111002   838A      3.115703   839A      3.121361  
     840A      3.126772   841A      3.130728   842A      3.135727  
     843A      3.140375   844A      3.140883   845A      3.155063  
     846A      3.157956   847A      3.166380   848A      3.171781  
     849A      3.179257   850A      3.182988   851A      3.196156  
     852A      3.201329   853A      3.203665   854A      3.210006  
     855A      3.213604   856A      3.224899   857A      3.232497  
     858A      3.242948   859A      3.252663   860A      3.257028  
     861A      3.266411   862A      3.275946   863A      3.280897  
     864A      3.282808   865A      3.286518   866A      3.293303  
     867A      3.296192   868A      3.300336   869A      3.304764  
     870A      3.311989   871A      3.312921   872A      3.320946  
     873A      3.323579   874A      3.327707   875A      3.332098  
     876A      3.346216   877A      3.348280   878A      3.351665  
     879A      3.357230   880A      3.358323   881A      3.362155  
     882A      3.366464   883A      3.383192   884A      3.390125  
     885A      3.393684   886A      3.397365   887A      3.401875  
     888A      3.417829   889A      3.428008   890A      3.433758  
     891A      3.448974   892A      3.452952   893A      3.463736  
     894A      3.497460   895A      3.531805   896A      3.534622  
     897A      3.577077   898A      3.594558   899A      3.601011  
     900A      3.602081   901A      3.607853   902A      3.634154  
     903A      3.638233   904A      3.642274   905A      3.659523  
     906A      3.669210   907A      3.677948   908A      3.685314  
     909A      3.730118   910A      3.761368   911A      3.764509  
     912A      3.772187   913A      3.782136   914A      3.798369  
     915A      3.807325   916A      3.815909   917A      3.837418  
     918A      3.849472   919A      3.870728   920A      3.884225  
     921A      3.898682   922A      3.915254   923A      3.918898  
     924A      3.936573   925A      3.954462   926A      3.965752  
     927A      3.972484   928A      3.974182   929A      3.986829  
     930A      3.997836   931A      4.004974   932A      4.013732  
     933A      4.031812   934A      4.062256   935A      4.072278  
     936A      4.090852   937A      4.101259   938A      4.113365  
     939A      4.119056   940A      4.133734   941A      4.142670  
     942A      4.148749   943A      4.186749   944A      4.192097  
     945A      4.195705   946A      4.203984   947A      4.204544  
     948A      4.213446   949A      4.251397   950A      4.352394  
     951A      4.356678   952A      4.360031   953A      4.376264  
     954A      4.399672   955A      4.426460   956A      4.428108  
     957A      4.432142   958A      4.441583   959A      4.446373  
     960A      4.465459   961A      4.471032   962A      4.492737  
     963A      4.526249   964A      4.542201   965A      4.552471  
     966A      4.581005   967A      4.590074   968A      4.604629  
     969A      4.614009   970A      4.674279   971A      4.716189  
     972A      4.763819   973A      4.770412   974A      4.790240  
     975A      4.910207   976A      4.943940   977A      5.003929  
     978A      5.046491   979A      5.242497   980A      5.261620  
     981A      5.268235   982A      5.280062   983A      5.283635  
     984A      5.338150   985A      5.348892   986A      5.383306  
     987A      5.405522   988A      5.603858   989A      5.689588  
     990A      5.705140   991A      5.796842   992A      5.844729  
     993A      5.865702   994A      6.393217   995A     24.770935  
     996A     24.821944   997A     24.846447   998A     24.862939  
     999A     24.885878  1000A     24.931386  1001A     24.942452  
    1002A     25.009292  1003A     25.015385  1004A     25.024455  
    1005A     25.038377  1006A     25.069339  1007A     25.074564  
    1008A     25.097437  1009A     25.101490  1010A     25.121171  
    1011A     25.125924  1012A     25.131033  1013A     25.137287  
    1014A     25.149750  1015A     25.171040  1016A     25.201012  
    1017A     25.210054  1018A     25.234037  1019A     25.244792  
    1020A     25.246845  1021A     25.247743  1022A     25.320944  
    1023A     25.322880  1024A     36.945636  1025A     36.984893  
    1026A     37.022718  1027A     37.068769  1028A     37.077960  
    1029A     37.141797  1030A     37.158334  1031A     51.761044  

    Final Occupation by Irrep:
              A 
    DOCC [   131 ]

  @DF-RHF Final Energy: -1572.33274051380681

   => Energetics <=

    Nuclear Repulsion Energy =           3759.4945881614726204
    One-Electron Energy =               -9617.0768295352900168
    Two-Electron Energy =                4285.2495008600099027
    Total Energy =                      -1572.3327405138070390

Computation Completed


Properties will be evaluated at   0.000000,   0.000000,   0.000000 [a0]

Properties computed using the SCF density matrix

  Nuclear Dipole Moment: [e a0]
     X:   -35.2205      Y:     5.4155      Z:    11.2935

  Electronic Dipole Moment: [e a0]
     X:    35.6713      Y:    -3.1299      Z:   -11.4166

  Dipole Moment: [e a0]
     X:     0.4508      Y:     2.2855      Z:    -0.1231     Total:     2.3328

  Dipole Moment: [D]
     X:     1.1458      Y:     5.8093      Z:    -0.3129     Total:     5.9294


*** tstop() called on node42.bme.utexas.edu at Tue Mar  3 18:41:15 2020
Module time:
	user time   =    3932.45 seconds =      65.54 minutes
	system time =     140.87 seconds =       2.35 minutes
	total time  =       2363 seconds =      39.38 minutes
Total time:
	user time   =    3932.45 seconds =      65.54 minutes
	system time =     140.87 seconds =       2.35 minutes
	total time  =       2363 seconds =      39.38 minutes

*** tstart() called on node42.bme.utexas.edu
*** at Tue Mar  3 18:41:15 2020


  //>>>>>>>>>>>>>>>>>>>>>>>>>>>>>>>>>>>//
  //               DFMP2               //
  //<<<<<<<<<<<<<<<<<<<<<<<<<<<<<<<<<<<//

   => Loading Basis Set <=

    Name: (6-311++G** AUX)
    Role: RIFIT
    Keyword: DF_BASIS_MP2
    atoms 1-4, 6-9, 11, 14-19, 21-28, 30-31, 33-35, 37 entry C          line   148 file /home/bdw2292/miniconda3/envs/p4env/share/psi4/basis/aug-cc-pvtz-ri.gbs 
    atoms 5, 10, 12-13, 20, 29, 32                     entry N          line   206 file /home/bdw2292/miniconda3/envs/p4env/share/psi4/basis/aug-cc-pvtz-ri.gbs 
    atoms 36                                           entry O          line   264 file /home/bdw2292/miniconda3/envs/p4env/share/psi4/basis/aug-cc-pvtz-ri.gbs 
    atoms 38-68                                        entry H          line    30 file /home/bdw2292/miniconda3/envs/p4env/share/psi4/basis/aug-cc-pvtz-ri.gbs 

	 --------------------------------------------------------
	                          DF-MP2                         
	      2nd-Order Density-Fitted Moller-Plesset Theory     
	              RMP2 Wavefunction,   6 Threads             
	                                                         
	        Rob Parrish, Justin Turney, Andy Simmonett,      
	           Ed Hohenstein, and C. David Sherrill          
	 --------------------------------------------------------

   => Auxiliary Basis Set <=

  Basis Set: (6-311++G** AUX)
    Blend: AUG-CC-PVTZ-RI
    Number of shells: 1470
    Number of basis function: 5348
    Number of Cartesian functions: 6737
    Spherical Harmonics?: true
    Max angular momentum: 4

	 --------------------------------------------------------
	                 NBF =  1031, NAUX =  5348
	 --------------------------------------------------------
	   CLASS    FOCC     OCC    AOCC    AVIR     VIR    FVIR
	   PAIRS      37     131      94     900     900       0
	 --------------------------------------------------------

	-----------------------------------------------------------
	 ==================> DF-MP2 Energies <==================== 
	-----------------------------------------------------------
	 Reference Energy          =   -1572.3327405138068116 [Eh]
	 Singles Energy            =      -0.0000000000000000 [Eh]
	 Same-Spin Energy          =      -1.4710796681514597 [Eh]
	 Opposite-Spin Energy      =      -4.0478632403651051 [Eh]
	 Correlation Energy        =      -5.5189429085165651 [Eh]
	 Total Energy              =   -1577.8516834223232763 [Eh]
	-----------------------------------------------------------
	 ================> DF-SCS-MP2 Energies <================== 
	-----------------------------------------------------------
	 SCS Same-Spin Scale       =       0.3333333333333333 [-]
	 SCS Opposite-Spin Scale   =       1.2000000000000000 [-]
	 SCS Same-Spin Energy      =      -0.4903598893838199 [Eh]
	 SCS Opposite-Spin Energy  =      -4.8574358884381263 [Eh]
	 SCS Correlation Energy    =      -5.3477957778219460 [Eh]
	 SCS Total Energy          =   -1577.6805362916288686 [Eh]
	-----------------------------------------------------------


*** tstop() called on node42.bme.utexas.edu at Tue Mar  3 18:49:19 2020
Module time:
	user time   =    2592.65 seconds =      43.21 minutes
	system time =      21.05 seconds =       0.35 minutes
	total time  =        484 seconds =       8.07 minutes
Total time:
	user time   =    6525.10 seconds =     108.75 minutes
	system time =     161.92 seconds =       2.70 minutes
	total time  =       2847 seconds =      47.45 minutes


Properties will be evaluated at   0.000000,   0.000000,   0.000000 [a0]
OEProp: No title given, name of density matrix used for the following properties is 'SCF density'


  Wiberg Bond Indices using Orthogonal Lowdin Orbitals:

  Irrep: 1 Size: 68 x 68

                 1                   2                   3                   4                   5

    1     0.00000000000000     1.46248059208892     0.12523393147585     0.14053267662357     0.12388984568110
    2     1.46248059208892     0.00000000000000     1.40365810147826     0.12861032664277     0.12097247859495
    3     0.12523393147585     1.40365810147826     0.00000000000000     1.35895984982034     0.11847501043590
    4     0.14053267662357     0.12861032664277     1.35895984982034     0.00000000000000     1.66071869875882
    5     0.12388984568110     0.12097247859495     0.11847501043590     1.66071869875882     0.00000000000000
    6     1.46729462167096     0.13801505118301     0.13586210798917     0.15387264275532     1.62593940971978
    7     0.01457952517665     0.10308294666602     1.02005986857397     0.10344115863569     0.01386464684469
    8     0.00342043417775     0.04029748705012     0.09700412827721     0.02341709997793     0.00212157680823
    9     0.00035310064415     0.00449676298116     0.01465711774363     0.00404276892115     0.00067957598362
   10     0.00040816653514     0.00532912952788     0.00572726557828     0.00598946102713     0.00031126581902
   11     0.00091097391753     0.00343187041036     0.01834706495966     0.00734363928969     0.00046115925032
   12     0.00286569994447     0.02270077946642     0.12203334384138     0.06568187583899     0.00439325935490
   13     0.00016879511939     0.00052644201878     0.00172883483109     0.00098499508788     0.00008870558842
   14     0.00003759265308     0.00012124328994     0.00077877997691     0.00219446602347     0.00015193346336
   15     0.00001165890369     0.00002625183080     0.00010112891184     0.00018597140948     0.00001925961442
   16     0.00000352946261     0.00000962529496     0.00008729866473     0.00046182457697     0.00002785831027
   17     0.00001275929090     0.00001984232460     0.00008582695618     0.00028899749306     0.00009004224830
   18     0.00004016182144     0.00007872862537     0.00040584002656     0.00314446072005     0.00024813579687
   19     0.00017190091314     0.00025504977044     0.00215733437906     0.01085911412594     0.00064019011599
   20     0.00006811040070     0.00008063358641     0.00036478796277     0.00361785370027     0.00075158454500
   21     0.00002248949142     0.00002140787429     0.00006635603556     0.00049806709875     0.00030210653303
   22     0.00006135749310     0.00004054628320     0.00006542910930     0.00062352071014     0.00181741814257
   23     0.00054410972530     0.00043139863207     0.00050068555929     0.00722415788941     0.02519988304519
   24     0.00016540461361     0.00026224386417     0.00026903575487     0.00100124656291     0.00710447420987
   25     0.00001799628442     0.00001073809827     0.00001468838695     0.00010025994525     0.00032971884023
   26     0.00000861740255     0.00000387396696     0.00000926919516     0.00011338676259     0.00030839403787
   27     0.00000936137982     0.00000573801513     0.00001311988873     0.00015187476464     0.00042418870559
   28     0.00000363926397     0.00000178733086     0.00000233135034     0.00001728805031     0.00004639936278
   29     0.00000257224548     0.00000142369620     0.00000153497415     0.00000481480428     0.00001263421277
   30     0.00001397926504     0.00000800383771     0.00001322848288     0.00002197791140     0.00003539727656
   31     0.00002969680686     0.00004423270034     0.00005151030975     0.00003370302361     0.00010625422320
   32     0.00000633346441     0.00000310787864     0.00000477750901     0.00001451688857     0.00001004918811
   33     0.00000143170758     0.00000056480412     0.00000076657818     0.00000156469679     0.00000208164642
   34     0.00000248603160     0.00000143826257     0.00000127732526     0.00000580442995     0.00001305073192
   35     0.00000163378115     0.00000062742586     0.00000065829778     0.00000296908670     0.00000604075317
   36     0.00000349479676     0.00000283935957     0.00001210842852     0.00015681142861     0.00007656365932
   37     0.00000276117541     0.00000696029505     0.00002799635110     0.00003924297279     0.00000333788979
   38     0.88638122139738     0.07922129334114     0.01180409371619     0.00636537262348     0.01066678372901
   39     0.07754260614399     0.87092253801375     0.07300790310473     0.01174500404753     0.00391641584469
   40     0.00559751126397     0.01048726702582     0.06908910327117     0.84734589399717     0.08575987488824
   41     0.07737375850656     0.01185952287081     0.00609662170200     0.01596388156247     0.08761706875753
   42     0.00101292598899     0.01350922671976     0.01402321320889     0.00132397850851     0.00027856263045
   43     0.00004395421238     0.00027652870054     0.00144550319918     0.00031527258378     0.00007718723113
   44     0.00002604445925     0.00008812259141     0.00037441876204     0.00011051473023     0.00000849820914
   45     0.00000038071398     0.00000130986790     0.00000726569984     0.00001915789839     0.00000178710043
   46     0.00000082559398     0.00000174863830     0.00000606390645     0.00001810925406     0.00000776299458
   47     0.00011396406343     0.00013726572613     0.00131089064728     0.00534565161822     0.00031764618155
   48     0.00008524228831     0.00004082787168     0.00013393646952     0.00163459001102     0.00051479650877
   49     0.00054953087375     0.00027209251217     0.00043979279593     0.00635507302979     0.01870836337986
   50     0.00008324942555     0.00009839444853     0.00014362423678     0.00019295036792     0.00161679308568
   51     0.00000086312295     0.00000069692938     0.00000193726018     0.00001413294723     0.00002330423564
   52     0.00000182366007     0.00000136368377     0.00000161506373     0.00001171746626     0.00004231094746
   53     0.00000234053336     0.00000089296012     0.00000097114558     0.00000313923650     0.00001103791715
   54     0.00000047507011     0.00000012828074     0.00000038133101     0.00000656059590     0.00000782161937
   55     0.00000920963277     0.00000398206905     0.00001140838226     0.00000727907050     0.00001852744057
   56     0.00000081639014     0.00000020521733     0.00000049020542     0.00000818219260     0.00000453306109
   57     0.00000785370768     0.00000906696817     0.00001455175077     0.00000731545972     0.00001229456928
   58     0.00000769025749     0.00001687553820     0.00001131619892     0.00002713583843     0.00011697385032
   59     0.00000035813169     0.00000014488091     0.00000016461760     0.00000028341541     0.00000042191125
   60     0.00000018787821     0.00000011329683     0.00000019720030     0.00000012255136     0.00000024006253
   61     0.00000014396300     0.00000006437727     0.00000006253887     0.00000006272832     0.00000038466764
   62     0.00000010313313     0.00000006615886     0.00000008312925     0.00000049525520     0.00000112013263
   63     0.00000130379173     0.00000083713103     0.00000101048155     0.00000511985243     0.00001699583680
   64     0.00000076388880     0.00000022593313     0.00000013393758     0.00000101077705     0.00000155071509
   65     0.00000021827497     0.00000007947356     0.00000011146567     0.00000091417918     0.00000125674209
   66     0.00000067417781     0.00000153327630     0.00000781155749     0.00000881394365     0.00000087399402
   67     0.00000126474124     0.00000376279516     0.00000905119395     0.00000803792331     0.00000111319514
   68     0.00000041557262     0.00000057991171     0.00000305777585     0.00000768795384     0.00000045092445

                 6                   7                   8                   9                  10

    1     1.46729462167096     0.01457952517665     0.00342043417775     0.00035310064415     0.00040816653514
    2     0.13801505118301     0.10308294666602     0.04029748705012     0.00449676298116     0.00532912952788
    3     0.13586210798917     1.02005986857397     0.09700412827721     0.01465711774363     0.00572726557828
    4     0.15387264275532     0.10344115863569     0.02341709997793     0.00404276892115     0.00598946102713
    5     1.62593940971978     0.01386464684469     0.00212157680823     0.00067957598362     0.00031126581902
    6     0.00000000000000     0.00970820656193     0.00668938317595     0.00115424914461     0.00332608021816
    7     0.00970820656193     0.00000000000000     1.38514261004580     0.14690897083889     0.11096740966080
    8     0.00668938317595     1.38514261004580     0.00000000000000     1.43500270976256     0.13071149558905
    9     0.00115424914461     0.14690897083889     1.43500270976256     0.00000000000000     1.65898544001475
   10     0.00332608021816     0.11096740966080     0.13071149558905     1.65898544001475     0.00000000000000
   11     0.00089438792561     0.14187996870538     0.11284037937975     0.15421165002724     1.51149912024479
   12     0.00623465843079     1.53598876726709     0.12687455129249     0.11184973315161     0.10978893090180
   13     0.00009405610857     0.02038801156096     0.02127051737049     0.02338038411849     0.15687135261212
   14     0.00006270117631     0.00387942331215     0.00254814756113     0.00316292095083     0.01653654541359
   15     0.00000755545247     0.00059748711522     0.00128096341621     0.00088175524242     0.00295135019023
   16     0.00000660172200     0.00022076338527     0.00016921122936     0.00012814641205     0.00042765968083
   17     0.00001257942992     0.00025654454777     0.00087674363124     0.00032211465895     0.00095797706292
   18     0.00006084834296     0.00063615502146     0.00026117815403     0.00016145231597     0.00043162855134
   19     0.00019475907722     0.00585411407556     0.00243894870028     0.00151051231467     0.00422149875195
   20     0.00008789678628     0.00012841452914     0.00003499523887     0.00001804923517     0.00005798126458
   21     0.00004280798803     0.00002184799601     0.00001005957674     0.00000526278187     0.00001704500325
   22     0.00021006959124     0.00000902739350     0.00000309505472     0.00000146276239     0.00000289893454
   23     0.00271646692878     0.00007277724179     0.00001774980383     0.00000418474883     0.00000443557182
   24     0.00196177234345     0.00002516536014     0.00001702197277     0.00000303373338     0.00000434750509
   25     0.00020468580785     0.00000220347788     0.00000125058966     0.00000028154754     0.00000049016324
   26     0.00011437762844     0.00000161200636     0.00000040041076     0.00000016714090     0.00000036634338
   27     0.00011326560335     0.00000290957510     0.00000091123509     0.00000038636900     0.00000105729848
   28     0.00004411108857     0.00000052675984     0.00000017725162     0.00000004141922     0.00000010122102
   29     0.00001160534270     0.00000019208587     0.00000013278129     0.00000002065614     0.00000003510060
   30     0.00003930675225     0.00000081098973     0.00000106103486     0.00000017846421     0.00000042695231
   31     0.00006302710381     0.00000433024627     0.00000202896333     0.00000046300217     0.00000075192121
   32     0.00001677601298     0.00000056493890     0.00000014611339     0.00000002614168     0.00000003569584
   33     0.00000411070413     0.00000015590723     0.00000005036248     0.00000001107421     0.00000001153813
   34     0.00001010580004     0.00000020583412     0.00000007986944     0.00000002364136     0.00000002968208
   35     0.00000871138095     0.00000012280339     0.00000009225850     0.00000001403810     0.00000002975188
   36     0.00000872200491     0.00001149585936     0.00000833318111     0.00000311589519     0.00000958845180
   37     0.00000277380313     0.00016156909691     0.00020062418967     0.00014623284776     0.00082522615591
   38     0.08251120235505     0.00129190569943     0.00024086412643     0.00003925663776     0.00002577424824
   39     0.01170070157339     0.01616028758030     0.01420362944870     0.00108216510424     0.00038130216364
   40     0.01466990359495     0.01580699605333     0.00169982466821     0.00040901682063     0.00067030681021
   41     0.87908142710231     0.00054347820893     0.00026314834738     0.00005114740307     0.00010471976431
   42     0.00046801469406     0.07604130689737     0.87707069190516     0.08027607899603     0.01038900435124
   43     0.00004328858278     0.01181632328427     0.07614957834332     0.87598463863000     0.08881312671920
   44     0.00001367593585     0.00217508134991     0.00205292837346     0.00335041196473     0.02855423695399
   45     0.00000042381410     0.00001955497878     0.00001649995165     0.00002436230812     0.00006299721108
   46     0.00000112107237     0.00001882651346     0.00003097009563     0.00001415425817     0.00004114869404
   47     0.00011435610389     0.00306158537570     0.00058987227329     0.00053479861797     0.00065976301898
   48     0.00006974522803     0.00006555104558     0.00002074421762     0.00001097288065     0.00001733804151
   49     0.00220660599759     0.00006142070688     0.00001710092928     0.00000420432923     0.00000280172639
   50     0.00129739526211     0.00000947818858     0.00000908689368     0.00000158390883     0.00000367358507
   51     0.00000588178633     0.00000018410810     0.00000010484009     0.00000001982348     0.00000005284905
   52     0.00001201473066     0.00000044925853     0.00000013603325     0.00000005667386     0.00000011763681
   53     0.00001837088220     0.00000019315241     0.00000006805046     0.00000000859627     0.00000003692208
   54     0.00000335786299     0.00000005942047     0.00000001022578     0.00000000357540     0.00000000891208
   55     0.00002970753464     0.00000055771509     0.00000124100034     0.00000016544605     0.00000059259319
   56     0.00000635996769     0.00000003619214     0.00000000883891     0.00000000772004     0.00000000832208
   57     0.00001184311458     0.00000132204601     0.00000024285215     0.00000004173549     0.00000005972065
   58     0.00004739002094     0.00000400472572     0.00000061167523     0.00000008294286     0.00000011133471
   59     0.00000214484171     0.00000002460674     0.00000001265058     0.00000000392629     0.00000000246525
   60     0.00000030314133     0.00000008167579     0.00000002668088     0.00000000351186     0.00000000412341
   61     0.00000022200587     0.00000000813282     0.00000000590124     0.00000000129523     0.00000000127076
   62     0.00000063617315     0.00000002640219     0.00000001744162     0.00000000214545     0.00000000364228
   63     0.00000859307023     0.00000018902182     0.00000011837176     0.00000001621296     0.00000005531832
   64     0.00000713534359     0.00000003067746     0.00000006526428     0.00000000325507     0.00000000416235
   65     0.00000093947070     0.00000002336839     0.00000000559151     0.00000000290970     0.00000000504708
   66     0.00000045636634     0.00003828388454     0.00005919076334     0.00004034398922     0.00018105305686
   67     0.00000189622157     0.00006367451270     0.00013254571601     0.00004714583165     0.00046334483795
   68     0.00000020160031     0.00001385244120     0.00002516758715     0.00000739161024     0.00005640096999

                11                  12                  13                  14                  15

    1     0.00091097391753     0.00286569994447     0.00016879511939     0.00003759265308     0.00001165890369
    2     0.00343187041036     0.02270077946642     0.00052644201878     0.00012124328994     0.00002625183080
    3     0.01834706495966     0.12203334384138     0.00172883483109     0.00077877997691     0.00010112891184
    4     0.00734363928969     0.06568187583899     0.00098499508788     0.00219446602347     0.00018597140948
    5     0.00046115925032     0.00439325935490     0.00008870558842     0.00015193346336     0.00001925961442
    6     0.00089438792561     0.00623465843079     0.00009405610857     0.00006270117631     0.00000755545247
    7     0.14187996870538     1.53598876726709     0.02038801156096     0.00387942331215     0.00059748711522
    8     0.11284037937975     0.12687455129249     0.02127051737049     0.00254814756113     0.00128096341621
    9     0.15421165002724     0.11184973315161     0.02338038411849     0.00316292095083     0.00088175524242
   10     1.51149912024479     0.10978893090180     0.15687135261212     0.01653654541359     0.00295135019023
   11     0.00000000000000     1.53006078567720     1.27619597496753     0.08514015902421     0.01876668470689
   12     1.53006078567720     0.00000000000000     0.14576444041354     0.03681336315034     0.00524806151091
   13     1.27619597496753     0.14576444041354     0.00000000000000     1.11983364138693     0.10679412700470
   14     0.08514015902421     0.03681336315034     1.11983364138693     0.00000000000000     1.32681687110107
   15     0.01876668470689     0.00524806151091     0.10679412700470     1.32681687110107     0.00000000000000
   16     0.00232322860081     0.00157601442812     0.01394460052154     0.12687939264231     1.43524238194042
   17     0.00397012351232     0.00214006360219     0.01052578176960     0.12196611766182     0.12391370898583
   18     0.00278123843006     0.00575105150936     0.01333617204379     0.12353387401657     0.11989448895230
   19     0.02999096312559     0.04952580065986     0.11222456436039     1.40315136437325     0.11989092494401
   20     0.00037606303842     0.00094051859926     0.00135774010645     0.01529796856420     0.01147263735457
   21     0.00007492911907     0.00014992087204     0.00031667899714     0.00282996143773     0.00575376358288
   22     0.00001398727969     0.00002807190585     0.00005550393894     0.00035992837397     0.00033061393574
   23     0.00001618811859     0.00011456453161     0.00001265062343     0.00012002364580     0.00035744898336
   24     0.00000229168974     0.00001269031778     0.00000255850829     0.00001298911929     0.00003563692888
   25     0.00000092522938     0.00000267240038     0.00000197484485     0.00002297959819     0.00014499273153
   26     0.00000078004499     0.00000147792272     0.00000224662415     0.00001761858046     0.00003174521481
   27     0.00000398853740     0.00000593649781     0.00001404840869     0.00009816159470     0.00029731481657
   28     0.00000016524176     0.00000042392801     0.00000018284761     0.00000212812384     0.00001027997105
   29     0.00000006406165     0.00000020302801     0.00000011648240     0.00000149366305     0.00000794048188
   30     0.00000011797930     0.00000089501189     0.00000010569023     0.00000035192968     0.00000124949937
   31     0.00000030696688     0.00000177557644     0.00000011790805     0.00000056076382     0.00000050493632
   32     0.00000014275561     0.00000052846930     0.00000006495918     0.00000035790708     0.00000031795449
   33     0.00000003862487     0.00000011549168     0.00000002005298     0.00000015048876     0.00000013102357
   34     0.00000008340629     0.00000022541291     0.00000005609667     0.00000081324249     0.00000074559689
   35     0.00000003587078     0.00000008914655     0.00000004557952     0.00000039812214     0.00000105037981
   36     0.00003992585562     0.00006213924145     0.00013334016231     0.00102869294745     0.00339564624999
   37     0.00522863650602     0.00090780589664     0.03948646379228     0.09727319059842     1.05997733946206
   38     0.00009205086574     0.00031875520541     0.00001693097332     0.00000930864731     0.00000146260241
   39     0.00028517160748     0.00110328124404     0.00006737258714     0.00002783095038     0.00000459900630
   40     0.00307052237413     0.02825364965050     0.00048160267766     0.00175302342640     0.00021683247552
   41     0.00004501017782     0.00026692822406     0.00000592315803     0.00000516790993     0.00000077444164
   42     0.00575986536517     0.01082708660729     0.00106708978246     0.00013932277308     0.00005857636946
   43     0.01580641058270     0.00401778793604     0.00131664364879     0.00038471298361     0.00006537069117
   44     0.07289194426350     0.01222554477195     0.93526218402906     0.05953896566023     0.01465824514608
   45     0.00036190753901     0.00008368758183     0.00117430311560     0.01143378293269     0.07504388419482
   46     0.00014570796183     0.00011325587448     0.00044692252927     0.00530628944764     0.01048670111223
   47     0.00918020589283     0.02432627126034     0.01698672568876     0.07283863305995     0.00974605796441
   48     0.00012146813923     0.00046063851877     0.00019035350982     0.00212425808051     0.00113905376243
   49     0.00001079745859     0.00006285544934     0.00000653071542     0.00004119696587     0.00012351338657
   50     0.00000078465292     0.00000413021241     0.00000053234602     0.00000130110122     0.00000154327394
   51     0.00000008183095     0.00000014785877     0.00000049430305     0.00000277504661     0.00000337767472
   52     0.00000073260794     0.00000049832121     0.00000222469676     0.00001633597098     0.00001906703439
   53     0.00000002913009     0.00000015051983     0.00000007455765     0.00000036494219     0.00000145159697
   54     0.00000002548938     0.00000002083595     0.00000003794956     0.00000032054673     0.00000153464139
   55     0.00000006985034     0.00000045597133     0.00000003411580     0.00000006132134     0.00000014156680
   56     0.00000001192857     0.00000016225231     0.00000001000699     0.00000005035816     0.00000035073635
   57     0.00000009402187     0.00000053241810     0.00000003228550     0.00000008282808     0.00000012931283
   58     0.00000029853161     0.00000133613442     0.00000021031792     0.00000052373520     0.00000085555251
   59     0.00000000708884     0.00000001012140     0.00000000620033     0.00000004102702     0.00000003064195
   60     0.00000000892573     0.00000003227161     0.00000000428860     0.00000000799034     0.00000000994439
   61     0.00000000303150     0.00000000830394     0.00000000231364     0.00000001715444     0.00000001000344
   62     0.00000000524587     0.00000002156339     0.00000000610309     0.00000004588720     0.00000009067362
   63     0.00000004651728     0.00000023056767     0.00000008444712     0.00000085214253     0.00000255115051
   64     0.00000000998913     0.00000002251136     0.00000000748471     0.00000011753509     0.00000043725939
   65     0.00000000553564     0.00000001634034     0.00000001466288     0.00000007622676     0.00000007513741
   66     0.00069302640281     0.00022666246389     0.00691675765188     0.01648773564331     0.05879888754081
   67     0.00202676150183     0.00042168765784     0.01325052088474     0.01726515664203     0.05812913369605
   68     0.00030534771725     0.00008228599583     0.00203877644498     0.00922088707052     0.05964984104580

                16                  17                  18                  19                  20

    1     0.00000352946261     0.00001275929090     0.00004016182144     0.00017190091314     0.00006811040070
    2     0.00000962529496     0.00001984232460     0.00007872862537     0.00025504977044     0.00008063358641
    3     0.00008729866473     0.00008582695618     0.00040584002656     0.00215733437906     0.00036478796277
    4     0.00046182457697     0.00028899749306     0.00314446072005     0.01085911412594     0.00361785370027
    5     0.00002785831027     0.00009004224830     0.00024813579687     0.00064019011599     0.00075158454500
    6     0.00000660172200     0.00001257942992     0.00006084834296     0.00019475907722     0.00008789678628
    7     0.00022076338527     0.00025654454777     0.00063615502146     0.00585411407556     0.00012841452914
    8     0.00016921122936     0.00087674363124     0.00026117815403     0.00243894870028     0.00003499523887
    9     0.00012814641205     0.00032211465895     0.00016145231597     0.00151051231467     0.00001804923517
   10     0.00042765968083     0.00095797706292     0.00043162855134     0.00422149875195     0.00005798126458
   11     0.00232322860081     0.00397012351232     0.00278123843006     0.02999096312559     0.00037606303842
   12     0.00157601442812     0.00214006360219     0.00575105150936     0.04952580065986     0.00094051859926
   13     0.01394460052154     0.01052578176960     0.01333617204379     0.11222456436039     0.00135774010645
   14     0.12687939264231     0.12196611766182     0.12353387401657     1.40315136437325     0.01529796856420
   15     1.43524238194042     0.12391370898583     0.11989448895230     0.11989092494401     0.01147263735457
   16     0.00000000000000     1.44880457258654     0.13282472076513     0.12689134965091     0.01357285427782
   17     1.44880457258654     0.00000000000000     1.39557914197237     0.12154372789914     0.10489426424319
   18     0.13282472076513     1.39557914197237     0.00000000000000     1.36420781062858     1.12760984007390
   19     0.12689134965091     0.12154372789914     1.36420781062858     0.00000000000000     0.12531772329286
   20     0.01357285427782     0.10489426424319     1.12760984007390     0.12531772329286     0.00000000000000
   21     0.00281186448212     0.03142426755130     0.08680301707235     0.02286318928412     1.31318164865009
   22     0.00035314895824     0.00332056269242     0.01457311923071     0.00212231120235     0.10479703570403
   23     0.00014102734099     0.00119371244952     0.00404418755880     0.00130307838848     0.04271006456100
   24     0.00002151607427     0.00016188382169     0.00041996616342     0.00013241807923     0.00372125478276
   25     0.00002531046922     0.00024470800401     0.00045503797642     0.00021788895064     0.00340860247132
   26     0.00002167576847     0.00013714850118     0.00049225444665     0.00010582912025     0.00248935566999
   27     0.00010053295115     0.00087488324672     0.00232307743393     0.00066174742631     0.01776157108942
   28     0.00000248247802     0.00002108656180     0.00004150985827     0.00001795931267     0.00026417190207
   29     0.00000144549684     0.00001193533314     0.00002319605557     0.00001111247352     0.00016107150791
   30     0.00000035491942     0.00000256528883     0.00000498012577     0.00000277273894     0.00002966036505
   31     0.00000037373989     0.00000261453998     0.00000487140248     0.00000456351455     0.00003611966560
   32     0.00000012349787     0.00000116573607     0.00000262798876     0.00000103743577     0.00001073344767
   33     0.00000006275800     0.00000040694148     0.00000071353495     0.00000044501501     0.00000204376255
   34     0.00000046366569     0.00000282250943     0.00000615062527     0.00000284445100     0.00003443430122
   35     0.00000052317773     0.00000329689501     0.00000667821101     0.00000191655078     0.00003622359777
   36     0.00353913265622     0.04939196052829     0.03196586987712     0.00527893948373     0.19214041754942
   37     0.11447447881606     0.01434865528444     0.00727126325975     0.01392591897337     0.00072043888839
   38     0.00000065678337     0.00000132315401     0.00000749555779     0.00002272974978     0.00000563421006
   39     0.00000343262445     0.00000199314246     0.00000784665230     0.00003452413057     0.00000757409005
   40     0.00044879476463     0.00030160048636     0.00270342131576     0.00867556912971     0.00233627060196
   41     0.00000105085080     0.00000105775580     0.00000362155153     0.00001233965354     0.00000785424515
   42     0.00001690840210     0.00003499018454     0.00002854759230     0.00015866660215     0.00000584994483
   43     0.00001585648069     0.00001590313074     0.00001725241599     0.00012360044854     0.00000190342662
   44     0.00141511178932     0.00163417929789     0.00133341011243     0.01170534225945     0.00022477394447
   45     0.87184366268416     0.07914805181868     0.01176550029107     0.00561623320345     0.00102764828310
   46     0.07703521745617     0.85943735699163     0.07527450777370     0.01117966996439     0.01456296408348
   47     0.00561632109105     0.01033285943585     0.07080180385190     0.84170048627227     0.02403220456559
   48     0.00138009715466     0.01018756353766     0.06264526532570     0.02204215278959     0.93564004154655
   49     0.00004946783771     0.00037580323323     0.00153282097909     0.00064960589197     0.01527843255986
   50     0.00000213017377     0.00001336083360     0.00003227397385     0.00000986553121     0.00020950622527
   51     0.00000287907196     0.00001856661809     0.00006421541567     0.00001766356662     0.00028456356683
   52     0.00002687116726     0.00016478020889     0.00024841906561     0.00007147079682     0.00162684729712
   53     0.00000050897717     0.00000385055117     0.00000809986196     0.00000287069001     0.00003736778566
   54     0.00000042690766     0.00000373471833     0.00000766443125     0.00000301806344     0.00004704953701
   55     0.00000006350666     0.00000031023409     0.00000080458569     0.00000029202553     0.00000429190566
   56     0.00000008965246     0.00000053603272     0.00000092105665     0.00000061529272     0.00000663325435
   57     0.00000004427631     0.00000028278512     0.00000025729619     0.00000039196297     0.00000224233102
   58     0.00000055324719     0.00000487017533     0.00000686204722     0.00000555815070     0.00003156194601
   59     0.00000001722095     0.00000007239651     0.00000015772599     0.00000009539621     0.00000041751728
   60     0.00000000645414     0.00000002858764     0.00000007986672     0.00000006992260     0.00000030534034
   61     0.00000000956648     0.00000004675338     0.00000009065524     0.00000004586652     0.00000029830481
   62     0.00000003463104     0.00000021569487     0.00000030283622     0.00000021691107     0.00000211795985
   63     0.00000086777214     0.00000685458697     0.00001010468281     0.00000641552278     0.00005664056309
   64     0.00000015392600     0.00000092178516     0.00000077088221     0.00000082244452     0.00000767551407
   65     0.00000010329687     0.00000053268261     0.00000174870934     0.00000038258523     0.00000865064479
   66     0.01627072196315     0.00125236561090     0.00340366130058     0.00122753277081     0.00043122916845
   67     0.01352449248508     0.00125028765600     0.00221940275661     0.00134446935634     0.00026507023433
   68     0.02330169619369     0.00186286022208     0.00066344147678     0.00109956894693     0.00009684828508

                21                  22                  23                  24                  25

    1     0.00002248949142     0.00006135749310     0.00054410972530     0.00016540461361     0.00001799628442
    2     0.00002140787429     0.00004054628320     0.00043139863207     0.00026224386417     0.00001073809827
    3     0.00006635603556     0.00006542910930     0.00050068555929     0.00026903575487     0.00001468838695
    4     0.00049806709875     0.00062352071014     0.00722415788941     0.00100124656291     0.00010025994525
    5     0.00030210653303     0.00181741814257     0.02519988304519     0.00710447420987     0.00032971884023
    6     0.00004280798803     0.00021006959124     0.00271646692878     0.00196177234345     0.00020468580785
    7     0.00002184799601     0.00000902739350     0.00007277724179     0.00002516536014     0.00000220347788
    8     0.00001005957674     0.00000309505472     0.00001774980383     0.00001702197277     0.00000125058966
    9     0.00000526278187     0.00000146276239     0.00000418474883     0.00000303373338     0.00000028154754
   10     0.00001704500325     0.00000289893454     0.00000443557182     0.00000434750509     0.00000049016324
   11     0.00007492911907     0.00001398727969     0.00001618811859     0.00000229168974     0.00000092522938
   12     0.00014992087204     0.00002807190585     0.00011456453161     0.00001269031778     0.00000267240038
   13     0.00031667899714     0.00005550393894     0.00001265062343     0.00000255850829     0.00000197484485
   14     0.00282996143773     0.00035992837397     0.00012002364580     0.00001298911929     0.00002297959819
   15     0.00575376358288     0.00033061393574     0.00035744898336     0.00003563692888     0.00014499273153
   16     0.00281186448212     0.00035314895824     0.00014102734099     0.00002151607427     0.00002531046922
   17     0.03142426755130     0.00332056269242     0.00119371244952     0.00016188382169     0.00024470800401
   18     0.08680301707235     0.01457311923071     0.00404418755880     0.00041996616342     0.00045503797642
   19     0.02286318928412     0.00212231120235     0.00130307838848     0.00013241807923     0.00021788895064
   20     1.31318164865009     0.10479703570403     0.04271006456100     0.00372125478276     0.00340860247132
   21     0.00000000000000     0.97272953169355     0.10549077167619     0.01455495697826     0.01115573147988
   22     0.97272953169355     0.00000000000000     1.39842770362453     0.12751987067899     0.12395736220899
   23     0.10549077167619     1.39842770362453     0.00000000000000     1.45608244858807     0.12656474988543
   24     0.01455495697826     0.12751987067899     1.45608244858807     0.00000000000000     1.40149441659151
   25     0.01115573147988     0.12395736220899     0.12656474988543     1.40149441659151     0.00000000000000
   26     0.01473608719957     0.12701226100432     0.13010433488801     0.12554435245120     1.39630939459906
   27     0.11058027246245     1.38645979058740     0.12423751189724     0.13119949802845     0.12671400991903
   28     0.00073964203150     0.00918893925143     0.01465308647150     0.10837037782284     1.01682507658569
   29     0.00039533337230     0.00444625256855     0.00214051559209     0.02285704183708     0.08790287775584
   30     0.00008414528331     0.00092564891361     0.00186858749221     0.01514657770286     0.01917281203967
   31     0.00006818018137     0.00110145070119     0.00784534797695     0.02307217554321     0.01453247756791
   32     0.00007639950314     0.00069504094072     0.00090964106746     0.00278976569970     0.00384709025569
   33     0.00000966028423     0.00012000522274     0.00021073592120     0.00064372741071     0.00102030845493
   34     0.00016287168978     0.00318672385189     0.00310539831683     0.00893738910136     0.02314506955730
   35     0.00012072473160     0.00118716722048     0.00118021831586     0.00555044112768     0.02306722265744
   36     2.17751052758156     0.13703681516980     0.02535855487211     0.00308952566076     0.00616626844685
[...]
   15     0.00000035073635     0.00000012931283     0.00000085555251     0.00000003064195     0.00000000994439
   16     0.00000008965246     0.00000004427631     0.00000055324719     0.00000001722095     0.00000000645414
   17     0.00000053603272     0.00000028278512     0.00000487017533     0.00000007239651     0.00000002858764
   18     0.00000092105665     0.00000025729619     0.00000686204722     0.00000015772599     0.00000007986672
   19     0.00000061529272     0.00000039196297     0.00000555815070     0.00000009539621     0.00000006992260
   20     0.00000663325435     0.00000224233102     0.00003156194601     0.00000041751728     0.00000030534034
   21     0.00002450107894     0.00000530132660     0.00005241978352     0.00000193824346     0.00000069657835
   22     0.00022174301299     0.00008304481759     0.00090534914246     0.00001320877767     0.00001063977287
   23     0.00029822479961     0.00021544412959     0.00637281460205     0.00002322104728     0.00002419108182
   24     0.00074449200516     0.00074394511496     0.01762850705319     0.00008258730904     0.00007668413123
   25     0.00147794940518     0.00051792172988     0.00792433080837     0.00017301363666     0.00009291130243
   26     0.00049056372719     0.00014558242546     0.00182256536801     0.00008228651381     0.00003627781057
   27     0.00013175469787     0.00010850578364     0.00163879419349     0.00002493774799     0.00002441748326
   28     0.01258823062173     0.00099192250563     0.00491052078628     0.00069642430619     0.00012184389931
   29     0.06636708244696     0.01376145080485     0.01216688624130     0.00329672055534     0.00074714108911
   30     0.77384721020219     0.05949184817360     0.05073491736911     0.01323795789299     0.00417042400261
   31     0.05274855714578     0.81495419624267     0.86198211186562     0.01636947036443     0.02197298462826
   32     0.01455008679255     0.05062919720214     0.06224406266808     0.06758942651042     0.06250198093327
   33     0.01648715494881     0.02533300676801     0.01083535461477     0.91104961454796     0.91988772037588
   34     0.00829301811244     0.01562397468593     0.01884388845962     0.01612478274373     0.01239496285543
   35     0.02350518531380     0.00177400312480     0.00697640023172     0.01247840541229     0.00173734564989
   36     0.00001595782911     0.00000405926681     0.00003049921449     0.00000100010940     0.00000045358208
   37     0.00000002116936     0.00000001263013     0.00000014027046     0.00000000265755     0.00000000145175
   38     0.00000029285271     0.00000537424154     0.00000232244010     0.00000008291505     0.00000002990433
   39     0.00000001273519     0.00000087961754     0.00000069974996     0.00000000991808     0.00000001414649
   40     0.00000105003774     0.00000161532684     0.00000622126665     0.00000002020679     0.00000001811964
   41     0.00000193901388     0.00000268106490     0.00000481664649     0.00000054822050     0.00000007273371
   42     0.00000000093801     0.00000005452694     0.00000011283555     0.00000000051370     0.00000000233140
   43     0.00000000041439     0.00000000195679     0.00000000795554     0.00000000021136     0.00000000018706
   44     0.00000000166286     0.00000000485319     0.00000001515738     0.00000000033356     0.00000000044535
   45     0.00000000803151     0.00000000144791     0.00000007838644     0.00000000156664     0.00000000034511
   46     0.00000004840203     0.00000004392071     0.00000164607617     0.00000000800051     0.00000000501748
   47     0.00000033464355     0.00000095516007     0.00000325774732     0.00000011640318     0.00000026869858
   48     0.00001674190053     0.00000648193108     0.00001615492834     0.00000051422505     0.00000035441862
   49     0.00004587627247     0.00002070767594     0.00050480776574     0.00000191913240     0.00000174879301
   50     0.00011521288366     0.00029562382711     0.00427873666259     0.00004270233143     0.00002298752661
   51     0.00012319129279     0.00001669222837     0.00009748111679     0.00002915487559     0.00000503042348
   52     0.00001378461856     0.00000363281780     0.00004636008138     0.00000255479965     0.00000140117426
   53     0.00125189136856     0.00007916593181     0.00077191954170     0.00006255564731     0.00001871241580
   54     0.00047172384654     0.00043456869348     0.00028745290493     0.00006614891333     0.00002444189852
   55     0.02460290690694     0.00618792417480     0.00745198643678     0.00061368631212     0.00017385902464
   56     0.00000000000000     0.01100681365428     0.01370218045979     0.00856999897679     0.00171473394132
   57     0.01100681365428     0.00000000000000     0.02374475925153     0.00348232921548     0.00842671185622
   58     0.01370218045979     0.02374475925153     0.00000000000000     0.00094292241638     0.00105533889415
   59     0.00856999897679     0.00348232921548     0.00094292241638     0.00000000000000     0.03482238505999
   60     0.00171473394132     0.00842671185622     0.00105533889415     0.03482238505999     0.00000000000000
   61     0.00074877850559     0.00130217902050     0.00077087632827     0.03505716554705     0.03773512169432
   62     0.00053010620353     0.00129455890785     0.00096550399406     0.00280608337679     0.00115182946910
   63     0.00076784232073     0.00120036113337     0.00493507470731     0.00102273867842     0.00064223798403
   64     0.00631938186827     0.00042745969981     0.00101279003695     0.00785082809917     0.00064447891585
   65     0.00092371912840     0.00045870922939     0.00038782489080     0.00050027722716     0.00022486146637
   66     0.00000001763514     0.00000000466111     0.00000001123889     0.00000000088735     0.00000000020002
   67     0.00000001194697     0.00000000430315     0.00000001080575     0.00000000093628     0.00000000012858
   68     0.00000000359490     0.00000000230113     0.00000000894843     0.00000000024561     0.00000000055952

                61                  62                  63                  64                  65

    1     0.00000014396300     0.00000010313313     0.00000130379173     0.00000076388880     0.00000021827497
    2     0.00000006437727     0.00000006615886     0.00000083713103     0.00000022593313     0.00000007947356
    3     0.00000006253887     0.00000008312925     0.00000101048155     0.00000013393758     0.00000011146567
    4     0.00000006272832     0.00000049525520     0.00000511985243     0.00000101077705     0.00000091417918
    5     0.00000038466764     0.00000112013263     0.00001699583680     0.00000155071509     0.00000125674209
    6     0.00000022200587     0.00000063617315     0.00000859307023     0.00000713534359     0.00000093947070
    7     0.00000000813282     0.00000002640219     0.00000018902182     0.00000003067746     0.00000002336839
    8     0.00000000590124     0.00000001744162     0.00000011837176     0.00000006526428     0.00000000559151
    9     0.00000000129523     0.00000000214545     0.00000001621296     0.00000000325507     0.00000000290970
   10     0.00000000127076     0.00000000364228     0.00000005531832     0.00000000416235     0.00000000504708
   11     0.00000000303150     0.00000000524587     0.00000004651728     0.00000000998913     0.00000000553564
   12     0.00000000830394     0.00000002156339     0.00000023056767     0.00000002251136     0.00000001634034
   13     0.00000000231364     0.00000000610309     0.00000008444712     0.00000000748471     0.00000001466288
   14     0.00000001715444     0.00000004588720     0.00000085214253     0.00000011753509     0.00000007622676
   15     0.00000001000344     0.00000009067362     0.00000255115051     0.00000043725939     0.00000007513741
   16     0.00000000956648     0.00000003463104     0.00000086777214     0.00000015392600     0.00000010329687
   17     0.00000004675338     0.00000021569487     0.00000685458697     0.00000092178516     0.00000053268261
   18     0.00000009065524     0.00000030283622     0.00001010468281     0.00000077088221     0.00000174870934
   19     0.00000004586652     0.00000021691107     0.00000641552278     0.00000082244452     0.00000038258523
   20     0.00000029830481     0.00000211795985     0.00005664056309     0.00000767551407     0.00000865064479
   21     0.00000134441143     0.00001599816386     0.00022262938596     0.00005201853885     0.00002265711539
   22     0.00001392904599     0.00015412761458     0.00389374426413     0.00033897510030     0.00022444235568
   23     0.00002453985334     0.00015663928053     0.00350885843168     0.00034684824770     0.00027575435270
   24     0.00004998396813     0.00035077828432     0.00711497725690     0.00066305712503     0.00068108974628
   25     0.00010050715488     0.00098405911014     0.01661081164994     0.00149141524670     0.00657809902319
   26     0.00006262296414     0.00090587824985     0.02048841378476     0.00097282469350     0.00650842925876
   27     0.00003431471053     0.00031398202624     0.00983691172722     0.00043430198708     0.00057094169316
   28     0.00011997735678     0.00118297450566     0.00697451776913     0.01201190303036     0.01967668822515
   29     0.00062685943045     0.00998798437742     0.01209369418946     0.06509799852150     0.05656258517721
   30     0.00183092929618     0.00254537543514     0.00732405042537     0.02328701167467     0.01225890737205
   31     0.01281787653613     0.01292181249522     0.01805064276425     0.00824618258454     0.00243747402348
   32     0.06334530340990     0.05887716137778     0.05944121605060     0.01380095060774     0.01035926072483
   33     0.91960919355632     0.01979877259574     0.01266526067510     0.01562520316944     0.00153515310961
   34     0.01830213381216     0.89170719409484     0.75774756516829     0.04907593463224     0.05863300957523
   35     0.00377814894973     0.06117078305803     0.04341973221888     0.77201718052888     0.88110773917575
   36     0.00000058828019     0.00000427804578     0.00011224324192     0.00001286564578     0.00000721675831
   37     0.00000000143031     0.00000000981000     0.00000021401263     0.00000003007075     0.00000001659416
   38     0.00000002819616     0.00000002356374     0.00000024177007     0.00000009268297     0.00000002579331
   39     0.00000000791952     0.00000000518994     0.00000008179200     0.00000000176201     0.00000000434392
   40     0.00000001978002     0.00000009385672     0.00000149026647     0.00000010859906     0.00000019661444
   41     0.00000013918454     0.00000022690537     0.00000565604980     0.00000426426279     0.00000026583039
   42     0.00000000030059     0.00000000134634     0.00000002237423     0.00000000198679     0.00000000131339
   43     0.00000000013607     0.00000000021557     0.00000000409489     0.00000000112377     0.00000000040393
   44     0.00000000032933     0.00000000126020     0.00000001638925     0.00000000183720     0.00000000263419
   45     0.00000000058226     0.00000000299327     0.00000011172149     0.00000000456845     0.00000002120376
   46     0.00000000863872     0.00000005101590     0.00000193008280     0.00000009752262     0.00000022250857
   47     0.00000002120097     0.00000003976054     0.00000094622211     0.00000005382842     0.00000007204699
   48     0.00000017613228     0.00000304043673     0.00001072841242     0.00000707660489     0.00000176614096
   49     0.00000086352995     0.00000625861152     0.00011738193503     0.00001875173961     0.00002234289414
   50     0.00001391919143     0.00002825561823     0.00068120166963     0.00016653332511     0.00007818816349
   51     0.00001347033704     0.00012550549111     0.00319414590591     0.00011378278629     0.00258905690339
   52     0.00000346598740     0.00002717477506     0.00080882473166     0.00005109884224     0.00003078066000
   53     0.00001916821825     0.00025718367305     0.00043263563055     0.00057856730913     0.00106959850209
   54     0.00002183956252     0.00012040218734     0.00091023887540     0.00121316240074     0.00546326079849
   55     0.00021920977769     0.00029987772490     0.00049106519776     0.00091571775162     0.00113142602994
   56     0.00074877850559     0.00053010620353     0.00076784232073     0.00631938186827     0.00092371912840
   57     0.00130217902050     0.00129455890785     0.00120036113337     0.00042745969981     0.00045870922939
   58     0.00077087632827     0.00096550399406     0.00493507470731     0.00101279003695     0.00038782489080
   59     0.03505716554705     0.00280608337679     0.00102273867842     0.00785082809917     0.00050027722716
   60     0.03773512169432     0.00115182946910     0.00064223798403     0.00064447891585     0.00022486146637
   61     0.00000000000000     0.00611473989339     0.00103852998377     0.00175458966595     0.00012960537657
   62     0.00611473989339     0.00000000000000     0.02285200598766     0.00995611385069     0.00570639492966
   63     0.00103852998377     0.02285200598766     0.00000000000000     0.02489233436723     0.00876653300081
   64     0.00175458966595     0.00995611385069     0.02489233436723     0.00000000000000     0.02223720803331
   65     0.00012960537657     0.00570639492966     0.00876653300081     0.02223720803331     0.00000000000000
   66     0.00000000058955     0.00000000517139     0.00000008823173     0.00000002854106     0.00000000241522
   67     0.00000000058589     0.00000000251894     0.00000010132642     0.00000001333084     0.00000000465198
   68     0.00000000011974     0.00000000080299     0.00000001860908     0.00000000192259     0.00000000146268

                66                  67                  68

    1     0.00000067417781     0.00000126474124     0.00000041557262
    2     0.00000153327630     0.00000376279516     0.00000057991171
    3     0.00000781155749     0.00000905119395     0.00000305777585
    4     0.00000881394365     0.00000803792331     0.00000768795384
    5     0.00000087399402     0.00000111319514     0.00000045092445
    6     0.00000045636634     0.00000189622157     0.00000020160031
    7     0.00003828388454     0.00006367451270     0.00001385244120
    8     0.00005919076334     0.00013254571601     0.00002516758715
    9     0.00004034398922     0.00004714583165     0.00000739161024
   10     0.00018105305686     0.00046334483795     0.00005640096999
   11     0.00069302640281     0.00202676150183     0.00030534771725
   12     0.00022666246389     0.00042168765784     0.00008228599583
   13     0.00691675765188     0.01325052088474     0.00203877644498
   14     0.01648773564331     0.01726515664203     0.00922088707052
   15     0.05879888754081     0.05812913369605     0.05964984104580
   16     0.01627072196315     0.01352449248508     0.02330169619369
   17     0.00125236561090     0.00125028765600     0.00186286022208
   18     0.00340366130058     0.00221940275661     0.00066344147678
   19     0.00122753277081     0.00134446935634     0.00109956894693
   20     0.00043122916845     0.00026507023433     0.00009684828508
   21     0.00024672684537     0.00016301808905     0.00003931976805
   22     0.00001303183066     0.00001223833837     0.00000806063466
   23     0.00001643328073     0.00001078847919     0.00000378013809
   24     0.00000166908001     0.00000119344778     0.00000040171037
   25     0.00000722872887     0.00000433909317     0.00000052704136
   26     0.00000127513410     0.00000109316811     0.00000035466935
   27     0.00001267338204     0.00000980370167     0.00000200269106
   28     0.00000053707732     0.00000027242788     0.00000005459547
   29     0.00000038649906     0.00000024337149     0.00000003422248
   30     0.00000006113493     0.00000006015934     0.00000001070514
   31     0.00000001323734     0.00000001155942     0.00000001725663
   32     0.00000000932783     0.00000001159578     0.00000000543597
   33     0.00000000451195     0.00000000327498     0.00000000095626
   34     0.00000003115131     0.00000002990022     0.00000000830318
   35     0.00000003931286     0.00000003350023     0.00000000866217
   36     0.00014140792489     0.00010347797864     0.00002331544543
   37     0.91970299632426     0.91674269704450     0.92112311774127
   38     0.00000007685109     0.00000012301547     0.00000003286991
   39     0.00000018384794     0.00000062675592     0.00000007978154
   40     0.00000604321699     0.00001144838312     0.00000620966609
   41     0.00000004519132     0.00000011711988     0.00000002534107
   42     0.00000276650219     0.00000530672389     0.00000095992239
   43     0.00000255249825     0.00000387418584     0.00000059180839
   44     0.00331560948169     0.00370061128437     0.00067714641137
   45     0.00142395952453     0.00112463441624     0.00727391221826
   46     0.00017578904559     0.00025172878105     0.00012786528273
   47     0.00018489044121     0.00021347577461     0.00034972179265
   48     0.00004171814608     0.00004133946450     0.00004119952314
   49     0.00000523596123     0.00000297652087     0.00000144851402
   50     0.00000006681323     0.00000009816759     0.00000006490326
   51     0.00000021380471     0.00000010178234     0.00000008216098
   52     0.00000091475783     0.00000070719028     0.00000048147086
   53     0.00000006525369     0.00000005735726     0.00000001869538
   54     0.00000007109507     0.00000005867913     0.00000001531381
   55     0.00000000627965     0.00000000746478     0.00000000267247
   56     0.00000001763514     0.00000001194697     0.00000000359490
   57     0.00000000466111     0.00000000430315     0.00000000230113
   58     0.00000001123889     0.00000001080575     0.00000000894843
   59     0.00000000088735     0.00000000093628     0.00000000024561
   60     0.00000000020002     0.00000000012858     0.00000000055952
   61     0.00000000058955     0.00000000058589     0.00000000011974
   62     0.00000000517139     0.00000000251894     0.00000000080299
   63     0.00000008823173     0.00000010132642     0.00000001860908
   64     0.00000002854106     0.00000001333084     0.00000000192259
   65     0.00000000241522     0.00000000465198     0.00000000146268
   66     0.00000000000000     0.03524514232201     0.03795154262762
   67     0.03524514232201     0.00000000000000     0.03861930538270
   68     0.03795154262762     0.03861930538270     0.00000000000000



  Atomic Valences: 

 #  #
 Irrep: 1
      1:  4.3922292
      2:  4.4219970
      3:  4.6047292
      4:  4.5812126
      5:  3.9193954
      6:  4.5474258
      7:  4.7450953
      8:  4.3652503
      9:  4.5239504
     10:  3.8567947
     11:  5.0176065
     12:  3.9703194
     13:  4.0447377
     14:  4.6872756
     15:  4.6326046
     16:  4.4360544
     17:  4.4034618
     18:  4.6722162
     19:  4.4334139
     20:  4.0838052
     21:  5.0028346
     22:  4.6211381
     23:  4.4652579
     24:  4.4813451
     25:  4.7155397
     26:  4.4729244
     27:  4.4373563
     28:  4.4932922
     29:  4.2527715
     30:  4.5605835
     31:  4.5733838
     32:  4.2076925
     33:  4.2895015
     34:  4.5541065
     35:  4.5456768
     36:  2.7603776
     37:  4.1487573
     38:  1.0984085
     39:  1.1010288
     40:  1.1119415
     41:  1.0919905
     42:  1.1091718
     43:  1.0863626
     44:  1.1692609
     45:  1.0999346
     46:  1.1063895
     47:  1.1176836
     48:  1.1833140
     49:  1.1200045
     50:  1.1101519
     51:  1.1059063
     52:  1.0976166
     53:  1.1061095
     54:  1.1075055
     55:  1.1341884
     56:  1.0427504
     57:  1.0428524
     58:  1.1263458
     59:  1.1371242
     60:  1.1104692
     61:  1.1056637
     62:  1.1133289
     63:  1.0523990
     64:  1.0416611
     65:  1.1071770
     66:  1.1045492
     67:  1.1067000
     68:  1.1046885


    Psi4 stopped on: Tuesday, 03 March 2020 06:49PM
    Psi4 wall time for execution: 0:47:28.85

*** Psi4 exiting successfully. Buy a developer a beer!
