68
MOLECULE0-opt-14-13-11-12-312.log	Energy: -992571.3958939
C         -0.47275        4.27493       -0.77192
C          0.87184        4.19224       -0.43075
C          1.54821        2.99023       -0.63187
C          0.82170        1.92615       -1.18277
N         -0.46727        1.98989       -1.51175
C         -1.09617        3.14998       -1.30072
C          2.97002        2.78903       -0.25405
C          3.90104        3.81891       -0.15417
C          5.18682        3.44616        0.23616
N          5.54595        2.19680        0.49754
C          4.57251        1.27444        0.35466
N          3.31276        1.52327       -0.00258
N          4.96095       -0.01158        0.61352
C          4.24498       -1.21752        0.49471
C          4.96850       -2.42734        0.47961
C          4.24767       -3.61002        0.33804
C          2.86192       -3.65099        0.19505
C          2.17087       -2.44330        0.21696
C          2.85943       -1.24353        0.39385
N          0.78440       -2.30495        0.03897
C         -0.15596       -3.23201       -0.33089
C         -1.47533       -2.60038       -0.67519
C         -1.55040       -1.35733       -1.31060
C         -2.78274       -0.77806       -1.57439
C         -3.96615       -1.40939       -1.19162
C         -3.88448       -2.67693       -0.60830
C         -2.65438       -3.27379       -0.35796
C         -5.30312       -0.70352       -1.34853
N         -5.69288        0.22634       -0.29935
C         -5.02615        1.52310       -0.24728
C         -3.81595        1.57820        0.70289
N         -4.11278        1.06905        2.03896
C         -4.90170        1.97781        2.85158
C         -4.67862       -0.27446        1.93984
C         -5.91401       -0.34031        1.02651
O          0.03570       -4.43593       -0.36426
C          6.47127       -2.44344        0.59933
H         -1.03211        5.19161       -0.61911
H          1.37698        5.04534        0.01301
H          1.32580        0.98080       -1.36678
H         -2.15113        3.17682       -1.56503
H          3.66230        4.85081       -0.37985
H          5.96838        4.19626        0.33936
H          5.94209       -0.07791        0.83970
H          4.79572       -4.54881        0.32481
H          2.33283       -4.58494        0.06408
H          2.31452       -0.31210        0.41935
H          0.44603       -1.35847        0.13043
H         -0.65399       -0.83221       -1.62736
H         -2.81062        0.19141       -2.06527
H         -4.79922       -3.19696       -0.33231
H         -2.59070       -4.25640        0.09887
H         -5.30887       -0.14788       -2.29408
H         -6.09556       -1.45922       -1.42318
H         -4.72464        1.80466       -1.26335
H         -5.76737        2.26807        0.07886
H         -3.45890        2.61212        0.79249
H         -2.99110        0.98326        0.29534
H         -5.91184        2.20532        2.46768
H         -4.36418        2.92726        2.95200
H         -5.01729        1.55059        3.85367
H         -4.93670       -0.62340        2.94711
H         -3.89665       -0.93768        1.55180
H         -6.74287        0.20772        1.49896
H         -6.24731       -1.37823        0.91536
H          6.81685       -2.03169        1.55748
H          6.95170       -1.86737       -0.20220
H          6.85130       -3.46617        0.53592
