
    -----------------------------------------------------------------------
          Psi4: An Open-Source Ab Initio Electronic Structure Package
                               Psi4 1.3.2 release

                         Git: Rev {HEAD} ecbda83 


    R. M. Parrish, L. A. Burns, D. G. A. Smith, A. C. Simmonett,
    A. E. DePrince III, E. G. Hohenstein, U. Bozkaya, A. Yu. Sokolov,
    R. Di Remigio, R. M. Richard, J. F. Gonthier, A. M. James,
    H. R. McAlexander, A. Kumar, M. Saitow, X. Wang, B. P. Pritchard,
    P. Verma, H. F. Schaefer III, K. Patkowski, R. A. King, E. F. Valeev,
    F. A. Evangelista, J. M. Turney, T. D. Crawford, and C. D. Sherrill,
    J. Chem. Theory Comput. 13(7) pp 3185--3197 (2017).
    (doi: 10.1021/acs.jctc.7b00174)


                         Additional Contributions by
    P. Kraus, H. Kruse, M. H. Lechner, M. C. Schieber, R. A. Shaw,
    A. Alenaizan, R. Galvelis, Z. L. Glick, S. Lehtola, and J. P. Misiewicz

    -----------------------------------------------------------------------


    Psi4 started on: Friday, 24 April 2020 11:49AM

    Process ID: 93516
    Host:       node35.bme.utexas.edu
    PSIDATADIR: /home/bdw2292/miniconda3/envs/p4env/share/psi4
    Memory:     500.0 MiB
    Threads:    1
    
  ==> Input File <==

--------------------------------------------------------------------------
molecule { 
0 1
 C    1.201067    4.498465   -3.357575
 C    2.494782    4.197738   -2.912040
 C    2.742278    2.991512   -2.226402
 C    1.624679    2.137609   -2.058451
 N    0.381157    2.411834   -2.471903
 C    0.180098    3.575368   -3.107672
 C    4.095033    2.601376   -1.684429
 C    5.274514    3.344774   -1.863946
 C    6.426171    2.820332   -1.267613
 N    6.455622    1.694491   -0.559526
 C    5.279022    1.046800   -0.434520
 N    4.128158    1.461983   -0.966239
 N    5.338620   -0.116365    0.310937
 C    4.387199   -1.144521    0.642991
 C    4.863264   -2.397237    1.140446
 C    3.906160   -3.376353    1.455318
 C    2.526870   -3.198056    1.302681
 C    2.078782   -1.967802    0.815464
 C    3.005411   -0.964093    0.499305
 N    0.723870   -1.636282    0.574417
 C   -0.033974   -1.824563   -0.555986
 C   -1.377305   -1.129246   -0.635865
 C   -1.619691    0.148842   -0.107004
 C   -2.896184    0.711790   -0.178551
 C   -3.966711    0.034688   -0.793144
 C   -3.701666   -1.236005   -1.339954
 C   -2.426630   -1.803004   -1.281854
 C   -5.377075    0.627500   -0.812802
 N   -6.254527    0.450338    0.356983
 C   -6.001842    1.243555    1.581277
 C   -5.108177    0.540216    2.635927
 N   -5.587179   -0.810217    3.019223
 C   -6.655289   -0.868640    4.023818
 C   -5.793043   -1.611327    1.787460
 C   -6.682640   -0.920201    0.721071
 O    0.340278   -2.540999   -1.468372
 C    6.337618   -2.714014    1.331312
 H    0.988036    5.423732   -3.884645
 H    3.285547    4.920420   -3.097954
 H    1.738514    1.173499   -1.574250
 H   -0.842416    3.761815   -3.432392
 H    5.338996    4.269150   -2.424428
 H    7.393146    3.315721   -1.349146
 H    6.293725   -0.275237    0.593835
 H    4.239590   -4.339407    1.839861
 H    1.821875   -3.989718    1.523876
 H    2.644880   -0.016564    0.133532
 H    0.293258   -1.124235    1.331517
 H   -0.802448    0.700496    0.350560
 H   -3.059037    1.696558    0.258894
 H   -4.505804   -1.803442   -1.807406
 H   -2.232886   -2.781790   -1.713690
 H   -5.294389    1.709592   -0.986437
 H   -5.915551    0.204023   -1.672673
 H   -5.527030    2.382145    1.278155
 H   -7.317148    1.494855    2.208191
 H   -5.030824    1.285115    3.716543
 H   -3.983683    0.416229    2.215464
 H   -7.580928   -0.425802    3.638732
 H   -6.353424   -0.327433    4.927998
 H   -6.851822   -1.909350    4.306260
 H   -6.291908   -2.762255    2.110361
 H   -4.490113   -1.852848    1.227330
 H   -8.040511   -0.812470    1.280491
 H   -6.774353   -1.587598   -0.239259
 H    6.824937   -2.044737    2.054778
 H    6.883747   -2.623066    0.388018
 H    6.507711   -3.731920    1.691735
}
memory 20GB
set_num_threads(6)
psi4_io.set_default_path("/scratch/bdw2292")
set freeze_core True
E, wfn = energy('mp2/6-311+G*',return_wfn=True)
oeprop(wfn,"WIBERG_LOWDIN_INDICES")
clean()
--------------------------------------------------------------------------

  Memory set to  18.626 GiB by Python driver.
  Threads set to 6 by Python driver.
    SCF Algorithm Type (re)set to DF.

*** tstart() called on node35.bme.utexas.edu
*** at Fri Apr 24 11:49:08 2020

   => Loading Basis Set <=

    Name: 6-311+G*
    Role: ORBITAL
    Keyword: BASIS
    atoms 1-4, 6-9, 11, 14-19, 21-28, 30-31, 33-35, 37 entry C          line   130 file /home/bdw2292/miniconda3/envs/p4env/share/psi4/basis/6-311pgs.gbs 
    atoms 5, 10, 12-13, 20, 29, 32                     entry N          line   151 file /home/bdw2292/miniconda3/envs/p4env/share/psi4/basis/6-311pgs.gbs 
    atoms 36                                           entry O          line   172 file /home/bdw2292/miniconda3/envs/p4env/share/psi4/basis/6-311pgs.gbs 
    atoms 38-68                                        entry H          line    47 file /home/bdw2292/miniconda3/envs/p4env/share/psi4/basis/6-311pgs.gbs 


         ---------------------------------------------------------
                                   SCF
               by Justin Turney, Rob Parrish, Andy Simmonett
                          and Daniel G. A. Smith
                              RHF Reference
                        6 Threads,  19073 MiB Core
         ---------------------------------------------------------

  ==> Geometry <==

    Molecular point group: c1
    Full point group: C1

    Geometry (in Angstrom), charge = 0, multiplicity = 1:

       Center              X                  Y                   Z               Mass       
    ------------   -----------------  -----------------  -----------------  -----------------
         C            1.001325326501     4.351518415870    -3.185353825707    12.000000000000
         C            2.295040326501     4.050791415870    -2.739818825707    12.000000000000
         C            2.542536326501     2.844565415870    -2.054180825707    12.000000000000
         C            1.424937326501     1.990662415870    -1.886229825707    12.000000000000
         N            0.181415326501     2.264887415870    -2.299681825707    14.003074004430
         C           -0.019643673499     3.428421415870    -2.935450825707    12.000000000000
         C            3.895291326501     2.454429415870    -1.512207825707    12.000000000000
         C            5.074772326501     3.197827415870    -1.691724825707    12.000000000000
         C            6.226429326501     2.673385415870    -1.095391825707    12.000000000000
         N            6.255880326501     1.547544415870    -0.387304825707    14.003074004430
         C            5.079280326501     0.899853415870    -0.262298825707    12.000000000000
         N            3.928416326501     1.315036415870    -0.794017825707    14.003074004430
         N            5.138878326501    -0.263311584130     0.483158174293    14.003074004430
         C            4.187457326501    -1.291467584130     0.815212174293    12.000000000000
         C            4.663522326501    -2.544183584130     1.312667174293    12.000000000000
         C            3.706418326501    -3.523299584130     1.627539174293    12.000000000000
         C            2.327128326501    -3.345002584130     1.474902174293    12.000000000000
         C            1.879040326501    -2.114748584130     0.987685174293    12.000000000000
         C            2.805669326501    -1.111039584130     0.671526174293    12.000000000000
         N            0.524128326501    -1.783228584130     0.746638174293    14.003074004430
         C           -0.233715673499    -1.971509584130    -0.383764825707    12.000000000000
         C           -1.577046673499    -1.276192584130    -0.463643825707    12.000000000000
         C           -1.819432673499     0.001895415870     0.065217174293    12.000000000000
         C           -3.095925673499     0.564843415870    -0.006329825707    12.000000000000
         C           -4.166452673499    -0.112258584130    -0.620922825707    12.000000000000
         C           -3.901407673499    -1.382951584130    -1.167732825707    12.000000000000
         C           -2.626371673499    -1.949950584130    -1.109632825707    12.000000000000
         C           -5.576816673499     0.480553415870    -0.640580825707    12.000000000000
         N           -6.454268673499     0.303391415870     0.529204174293    14.003074004430
         C           -6.201583673499     1.096608415870     1.753498174293    12.000000000000
         C           -5.307918673499     0.393269415870     2.808148174293    12.000000000000
         N           -5.786920673499    -0.957163584130     3.191444174293    14.003074004430
         C           -6.855030673499    -1.015586584130     4.196039174293    12.000000000000
         C           -5.992784673499    -1.758273584130     1.959681174293    12.000000000000
         C           -6.882381673499    -1.067147584130     0.893292174293    12.000000000000
         O            0.140536326501    -2.687945584130    -1.296150825707    15.994914619570
         C            6.137876326501    -2.860960584130     1.503533174293    12.000000000000
         H            0.788294326501     5.276785415870    -3.712423825707     1.007825032230
         H            3.085805326501     4.773473415870    -2.925732825707     1.007825032230
         H            1.538772326501     1.026552415870    -1.402028825707     1.007825032230
         H           -1.042157673499     3.614868415870    -3.260170825707     1.007825032230
         H            5.139254326501     4.122203415870    -2.252206825707     1.007825032230
         H            7.193404326501     3.168774415870    -1.176924825707     1.007825032230
         H            6.093983326501    -0.422183584130     0.766056174293     1.007825032230
         H            4.039848326501    -4.486353584130     2.012082174293     1.007825032230
         H            1.622133326501    -4.136664584130     1.696097174293     1.007825032230
         H            2.445138326501    -0.163510584130     0.305753174293     1.007825032230
         H            0.093516326501    -1.271181584130     1.503738174293     1.007825032230
         H           -1.002189673499     0.553549415870     0.522781174293     1.007825032230
         H           -3.258778673499     1.549611415870     0.431115174293     1.007825032230
         H           -4.705545673499    -1.950388584130    -1.635184825707     1.007825032230
         H           -2.432627673499    -2.928736584130    -1.541468825707     1.007825032230
         H           -5.494130673499     1.562645415870    -0.814215825707     1.007825032230
         H           -6.115292673499     0.057076415870    -1.500451825707     1.007825032230
         H           -5.726771673499     2.235198415870     1.450376174293     1.007825032230
         H           -7.516889673499     1.347908415870     2.380412174293     1.007825032230
         H           -5.230565673499     1.138168415870     3.888764174293     1.007825032230
         H           -4.183424673499     0.269282415870     2.387685174293     1.007825032230
         H           -7.780669673499    -0.572748584130     3.810953174293     1.007825032230
         H           -6.553165673499    -0.474379584130     5.100219174293     1.007825032230
         H           -7.051563673499    -2.056296584130     4.478481174293     1.007825032230
         H           -6.491649673499    -2.909201584130     2.282582174293     1.007825032230
         H           -4.689854673499    -1.999794584130     1.399551174293     1.007825032230
         H           -8.240252673499    -0.959416584130     1.452712174293     1.007825032230
         H           -6.974094673499    -1.734544584130    -0.067037825707     1.007825032230
         H            6.625195326501    -2.191683584130     2.226999174293     1.007825032230
         H            6.684005326501    -2.770012584130     0.560239174293     1.007825032230
         H            6.307969326501    -3.878866584130     1.863956174293     1.007825032230

  Running in c1 symmetry.

  Rotational constants: A =      0.00485  B =      0.00167  C =      0.00136 [cm^-1]
  Rotational constants: A =    145.52724  B =     50.04835  C =     40.91352 [MHz]
  Nuclear repulsion = 3722.337340191001203

  Charge       = 0
  Multiplicity = 1
  Electrons    = 262
  Nalpha       = 131
  Nbeta        = 131

  ==> Algorithm <==

  SCF Algorithm Type is DF.
  DIIS enabled.
  MOM disabled.
  Fractional occupation disabled.
  Guess Type is SAD.
  Energy threshold   = 1.00e-08
  Density threshold  = 1.00e-08
  Integral threshold = 0.00e+00

  ==> Primary Basis <==

  Basis Set: 6-311+G*
    Blend: 6-311+G*
    Number of shells: 463
    Number of basis function: 907
    Number of Cartesian functions: 944
    Spherical Harmonics?: true
    Max angular momentum: 2

   => Loading Basis Set <=

    Name: (6-311+G* AUX)
    Role: JKFIT
    Keyword: DF_BASIS_SCF
    atoms 1-4, 6-9, 11, 14-19, 21-28, 30-31, 33-35, 37 entry C          line   200 file /home/bdw2292/miniconda3/envs/p4env/share/psi4/basis/heavy-aug-cc-pvtz-jkfit.gbs 
    atoms 5, 10, 12-13, 20, 29, 32                     entry N          line   262 file /home/bdw2292/miniconda3/envs/p4env/share/psi4/basis/heavy-aug-cc-pvtz-jkfit.gbs 
    atoms 36                                           entry O          line   324 file /home/bdw2292/miniconda3/envs/p4env/share/psi4/basis/heavy-aug-cc-pvtz-jkfit.gbs 
    atoms 38-68                                        entry H          line   116 file /home/bdw2292/miniconda3/envs/p4env/share/psi4/basis/heavy-aug-cc-pvtz-jkfit.gbs 

  ==> Pre-Iterations <==

   -------------------------------------------------------
    Irrep   Nso     Nmo     Nalpha   Nbeta   Ndocc  Nsocc
   -------------------------------------------------------
     A        907     907       0       0       0       0
   -------------------------------------------------------
    Total     907     907     131     131     131       0
   -------------------------------------------------------

  ==> Integral Setup <==

  ==> DiskDFJK: Density-Fitted J/K Matrices <==

    J tasked:                  Yes
    K tasked:                  Yes
    wK tasked:                  No
    OpenMP threads:              6
    Integrals threads:           6
    Memory [MiB]:            14305
    Algorithm:                Core
    Integral Cache:           NONE
    Schwarz Cutoff:          1E-12
    Fitting Condition:       1E-10

   => Auxiliary Basis Set <=

  Basis Set: (6-311+G* AUX)
    Blend: HEAVY-AUG-CC-PVTZ-JKFIT
    Number of shells: 1420
    Number of basis function: 4778
    Number of Cartesian functions: 5932
    Spherical Harmonics?: true
    Max angular momentum: 4

  Minimum eigenvalue in the overlap matrix is 2.1529179437E-07.
  Using Symmetric Orthogonalization.

  SCF Guess: Superposition of Atomic Densities via on-the-fly atomic UHF.

  ==> Iterations <==

                           Total Energy        Delta E     RMS |[F,P]|

   @DF-RHF iter SAD: -1571.06132109690475   -1.57106e+03   0.00000e+00 
   @DF-RHF iter   1: -1571.33632947911929   -2.75008e-01   1.37978e-03 DIIS
   @DF-RHF iter   2: -1572.09759676491240   -7.61267e-01   7.29227e-04 DIIS
   @DF-RHF iter   3: -1572.28860852813773   -1.91012e-01   1.84138e-04 DIIS
   @DF-RHF iter   4: -1572.30474667068552   -1.61381e-02   7.24693e-05 DIIS
   @DF-RHF iter   5: -1572.30713918130095   -2.39251e-03   1.48569e-05 DIIS
   @DF-RHF iter   6: -1572.30728243853173   -1.43257e-04   6.70429e-06 DIIS
   @DF-RHF iter   7: -1572.30731700516435   -3.45666e-05   2.25682e-06 DIIS
   @DF-RHF iter   8: -1572.30732297230361   -5.96714e-06   9.47422e-07 DIIS
   @DF-RHF iter   9: -1572.30732408430231   -1.11200e-06   4.02162e-07 DIIS
   @DF-RHF iter  10: -1572.30732432122272   -2.36920e-07   1.81617e-07 DIIS
   @DF-RHF iter  11: -1572.30732437219990   -5.09772e-08   8.43792e-08 DIIS
   @DF-RHF iter  12: -1572.30732438518180   -1.29819e-08   3.60384e-08 DIIS
   @DF-RHF iter  13: -1572.30732438768541   -2.50361e-09   1.47407e-08 DIIS
   @DF-RHF iter  14: -1572.30732438796440   -2.78987e-10   7.43857e-09 DIIS
  Energy and wave function converged.


  ==> Post-Iterations <==

    Orbital Energies [Eh]
    ---------------------

    Doubly Occupied:                                                      

       1A    -20.512935     2A    -15.601532     3A    -15.586679  
       4A    -15.574676     5A    -15.569010     6A    -15.568880  
       7A    -15.564675     8A    -15.554465     9A    -11.370820  
      10A    -11.357261    11A    -11.329758    12A    -11.318467  
      13A    -11.311289    14A    -11.309923    15A    -11.309478  
      16A    -11.299998    17A    -11.293840    18A    -11.292035  
      19A    -11.290152    20A    -11.281867    21A    -11.280095  
      22A    -11.276472    23A    -11.271647    24A    -11.257482  
      25A    -11.256022    26A    -11.254578    27A    -11.254265  
      28A    -11.253096    29A    -11.247850    30A    -11.247102  
      31A    -11.245361    32A    -11.245101    33A    -11.243402  
      34A    -11.242442    35A    -11.237912    36A    -11.236251  
      37A    -11.232257    38A     -1.379776    39A     -1.341549  
      40A     -1.268368    41A     -1.247563    42A     -1.244800  
      43A     -1.238502    44A     -1.204943    45A     -1.198966  
      46A     -1.159884    47A     -1.140576    48A     -1.108836  
      49A     -1.070212    50A     -1.057405    51A     -1.042037  
      52A     -1.037488    53A     -1.022208    54A     -1.009631  
      55A     -0.991367    56A     -0.976309    57A     -0.946808  
      58A     -0.927448    59A     -0.920147    60A     -0.897896  
      61A     -0.866129    62A     -0.863553    63A     -0.851546  
      64A     -0.839878    65A     -0.832355    66A     -0.822864  
      67A     -0.821947    68A     -0.804024    69A     -0.779631  
      70A     -0.748561    71A     -0.741631    72A     -0.726881  
      73A     -0.719593    74A     -0.702743    75A     -0.695207  
      76A     -0.681435    77A     -0.668869    78A     -0.663470  
      79A     -0.656942    80A     -0.654410    81A     -0.652371  
      82A     -0.639122    83A     -0.638219    84A     -0.628019  
      85A     -0.625772    86A     -0.616574    87A     -0.614321  
      88A     -0.608435    89A     -0.603481    90A     -0.601405  
      91A     -0.594883    92A     -0.592113    93A     -0.588236  
      94A     -0.584677    95A     -0.581680    96A     -0.581178  
      97A     -0.577661    98A     -0.569163    99A     -0.563251  
     100A     -0.553066   101A     -0.546352   102A     -0.536595  
     103A     -0.530091   104A     -0.525448   105A     -0.522788  
     106A     -0.519047   107A     -0.517017   108A     -0.510891  
     109A     -0.508918   110A     -0.502958   111A     -0.499014  
     112A     -0.493426   113A     -0.483586   114A     -0.469960  
     115A     -0.453598   116A     -0.445014   117A     -0.437193  
     118A     -0.431547   119A     -0.423659   120A     -0.412092  
     121A     -0.408753   122A     -0.398699   123A     -0.393144  
     124A     -0.381931   125A     -0.370836   126A     -0.342933  
     127A     -0.339708   128A     -0.339468   129A     -0.332145  
     130A     -0.312754   131A     -0.296077  

    Virtual:                                                              

     132A      0.048826   133A      0.051277   134A      0.056532  
     135A      0.060551   136A      0.064170   137A      0.067986  
     138A      0.070417   139A      0.075416   140A      0.077564  
     141A      0.079618   142A      0.081622   143A      0.085476  
     144A      0.088098   145A      0.089019   146A      0.090296  
     147A      0.091060   148A      0.093046   149A      0.095066  
     150A      0.099057   151A      0.102160   152A      0.104299  
     153A      0.106321   154A      0.108838   155A      0.110276  
     156A      0.112407   157A      0.114572   158A      0.116897  
     159A      0.120214   160A      0.123243   161A      0.124564  
     162A      0.126098   163A      0.129325   164A      0.131655  
     165A      0.134128   166A      0.134715   167A      0.135948  
     168A      0.141230   169A      0.143023   170A      0.145401  
     171A      0.149234   172A      0.151552   173A      0.154908  
     174A      0.157879   175A      0.159827   176A      0.161763  
     177A      0.164919   178A      0.166671   179A      0.169472  
     180A      0.170038   181A      0.171777   182A      0.175259  
     183A      0.178838   184A      0.181132   185A      0.184974  
     186A      0.187376   187A      0.188660   188A      0.193011  
     189A      0.194888   190A      0.195635   191A      0.198339  
     192A      0.201226   193A      0.203696   194A      0.209087  
     195A      0.210416   196A      0.213483   197A      0.214177  
     198A      0.218699   199A      0.222484   200A      0.223909  
     201A      0.225260   202A      0.226516   203A      0.228310  
     204A      0.229983   205A      0.232844   206A      0.235205  
     207A      0.239165   208A      0.240523   209A      0.246413  
     210A      0.247998   211A      0.249043   212A      0.251970  
     213A      0.253872   214A      0.255088   215A      0.257898  
     216A      0.259405   217A      0.261503   218A      0.267048  
     219A      0.269035   220A      0.270218   221A      0.271469  
     222A      0.274325   223A      0.275873   224A      0.277736  
     225A      0.279584   226A      0.281429   227A      0.283083  
     228A      0.284735   229A      0.288192   230A      0.289130  
     231A      0.291061   232A      0.292045   233A      0.294947  
     234A      0.295881   235A      0.301639   236A      0.303411  
     237A      0.306376   238A      0.308107   239A      0.308695  
     240A      0.309744   241A      0.311809   242A      0.314682  
     243A      0.315492   244A      0.318035   245A      0.321317  
     246A      0.322381   247A      0.322965   248A      0.326835  
     249A      0.328026   250A      0.332369   251A      0.333755  
     252A      0.334994   253A      0.338441   254A      0.339908  
     255A      0.340325   256A      0.342385   257A      0.343165  
     258A      0.346243   259A      0.347173   260A      0.350601  
     261A      0.353089   262A      0.354502   263A      0.356687  
     264A      0.359484   265A      0.361318   266A      0.362559  
     267A      0.364941   268A      0.367072   269A      0.369018  
     270A      0.370711   271A      0.373197   272A      0.376810  
     273A      0.378065   274A      0.379832   275A      0.380551  
     276A      0.383909   277A      0.384607   278A      0.385606  
     279A      0.389618   280A      0.391523   281A      0.392751  
     282A      0.394085   283A      0.394833   284A      0.397605  
     285A      0.401366   286A      0.402821   287A      0.404194  
     288A      0.406005   289A      0.409132   290A      0.410776  
     291A      0.413012   292A      0.415453   293A      0.415876  
     294A      0.420422   295A      0.421758   296A      0.423345  
     297A      0.424818   298A      0.429834   299A      0.430267  
     300A      0.432718   301A      0.433947   302A      0.439785  
     303A      0.441212   304A      0.442516   305A      0.444323  
     306A      0.446561   307A      0.452119   308A      0.453013  
     309A      0.456106   310A      0.458953   311A      0.460833  
     312A      0.463962   313A      0.466912   314A      0.472202  
     315A      0.473254   316A      0.475477   317A      0.478304  
     318A      0.482196   319A      0.486143   320A      0.489137  
     321A      0.490413   322A      0.494968   323A      0.496779  
     324A      0.499088   325A      0.504062   326A      0.508547  
     327A      0.510287   328A      0.513533   329A      0.523604  
     330A      0.524297   331A      0.527707   332A      0.529897  
     333A      0.532994   334A      0.536586   335A      0.538442  
     336A      0.546558   337A      0.549034   338A      0.553282  
     339A      0.555489   340A      0.557630   341A      0.562724  
     342A      0.569628   343A      0.574172   344A      0.578115  
     345A      0.580932   346A      0.585652   347A      0.593036  
     348A      0.594612   349A      0.599620   350A      0.607565  
     351A      0.614980   352A      0.621152   353A      0.623555  
     354A      0.626402   355A      0.634205   356A      0.641542  
     357A      0.653245   358A      0.658234   359A      0.664733  
     360A      0.667624   361A      0.675730   362A      0.680133  
     363A      0.688304   364A      0.697113   365A      0.700868  
     366A      0.706329   367A      0.707977   368A      0.710398  
     369A      0.717422   370A      0.720508   371A      0.725928  
     372A      0.732534   373A      0.734693   374A      0.740540  
     375A      0.745308   376A      0.748662   377A      0.751587  
     378A      0.757411   379A      0.758247   380A      0.761147  
     381A      0.762462   382A      0.765493   383A      0.768864  
     384A      0.773254   385A      0.776001   386A      0.781714  
     387A      0.783941   388A      0.789676   389A      0.795044  
     390A      0.797323   391A      0.801440   392A      0.807822  
     393A      0.814845   394A      0.816600   395A      0.821432  
     396A      0.823474   397A      0.825405   398A      0.833280  
     399A      0.835724   400A      0.837204   401A      0.840023  
     402A      0.842590   403A      0.850272   404A      0.851787  
     405A      0.856187   406A      0.856455   407A      0.862640  
     408A      0.867675   409A      0.871610   410A      0.874666  
     411A      0.876715   412A      0.880715   413A      0.883589  
     414A      0.888449   415A      0.890620   416A      0.893604  
     417A      0.901898   418A      0.904907   419A      0.906781  
     420A      0.907682   421A      0.912547   422A      0.916116  
     423A      0.918048   424A      0.920364   425A      0.922191  
     426A      0.924491   427A      0.926735   428A      0.928936  
     429A      0.931026   430A      0.934801   431A      0.937833  
     432A      0.941302   433A      0.944979   434A      0.947645  
     435A      0.949614   436A      0.950721   437A      0.953031  
     438A      0.956898   439A      0.960738   440A      0.963217  
     441A      0.965560   442A      0.968255   443A      0.974950  
     444A      0.981528   445A      0.987408   446A      0.991530  
     447A      0.995394   448A      0.998446   449A      1.000371  
     450A      1.000892   451A      1.008385   452A      1.010887  
     453A      1.015586   454A      1.020299   455A      1.026367  
     456A      1.034885   457A      1.039700   458A      1.044740  
     459A      1.048254   460A      1.052759   461A      1.053675  
     462A      1.065730   463A      1.066309   464A      1.068457  
     465A      1.072939   466A      1.078579   467A      1.084214  
     468A      1.089952   469A      1.094335   470A      1.100829  
     471A      1.105398   472A      1.108199   473A      1.113828  
     474A      1.117612   475A      1.127510   476A      1.130354  
     477A      1.130800   478A      1.136931   479A      1.139908  
     480A      1.143807   481A      1.147668   482A      1.148213  
     483A      1.155918   484A      1.162132   485A      1.163453  
     486A      1.169568   487A      1.175471   488A      1.176633  
     489A      1.184214   490A      1.186598   491A      1.189584  
     492A      1.191196   493A      1.192159   494A      1.205328  
     495A      1.208600   496A      1.217184   497A      1.220372  
     498A      1.222871   499A      1.228540   500A      1.233414  
     501A      1.237472   502A      1.242534   503A      1.245044  
     504A      1.247503   505A      1.250251   506A      1.255808  
     507A      1.259394   508A      1.265929   509A      1.271398  
     510A      1.273089   511A      1.281133   512A      1.284333  
     513A      1.289013   514A      1.294209   515A      1.302109  
     516A      1.306064   517A      1.314015   518A      1.315015  
     519A      1.321576   520A      1.325372   521A      1.330172  
     522A      1.336801   523A      1.341944   524A      1.354434  
     525A      1.365948   526A      1.372504   527A      1.379965  
     528A      1.382683   529A      1.392231   530A      1.397101  
     531A      1.407305   532A      1.424405   533A      1.437687  
     534A      1.445783   535A      1.450943   536A      1.458287  
     537A      1.462022   538A      1.466854   539A      1.470435  
     540A      1.474246   541A      1.481653   542A      1.487760  
     543A      1.500971   544A      1.504996   545A      1.521839  
     546A      1.528359   547A      1.535273   548A      1.542540  
     549A      1.543497   550A      1.551696   551A      1.553483  
     552A      1.558319   553A      1.567470   554A      1.583435  
     555A      1.590181   556A      1.593291   557A      1.599059  
     558A      1.608723   559A      1.621883   560A      1.623567  
     561A      1.648130   562A      1.651653   563A      1.655747  
     564A      1.670044   565A      1.677793   566A      1.700304  
     567A      1.704770   568A      1.710982   569A      1.726465  
     570A      1.750989   571A      1.754489   572A      1.757617  
     573A      1.771367   574A      1.783080   575A      1.787649  
     576A      1.794255   577A      1.796870   578A      1.809375  
     579A      1.817367   580A      1.822356   581A      1.824941  
     582A      1.832285   583A      1.833823   584A      1.849068  
     585A      1.852844   586A      1.854245   587A      1.860622  
     588A      1.863663   589A      1.865468   590A      1.869280  
     591A      1.873607   592A      1.878201   593A      1.879566  
     594A      1.881278   595A      1.887120   596A      1.891990  
     597A      1.893841   598A      1.895695   599A      1.922614  
     600A      1.931971   601A      1.935778   602A      1.946150  
     603A      1.948446   604A      1.961136   605A      1.969422  
     606A      1.980063   607A      1.989431   608A      2.005779  
     609A      2.007207   610A      2.025948   611A      2.033403  
     612A      2.042598   613A      2.045103   614A      2.048986  
     615A      2.053821   616A      2.059463   617A      2.073286  
     618A      2.074591   619A      2.084507   620A      2.092849  
     621A      2.095672   622A      2.100025   623A      2.109555  
     624A      2.117732   625A      2.123098   626A      2.133879  
     627A      2.140504   628A      2.145272   629A      2.157179  
     630A      2.162475   631A      2.169595   632A      2.178055  
     633A      2.185768   634A      2.192051   635A      2.195662  
     636A      2.199375   637A      2.212017   638A      2.215303  
     639A      2.220037   640A      2.222229   641A      2.227410  
     642A      2.229449   643A      2.246150   644A      2.248522  
     645A      2.254882   646A      2.256625   647A      2.260008  
     648A      2.268433   649A      2.270837   650A      2.277891  
     651A      2.288129   652A      2.291654   653A      2.305516  
     654A      2.310359   655A      2.316037   656A      2.335623  
     657A      2.353257   658A      2.376562   659A      2.383293  
     660A      2.385644   661A      2.396431   662A      2.423313  
     663A      2.431273   664A      2.442659   665A      2.444569  
     666A      2.469794   667A      2.486025   668A      2.490675  
     669A      2.506949   670A      2.515993   671A      2.554860  
     672A      2.558614   673A      2.571598   674A      2.577240  
     675A      2.588279   676A      2.606627   677A      2.636895  
     678A      2.640643   679A      2.645796   680A      2.652747  
     681A      2.659724   682A      2.664986   683A      2.670928  
     684A      2.673595   685A      2.680322   686A      2.684110  
     687A      2.687089   688A      2.692696   689A      2.694657  
     690A      2.699245   691A      2.714293   692A      2.723606  
     693A      2.737217   694A      2.766205   695A      2.773867  
     696A      2.778133   697A      2.788529   698A      2.792203  
     699A      2.801771   700A      2.821129   701A      2.834511  
     702A      2.839982   703A      2.854529   704A      2.861180  
     705A      2.869867   706A      2.874071   707A      2.879631  
     708A      2.889029   709A      2.897706   710A      2.908782  
     711A      2.912043   712A      2.913593   713A      2.933501  
     714A      2.936737   715A      2.949867   716A      2.956981  
     717A      2.974345   718A      2.985614   719A      2.996802  
     720A      3.006873   721A      3.012363   722A      3.017725  
     723A      3.020903   724A      3.030087   725A      3.034762  
     726A      3.044456   727A      3.046628   728A      3.051311  
     729A      3.059395   730A      3.072726   731A      3.081336  
     732A      3.086492   733A      3.100461   734A      3.107268  
     735A      3.111783   736A      3.119415   737A      3.124809  
     738A      3.148569   739A      3.153249   740A      3.154980  
     741A      3.168229   742A      3.176211   743A      3.185993  
     744A      3.187906   745A      3.189421   746A      3.214848  
     747A      3.220173   748A      3.232083   749A      3.238602  
     750A      3.245350   751A      3.257181   752A      3.258343  
     753A      3.266619   754A      3.274795   755A      3.288113  
     756A      3.300013   757A      3.304694   758A      3.318431  
     759A      3.324117   760A      3.332955   761A      3.338056  
     762A      3.347855   763A      3.352916   764A      3.363915  
     765A      3.373394   766A      3.377382   767A      3.388193  
     768A      3.394965   769A      3.406764   770A      3.413388  
     771A      3.429678   772A      3.432759   773A      3.440862  
     774A      3.457298   775A      3.480042   776A      3.513729  
     777A      3.517804   778A      3.532725   779A      3.543687  
     780A      3.555331   781A      3.564504   782A      3.573871  
     783A      3.577962   784A      3.597609   785A      3.613705  
     786A      3.624898   787A      3.626174   788A      3.640655  
     789A      3.655972   790A      3.663972   791A      3.679859  
     792A      3.695425   793A      3.706548   794A      3.711271  
     795A      3.728175   796A      3.732058   797A      3.737913  
     798A      3.749081   799A      3.756517   800A      3.763818  
     801A      3.766382   802A      3.778070   803A      3.783447  
     804A      3.788719   805A      3.792730   806A      3.800359  
     807A      3.806272   808A      3.810593   809A      3.825023  
     810A      3.831661   811A      3.852461   812A      3.861657  
     813A      3.873485   814A      3.877006   815A      3.896501  
     816A      3.923153   817A      3.930339   818A      3.943030  
     819A      3.969505   820A      3.979226   821A      4.021372  
     822A      4.038906   823A      4.057027   824A      4.073982  
     825A      4.090554   826A      4.106836   827A      4.113899  
     828A      4.128829   829A      4.159883   830A      4.194924  
     831A      4.237123   832A      4.283885   833A      4.324118  
     834A      4.374920   835A      4.390621   836A      4.394742  
     837A      4.404016   838A      4.416407   839A      4.423534  
     840A      4.443657   841A      4.472847   842A      4.477891  
     843A      4.490134   844A      4.528070   845A      4.545908  
     846A      4.548908   847A      4.598680   848A      4.615496  
     849A      4.691400   850A      4.737449   851A      4.856712  
     852A      4.880591   853A      4.956648   854A      5.005971  
     855A      5.024437   856A      5.056038   857A      5.094704  
     858A      5.183223   859A      5.209020   860A      5.220715  
     861A      5.234302   862A      5.273496   863A      5.353743  
     864A      5.559835   865A      5.656798   866A      5.737076  
     867A      5.769869   868A      5.836769   869A      5.875036  
     870A      6.405979   871A     24.568589   872A     24.594927  
     873A     24.648884   874A     24.678957   875A     24.717813  
     876A     24.721129   877A     24.791486   878A     24.808139  
     879A     24.814731   880A     24.876476   881A     24.898042  
     882A     24.985926   883A     25.008693   884A     25.014432  
     885A     25.023928   886A     25.026107   887A     25.048563  
     888A     25.064615   889A     25.068906   890A     25.094835  
     891A     25.142439   892A     25.155090   893A     25.179698  
     894A     25.189762   895A     25.197801   896A     25.200292  
     897A     25.204936   898A     25.278616   899A     25.282115  
     900A     36.918398   901A     36.942372   902A     36.977918  
     903A     37.007812   904A     37.057251   905A     37.105136  
     906A     37.145828   907A     51.772464  

    Final Occupation by Irrep:
              A 
    DOCC [   131 ]

  @DF-RHF Final Energy: -1572.30732438796440

   => Energetics <=

    Nuclear Repulsion Energy =           3722.3373401910012035
    One-Electron Energy =               -9543.5838633170278626
    Two-Electron Energy =                4248.9391987380622595
    Total Energy =                      -1572.3073243879643996

Computation Completed


Properties will be evaluated at   0.000000,   0.000000,   0.000000 [a0]

Properties computed using the SCF density matrix

  Nuclear Dipole Moment: [e a0]
     X:   -40.1643      Y:    -3.9666      Z:    18.9570

  Electronic Dipole Moment: [e a0]
     X:    40.7801      Y:     5.7808      Z:   -18.5555

  Dipole Moment: [e a0]
     X:     0.6158      Y:     1.8142      Z:     0.4015     Total:     1.9575

  Dipole Moment: [D]
     X:     1.5652      Y:     4.6112      Z:     1.0205     Total:     4.9753


*** tstop() called on node35.bme.utexas.edu at Fri Apr 24 12:07:03 2020
Module time:
	user time   =    5570.95 seconds =      92.85 minutes
	system time =     288.13 seconds =       4.80 minutes
	total time  =       1075 seconds =      17.92 minutes
Total time:
	user time   =    5570.95 seconds =      92.85 minutes
	system time =     288.13 seconds =       4.80 minutes
	total time  =       1075 seconds =      17.92 minutes

*** tstart() called on node35.bme.utexas.edu
*** at Fri Apr 24 12:07:03 2020


  //>>>>>>>>>>>>>>>>>>>>>>>>>>>>>>>>>>>//
  //               DFMP2               //
  //<<<<<<<<<<<<<<<<<<<<<<<<<<<<<<<<<<<//

   => Loading Basis Set <=

    Name: (6-311+G* AUX)
    Role: RIFIT
    Keyword: DF_BASIS_MP2
    atoms 1-4, 6-9, 11, 14-19, 21-28, 30-31, 33-35, 37 entry C          line   148 file /home/bdw2292/miniconda3/envs/p4env/share/psi4/basis/heavy-aug-cc-pvtz-ri.gbs 
    atoms 5, 10, 12-13, 20, 29, 32                     entry N          line   206 file /home/bdw2292/miniconda3/envs/p4env/share/psi4/basis/heavy-aug-cc-pvtz-ri.gbs 
    atoms 36                                           entry O          line   264 file /home/bdw2292/miniconda3/envs/p4env/share/psi4/basis/heavy-aug-cc-pvtz-ri.gbs 
    atoms 38-68                                        entry H          line    44 file /home/bdw2292/miniconda3/envs/p4env/share/psi4/basis/heavy-aug-cc-pvtz-ri.gbs 

	 --------------------------------------------------------
	                          DF-MP2                         
	      2nd-Order Density-Fitted Moller-Plesset Theory     
	              RMP2 Wavefunction,   6 Threads             
	                                                         
	        Rob Parrish, Justin Turney, Andy Simmonett,      
	           Ed Hohenstein, and C. David Sherrill          
	 --------------------------------------------------------

   => Auxiliary Basis Set <=

  Basis Set: (6-311+G* AUX)
    Blend: HEAVY-AUG-CC-PVTZ-RI
    Number of shells: 1346
    Number of basis function: 4852
    Number of Cartesian functions: 6117
    Spherical Harmonics?: true
    Max angular momentum: 4

	 --------------------------------------------------------
	                 NBF =   907, NAUX =  4852
	 --------------------------------------------------------
	   CLASS    FOCC     OCC    AOCC    AVIR     VIR    FVIR
	   PAIRS      37     131      94     776     776       0
	 --------------------------------------------------------

	-----------------------------------------------------------
	 ==================> DF-MP2 Energies <==================== 
	-----------------------------------------------------------
	 Reference Energy          =   -1572.3073243879643996 [Eh]
	 Singles Energy            =      -0.0000000000000000 [Eh]
	 Same-Spin Energy          =      -1.4486858600477814 [Eh]
	 Opposite-Spin Energy      =      -3.8926430459260608 [Eh]
	 Correlation Energy        =      -5.3413289059738425 [Eh]
	 Total Energy              =   -1577.6486532939381959 [Eh]
	-----------------------------------------------------------
	 ================> DF-SCS-MP2 Energies <================== 
	-----------------------------------------------------------
	 SCS Same-Spin Scale       =       0.3333333333333333 [-]
	 SCS Opposite-Spin Scale   =       1.2000000000000000 [-]
	 SCS Same-Spin Energy      =      -0.4828952866825938 [Eh]
	 SCS Opposite-Spin Energy  =      -4.6711716551112730 [Eh]
	 SCS Correlation Energy    =      -5.1540669417938672 [Eh]
	 SCS Total Energy          =   -1577.4613913297582712 [Eh]
	-----------------------------------------------------------


*** tstop() called on node35.bme.utexas.edu at Fri Apr 24 12:15:20 2020
Module time:
	user time   =    2555.68 seconds =      42.59 minutes
	system time =     137.28 seconds =       2.29 minutes
	total time  =        497 seconds =       8.28 minutes
Total time:
	user time   =    8126.64 seconds =     135.44 minutes
	system time =     425.42 seconds =       7.09 minutes
	total time  =       1572 seconds =      26.20 minutes


Properties will be evaluated at   0.000000,   0.000000,   0.000000 [a0]
OEProp: No title given, name of density matrix used for the following properties is 'SCF density'


  Wiberg Bond Indices using Orthogonal Lowdin Orbitals:

  Irrep: 1 Size: 68 x 68

                 1                   2                   3                   4                   5

    1     0.00000000000000     1.51305913895117     0.12930726614937     0.14740330524484     0.12985946634537
    2     1.51305913895117     0.00000000000000     1.42157639724586     0.13144655178695     0.12582153678562
    3     0.12930726614937     1.42157639724586     0.00000000000000     1.38285591970994     0.12329263513959
    4     0.14740330524484     0.13144655178695     1.38285591970994     0.00000000000000     1.68363478742967
    5     0.12985946634537     0.12582153678562     0.12329263513959     1.68363478742967     0.00000000000000
    6     1.50811792703516     0.14350379283637     0.13970387757508     0.15740128000028     1.65273776185749
    7     0.01559814699653     0.10602687769732     1.02947900768795     0.10681343847999     0.01457573711380
    8     0.00416372151959     0.04702038201957     0.10122242535222     0.02503905104907     0.00237586716581
    9     0.00045903273317     0.00538933142537     0.01565872002925     0.00442455116171     0.00075450828621
   10     0.00046240677110     0.00563691741092     0.00603470886573     0.00630254967979     0.00034072096040
   11     0.00096981783524     0.00353403533423     0.01841975597926     0.00724418549568     0.00048004912771
   12     0.00299849838464     0.02244583906911     0.11959293511795     0.06400509159303     0.00412813755070
   13     0.00018725816683     0.00053414633298     0.00169947854167     0.00089422366289     0.00009211434925
   14     0.00004407698774     0.00012100383113     0.00058028964641     0.00115144490875     0.00009970618342
   15     0.00001374770418     0.00002919401177     0.00008534680064     0.00015896865146     0.00001690604421
   16     0.00000311929853     0.00000743674408     0.00004414358744     0.00016312061891     0.00001045912066
   17     0.00001261791508     0.00002016881805     0.00005867554096     0.00019983252616     0.00002727409629
   18     0.00001901673206     0.00004860612780     0.00025332947257     0.00138196816536     0.00013471224377
   19     0.00014522575992     0.00025306557018     0.00184899372537     0.00997540706892     0.00052140599973
   20     0.00002697372863     0.00004885998229     0.00021696573865     0.00142796089088     0.00040155906960
   21     0.00013816260439     0.00013684802440     0.00027418306286     0.00318009729772     0.00125801106355
   22     0.00020224777967     0.00013356711581     0.00020610447272     0.00274948050900     0.00606969699066
   23     0.00057768732662     0.00041457236882     0.00055047258632     0.00749530054733     0.01702642848327
   24     0.00017118887607     0.00021593370402     0.00020769802978     0.00141898747485     0.00752157961063
   25     0.00002572032495     0.00002551480832     0.00004753589268     0.00022961556092     0.00080278172559
   26     0.00002706191470     0.00001928676369     0.00004032910843     0.00057615918955     0.00128374492054
   27     0.00004871504439     0.00003133663505     0.00003327295059     0.00025218765866     0.00103957247329
   28     0.00000631062339     0.00000408476919     0.00000500850442     0.00003005706036     0.00005189425984
   29     0.00000183677644     0.00000085638508     0.00000211887799     0.00001112266120     0.00002488179554
   30     0.00000176724937     0.00000077604063     0.00000168319023     0.00000978998166     0.00002830858992
   31     0.00000302083800     0.00000202484209     0.00000335324266     0.00002535307525     0.00009120047953
   32     0.00000181036802     0.00000105374419     0.00000251564219     0.00001241596408     0.00002897674945
   33     0.00000038452992     0.00000024258163     0.00000055753672     0.00000253548586     0.00000827367246
   34     0.00000525511528     0.00000202162368     0.00000421562862     0.00002348465110     0.00004703574139
   35     0.00000200888888     0.00000088005466     0.00000184887400     0.00001323116566     0.00001901267530
   36     0.00001771681334     0.00001690143037     0.00006056257127     0.00067397371386     0.00022607975605
   37     0.00000362955626     0.00001151075951     0.00004973664839     0.00004993895081     0.00000371096573
   38     0.84246943323769     0.05695074580595     0.00957218557139     0.00276539721091     0.00794333934543
   39     0.05364119911517     0.82988321350515     0.05195170577052     0.00963123250813     0.00125552802998
   40     0.00205332773365     0.00821013737490     0.04975142561588     0.80823908556091     0.06207028261578
   41     0.05506212325039     0.00974917769925     0.00258443546145     0.01282669970416     0.06458079838428
   42     0.00079142832196     0.01109994320054     0.01128729142030     0.00057831848695     0.00016554551963
   43     0.00003677788657     0.00021301248486     0.00109223191982     0.00026101754460     0.00006445574806
   44     0.00001326144520     0.00005065231837     0.00023335557923     0.00004119520487     0.00000592005207
   45     0.00000046715713     0.00000136291368     0.00000762101486     0.00001406550204     0.00000067891426
   46     0.00000097306949     0.00000197167787     0.00000753781667     0.00002238530159     0.00000555620758
   47     0.00003599034011     0.00006720086297     0.00118078722615     0.00465374491888     0.00028907548894
   48     0.00000307644929     0.00000253146701     0.00001157958308     0.00004174480544     0.00003313319831
   49     0.00005967128451     0.00004514295319     0.00006548147253     0.00191722591532     0.00139241751868
   50     0.00000164420050     0.00000298118029     0.00000467954194     0.00001152931507     0.00007661763364
   51     0.00000067058415     0.00000079448961     0.00000201004203     0.00001166758775     0.00000522004109
   52     0.00000150389589     0.00000132186463     0.00000162143218     0.00000909808537     0.00001309042785
   53     0.00000081112442     0.00000017173302     0.00000065542975     0.00000616077230     0.00000982859654
   54     0.00000053719558     0.00000034027082     0.00000125418669     0.00000869815598     0.00001191900892
   55     0.00000052479268     0.00000007357988     0.00000051153431     0.00000245848824     0.00000832287460
   56     0.00000065539705     0.00000037412591     0.00000066570393     0.00000216703027     0.00000791843839
   57     0.00000007389744     0.00000004746948     0.00000006972481     0.00000024308945     0.00000147333152
   58     0.00000189040588     0.00000133128497     0.00000226527562     0.00001287548199     0.00005275482518
   59     0.00000004070545     0.00000002967970     0.00000006270572     0.00000021519978     0.00000038792948
   60     0.00000000863904     0.00000002523235     0.00000002487790     0.00000014578542     0.00000067486074
   61     0.00000002563424     0.00000002974386     0.00000002228148     0.00000013756947     0.00000032704246
   62     0.00000006804775     0.00000002880874     0.00000005148563     0.00000099961565     0.00000102908496
   63     0.00000534535931     0.00000202781587     0.00000459772381     0.00002616805904     0.00005378324698
   64     0.00000136688128     0.00000024630093     0.00000097711986     0.00000494403661     0.00000719203225
   65     0.00000026272617     0.00000017622168     0.00000028773692     0.00000108936306     0.00000449289288
   66     0.00000085725736     0.00000170549730     0.00001097717050     0.00000804074173     0.00000040200283
   67     0.00000073401924     0.00000129600406     0.00000619120165     0.00000873369010     0.00000046422400
   68     0.00000030382045     0.00000086850059     0.00000399557111     0.00000705998490     0.00000032878919

                 6                   7                   8                   9                  10

    1     1.50811792703516     0.01559814699653     0.00416372151959     0.00045903273317     0.00046240677110
    2     0.14350379283637     0.10602687769732     0.04702038201957     0.00538933142537     0.00563691741092
    3     0.13970387757508     1.02947900768795     0.10122242535222     0.01565872002925     0.00603470886573
    4     0.15740128000028     0.10681343847999     0.02503905104907     0.00442455116171     0.00630254967979
    5     1.65273776185749     0.01457573711380     0.00237586716581     0.00075450828621     0.00034072096040
    6     0.00000000000000     0.01042941385777     0.00737011666486     0.00137221629465     0.00351845543390
    7     0.01042941385777     0.00000000000000     1.40620102161820     0.14978249067052     0.11311589696676
    8     0.00737011666486     1.40620102161820     0.00000000000000     1.47843268044725     0.13653447401255
    9     0.00137221629465     0.14978249067052     1.47843268044725     0.00000000000000     1.68168276565908
   10     0.00351845543390     0.11311589696676     0.13653447401255     1.68168276565908     0.00000000000000
   11     0.00092081257288     0.14349917468544     0.11695063959817     0.15430700805222     1.51180488385277
   12     0.00627211836788     1.53361593887337     0.12795547100382     0.11275013533440     0.11096952737140
   13     0.00008258873355     0.01980731636188     0.02199215988601     0.02565548116772     0.16866356836881
   14     0.00005235562354     0.00296387946970     0.00266711265300     0.00349100550755     0.01791276553535
   15     0.00000722950288     0.00053577825894     0.00157013028162     0.00103494658352     0.00343582538081
   16     0.00000404527750     0.00016675435423     0.00021577211443     0.00018485051209     0.00053997962405
   17     0.00000655018044     0.00027865440734     0.00145111846355     0.00048075835336     0.00142285794390
   18     0.00003824807085     0.00051826702366     0.00027639405983     0.00016387644293     0.00047900311211
   19     0.00020065786667     0.00562416233559     0.00338432238510     0.00159670810996     0.00457894026556
   20     0.00006445757358     0.00009838533686     0.00002879588726     0.00002277776266     0.00006547407270
   21     0.00016426888689     0.00007503317247     0.00003037764663     0.00001415628945     0.00002828154856
   22     0.00051919613774     0.00004004306247     0.00001236911705     0.00000470477120     0.00000872489471
   23     0.00204193122775     0.00008410530869     0.00003040078308     0.00000734719224     0.00001017635247
   24     0.00130980760266     0.00002456143907     0.00001404600008     0.00000311711085     0.00000274227363
   25     0.00016114284963     0.00000611114537     0.00000224551422     0.00000050643887     0.00000084035411
   26     0.00022295892741     0.00000707373778     0.00000211624685     0.00000060839744     0.00000040989623
   27     0.00028368162870     0.00000697487815     0.00000308796113     0.00000107822551     0.00000184587401
   28     0.00002339702127     0.00000092129121     0.00000026519016     0.00000008896222     0.00000010562763
   29     0.00001590933318     0.00000027745238     0.00000009688487     0.00000003266872     0.00000003343536
   30     0.00001405420350     0.00000033979674     0.00000015740899     0.00000004375621     0.00000003584709
   31     0.00003246279986     0.00000073414254     0.00000020871750     0.00000009548675     0.00000008073409
   32     0.00001815166333     0.00000055624827     0.00000017976335     0.00000002521811     0.00000002216050
   33     0.00000480743640     0.00000017775405     0.00000004690395     0.00000001451222     0.00000001120175
   34     0.00004446652367     0.00000146410539     0.00000035070031     0.00000009782314     0.00000006498902
   35     0.00001305557512     0.00000059110793     0.00000016797681     0.00000003371901     0.00000003209112
   36     0.00002594777645     0.00002573775262     0.00001701204454     0.00000569977825     0.00002149985764
   37     0.00000337577647     0.00018730795055     0.00017344734149     0.00017468237347     0.00096779619241
   38     0.05963638129457     0.00092622677905     0.00017933961871     0.00003363914608     0.00001798291487
   39     0.00970234154627     0.01299227187721     0.01158134434853     0.00080837238284     0.00019554111733
   40     0.01172009030290     0.01203431393142     0.00071768829280     0.00018842007086     0.00024648834454
   41     0.84006830601868     0.00033719648859     0.00008377192119     0.00002628937718     0.00001187757599
   42     0.00021852557251     0.05511658439762     0.82708855242876     0.05793800697157     0.00719274735173
   43     0.00003637512513     0.00943415254621     0.05394358362739     0.83790340455098     0.06646461449083
   44     0.00000438831786     0.00113212849805     0.00064472511536     0.00210277570407     0.01942956584266
   45     0.00000050481374     0.00001860254140     0.00000757250390     0.00002433525938     0.00005306027261
   46     0.00000152761412     0.00001874116707     0.00000716818392     0.00000546617395     0.00001467117417
   47     0.00008145755260     0.00247497219368     0.00037727132909     0.00019869888487     0.00021049359988
   48     0.00000402820110     0.00000581730442     0.00000174685247     0.00000142988409     0.00000547596224
   49     0.00015131006466     0.00000667619297     0.00000155642498     0.00000059575746     0.00000131993831
   50     0.00002403859721     0.00000095441092     0.00000032203127     0.00000004988620     0.00000010601363
   51     0.00000264914324     0.00000047672265     0.00000006835035     0.00000002480280     0.00000004039581
   52     0.00000375074545     0.00000094452873     0.00000016624390     0.00000005411613     0.00000013458347
   53     0.00000754857137     0.00000007903242     0.00000002825783     0.00000000657632     0.00000000641667
   54     0.00000196820051     0.00000017178879     0.00000004996547     0.00000001324128     0.00000001276396
   55     0.00000186483042     0.00000008011347     0.00000005212802     0.00000000796572     0.00000000292202
   56     0.00001222173260     0.00000004811508     0.00000004796619     0.00000001860912     0.00000000621321
   57     0.00000041578386     0.00000002360976     0.00000000390961     0.00000000269426     0.00000000137851
   58     0.00001895244176     0.00000046190697     0.00000010324403     0.00000004931206     0.00000002882705
   59     0.00000027526826     0.00000003725547     0.00000000953267     0.00000000172019     0.00000000425606
   60     0.00000018185222     0.00000000973991     0.00000000213091     0.00000000126438     0.00000000115792
   61     0.00000049930531     0.00000000583140     0.00000000193792     0.00000000192958     0.00000000066389
   62     0.00000164335397     0.00000001407051     0.00000001343466     0.00000000295426     0.00000000121434
   63     0.00004895292528     0.00000155587421     0.00000036160973     0.00000009124779     0.00000005387389
   64     0.00000764446868     0.00000036828384     0.00000004417770     0.00000001584139     0.00000000438096
   65     0.00000531889386     0.00000006865536     0.00000004823839     0.00000000349517     0.00000000496961
   66     0.00000026026355     0.00003428176579     0.00006503443750     0.00001977435320     0.00011723152661
   67     0.00000036194679     0.00002732735661     0.00009499947322     0.00001732829914     0.00016110164042
   68     0.00000017044097     0.00001430621843     0.00000570444731     0.00000337667555     0.00003551934055

                11                  12                  13                  14                  15

    1     0.00096981783524     0.00299849838464     0.00018725816683     0.00004407698774     0.00001374770418
    2     0.00353403533423     0.02244583906911     0.00053414633298     0.00012100383113     0.00002919401177
    3     0.01841975597926     0.11959293511795     0.00169947854167     0.00058028964641     0.00008534680064
    4     0.00724418549568     0.06400509159303     0.00089422366289     0.00115144490875     0.00015896865146
    5     0.00048004912771     0.00412813755070     0.00009211434925     0.00009970618342     0.00001690604421
    6     0.00092081257288     0.00627211836788     0.00008258873355     0.00005235562354     0.00000722950288
    7     0.14349917468544     1.53361593887337     0.01980731636188     0.00296387946970     0.00053577825894
    8     0.11695063959817     0.12795547100382     0.02199215988601     0.00266711265300     0.00157013028162
    9     0.15430700805222     0.11275013533440     0.02565548116772     0.00349100550755     0.00103494658352
   10     1.51180488385277     0.11096952737140     0.16866356836881     0.01791276553535     0.00343582538081
   11     0.00000000000000     1.54437689619032     1.29952590623666     0.08515642790658     0.01844794180462
   12     1.54437689619032     0.00000000000000     0.14446353428453     0.02946785321378     0.00366587217646
   13     1.29952590623666     0.14446353428453     0.00000000000000     1.15237433509692     0.11081471391924
   14     0.08515642790658     0.02946785321378     1.15237433509692     0.00000000000000     1.32806443773923
   15     0.01844794180462     0.00366587217646     0.11081471391924     1.32806443773923     0.00000000000000
   16     0.00255672704724     0.00112226466791     0.01521926682575     0.12767078449318     1.46821107864476
   17     0.00435889259328     0.00268952180955     0.01384577669850     0.12674031561839     0.12682924375931
   18     0.00256445318915     0.00459216251914     0.01398037967225     0.12730382776157     0.12559188582115
   19     0.02931861752772     0.05441260575931     0.11387941108403     1.42232099486503     0.12395234063557
   20     0.00036596550746     0.00082552422242     0.00138194102819     0.01526327026015     0.00792104404486
   21     0.00013829794901     0.00029648562598     0.00041740843360     0.00341560944482     0.00354803835061
   22     0.00002615489225     0.00011120613005     0.00004483384733     0.00043634758354     0.00034156086152
   23     0.00002261418389     0.00013949899630     0.00003055953732     0.00023603189830     0.00018720863466
   24     0.00000307593618     0.00001358732547     0.00000536046553     0.00002940617454     0.00004171073461
   25     0.00000168852881     0.00000461751842     0.00000584634380     0.00003733033762     0.00000876389209
   26     0.00000183143259     0.00000474047327     0.00000306314583     0.00002488661399     0.00002961000438
   27     0.00000597966098     0.00001619998524     0.00001865591485     0.00013028223846     0.00009712944475
   28     0.00000029501781     0.00000081322337     0.00000049405665     0.00000384647505     0.00000195535781
   29     0.00000013265180     0.00000021976664     0.00000036507132     0.00000208999525     0.00000043374094
   30     0.00000009336706     0.00000021576879     0.00000015382477     0.00000072246209     0.00000037725578
   31     0.00000011536594     0.00000054128617     0.00000012898148     0.00000097301936     0.00000103197983
   32     0.00000007065479     0.00000021759051     0.00000007115065     0.00000047360304     0.00000027980198
   33     0.00000003936713     0.00000005785395     0.00000001782130     0.00000031942963     0.00000017110589
   34     0.00000019301378     0.00000065473910     0.00000011484192     0.00000157306102     0.00000135295235
   35     0.00000007514769     0.00000025072802     0.00000016295072     0.00000107338659     0.00000039615223
   36     0.00005264763401     0.00011307189461     0.00019432809706     0.00192008840279     0.00158338718335
   37     0.00432454599851     0.00097199100828     0.04336161336406     0.10063413768036     1.11439150783635
   38     0.00007128862189     0.00025003825632     0.00001141417611     0.00000700973679     0.00000076653485
   39     0.00014372649564     0.00036743763057     0.00004940115165     0.00002335656141     0.00000414912791
   40     0.00175063254850     0.01747147825644     0.00017051450193     0.00061400494199     0.00006706909398
   41     0.00002503825935     0.00009038345404     0.00000375019375     0.00000353112022     0.00000061587352
   42     0.00286498952855     0.00754317705486     0.00030423094238     0.00004290975888     0.00001432302159
   43     0.01308105979383     0.00139037572483     0.00082525527180     0.00029684149057     0.00004478127381
   44     0.04507397374429     0.00610757651745     0.79082507416419     0.03791426635421     0.01004568090283
   45     0.00033214546180     0.00003979505433     0.00088414475165     0.00935792835783     0.05423552633567
   46     0.00004521030093     0.00008964156316     0.00016415936947     0.00229336178257     0.00875946211746
   47     0.00686534803249     0.02307115706521     0.01150171154850     0.05109917140359     0.00754564761509
   48     0.00002165807208     0.00003048364229     0.00006237606728     0.00072995831162     0.00266838149909
   49     0.00000294001855     0.00002403100909     0.00000363732933     0.00001635692725     0.00002862420273
   50     0.00000017685223     0.00000032380440     0.00000022259575     0.00000154624336     0.00000064370728
   51     0.00000017335836     0.00000026938049     0.00000021086457     0.00000302701456     0.00000259343622
   52     0.00000115827924     0.00000265340355     0.00000075960147     0.00001395567309     0.00000753984274
   53     0.00000002293331     0.00000007102879     0.00000011157390     0.00000057272910     0.00000024050474
   54     0.00000001915695     0.00000002374560     0.00000006605977     0.00000039691857     0.00000018720093
   55     0.00000000881885     0.00000001682154     0.00000001076467     0.00000010811905     0.00000006806003
   56     0.00000004638836     0.00000003928652     0.00000001811273     0.00000009956131     0.00000006700808
   57     0.00000000466017     0.00000000509407     0.00000001014349     0.00000006569377     0.00000002226970
   58     0.00000003861565     0.00000047689295     0.00000002137396     0.00000031157389     0.00000058897252
   59     0.00000000980156     0.00000000777428     0.00000000257506     0.00000008792504     0.00000004925204
   60     0.00000000508725     0.00000000567550     0.00000000147209     0.00000003482245     0.00000001954980
   61     0.00000000710667     0.00000000593624     0.00000000092430     0.00000001261767     0.00000001447896
   62     0.00000000493904     0.00000002005882     0.00000000530666     0.00000003919715     0.00000003516317
   63     0.00000013534544     0.00000061563702     0.00000003456206     0.00000062744329     0.00000035796126
   64     0.00000004236748     0.00000006896657     0.00000000997307     0.00000045252620     0.00000008138284
   65     0.00000000939570     0.00000002938163     0.00000001968482     0.00000007910949     0.00000004561423
   66     0.00068463825816     0.00020244949974     0.00764879890245     0.01381367501351     0.04141473351117
   67     0.00076235392380     0.00021688461145     0.00793925822361     0.01368040601511     0.04198826505954
   68     0.00019691164148     0.00006325854916     0.00168451333307     0.00678458515581     0.04506592568053

                16                  17                  18                  19                  20

    1     0.00000311929853     0.00001261791508     0.00001901673206     0.00014522575992     0.00002697372863
    2     0.00000743674408     0.00002016881805     0.00004860612780     0.00025306557018     0.00004885998229
    3     0.00004414358744     0.00005867554096     0.00025332947257     0.00184899372537     0.00021696573865
    4     0.00016312061891     0.00019983252616     0.00138196816536     0.00997540706892     0.00142796089088
    5     0.00001045912066     0.00002727409629     0.00013471224377     0.00052140599973     0.00040155906960
    6     0.00000404527750     0.00000655018044     0.00003824807085     0.00020065786667     0.00006445757358
    7     0.00016675435423     0.00027865440734     0.00051826702366     0.00562416233559     0.00009838533686
    8     0.00021577211443     0.00145111846355     0.00027639405983     0.00338432238510     0.00002879588726
    9     0.00018485051209     0.00048075835336     0.00016387644293     0.00159670810996     0.00002277776266
   10     0.00053997962405     0.00142285794390     0.00047900311211     0.00457894026556     0.00006547407270
   11     0.00255672704724     0.00435889259328     0.00256445318915     0.02931861752772     0.00036596550746
   12     0.00112226466791     0.00268952180955     0.00459216251914     0.05441260575931     0.00082552422242
   13     0.01521926682575     0.01384577669850     0.01398037967225     0.11387941108403     0.00138194102819
   14     0.12767078449318     0.12674031561839     0.12730382776157     1.42232099486503     0.01526327026015
   15     1.46821107864476     0.12682924375931     0.12559188582115     0.12395234063557     0.00792104404486
   16     0.00000000000000     1.49072306740914     0.13733930584695     0.13334181986728     0.01455636475913
   17     1.49072306740914     0.00000000000000     1.43903689292837     0.12864510707762     0.11412281305290
   18     0.13733930584695     1.43903689292837     0.00000000000000     1.40420955285100     1.14397748229148
   19     0.13334181986728     0.12864510707762     1.40420955285100     0.00000000000000     0.13124108208305
   20     0.01455636475913     0.11412281305290     1.14397748229148     0.13124108208305     0.00000000000000
   21     0.00298248418115     0.02509540750458     0.09558558286931     0.02966096682164     1.34156015454431
   22     0.00046263299786     0.00290675731261     0.01560460796769     0.00375003657740     0.10721423826574
   23     0.00017300892776     0.00102613655228     0.00484242191106     0.00227814555556     0.04650998775616
   24     0.00002695070416     0.00016096334150     0.00054978390318     0.00025870465271     0.00405738164232
   25     0.00001436508270     0.00011318536202     0.00052255518569     0.00020741712978     0.00358563835515
   26     0.00002453550470     0.00011956927903     0.00054740478095     0.00015911128636     0.00272965749478
   27     0.00010655026676     0.00055452681904     0.00268410195694     0.00073117155532     0.01889699999092
   28     0.00000247178056     0.00001454635588     0.00005820452241     0.00002545252725     0.00030926051276
   29     0.00000072078716     0.00000535830381     0.00002886517328     0.00001054825647     0.00017510537634
   30     0.00000045528384     0.00000273596788     0.00000908478195     0.00000376474585     0.00003710623746
   31     0.00000056606131     0.00000287109701     0.00001003557857     0.00000617913362     0.00003510505230
   32     0.00000020709913     0.00000058430524     0.00000348521067     0.00000310981751     0.00000935978517
   33     0.00000019293367     0.00000054203735     0.00000184669556     0.00000074757805     0.00000269723291
   34     0.00000093300351     0.00000378207993     0.00001035004490     0.00000788534605     0.00003744654271
   35     0.00000080719604     0.00000264886915     0.00000970944785     0.00000491466121     0.00004556388308
   36     0.00196988876415     0.01522850129220     0.04329446603953     0.01430753694220     0.20548557915983
   37     0.12277438253432     0.01593534217040     0.00780177843956     0.01517209558948     0.00053228936762
   38     0.00000045496702     0.00000045500939     0.00000449937871     0.00002310772639     0.00000389257967
   39     0.00000113628830     0.00000148431270     0.00000411743222     0.00002689190148     0.00000384828953
   40     0.00007064206175     0.00007425314752     0.00089562563550     0.00479783683742     0.00067113521777
   41     0.00000034423187     0.00000038978009     0.00000133295752     0.00001066110898     0.00000260361233
   42     0.00000431014462     0.00000486817816     0.00001993829765     0.00011501531561     0.00000587614774
   43     0.00001158500104     0.00000440654440     0.00001164494668     0.00007087465716     0.00000100977707
   44     0.00069776382417     0.00029674337617     0.00075833906894     0.00645197781022     0.00020299531199
   45     0.83135189076639     0.05641727335503     0.00969493773562     0.00230310964811     0.00077132742624
   46     0.05575630184059     0.82799637514541     0.05531425917798     0.00908010104067     0.01369075363723
   47     0.00216589646144     0.00766383611098     0.05020481853439     0.78899689480805     0.01930506218319
   48     0.00071548757228     0.01047723741935     0.03821556442881     0.01152694810398     0.79249576812039
   49     0.00002587583263     0.00016066837121     0.00118801150596     0.00065623828473     0.01173846318542
   50     0.00000128943784     0.00000946644294     0.00002263849885     0.00000960288689     0.00011904764126
   51     0.00000312477563     0.00001629318086     0.00006273155194     0.00002134586345     0.00023800501112
   52     0.00001061907956     0.00004611915608     0.00012799217338     0.00005270513673     0.00063835887247
   53     0.00000044826546     0.00000201418614     0.00000968050080     0.00000350490171     0.00003261607821
   54     0.00000044886138     0.00000234980474     0.00000935527296     0.00000448751186     0.00004453265070
   55     0.00000005788059     0.00000032110275     0.00000118759573     0.00000054802972     0.00000347765769
   56     0.00000004682813     0.00000075978391     0.00000284275985     0.00000073215424     0.00000804784313
   57     0.00000001874084     0.00000005170229     0.00000018818730     0.00000016667915     0.00000175486738
   58     0.00000012066299     0.00000097712065     0.00000267704910     0.00000256054632     0.00001560688126
   59     0.00000006185412     0.00000010163774     0.00000039355757     0.00000004222339     0.00000030240530
   60     0.00000002092644     0.00000006522019     0.00000011261222     0.00000003101895     0.00000024584678
   61     0.00000001178808     0.00000009305866     0.00000021643241     0.00000002707279     0.00000028271522
   62     0.00000002759635     0.00000008823148     0.00000035946006     0.00000027597413     0.00000199489784
   63     0.00000031821367     0.00000115483479     0.00000378628274     0.00000462272311     0.00003435754872
   64     0.00000007140657     0.00000054240866     0.00000168765563     0.00000161537254     0.00000742174144
   65     0.00000004193700     0.00000022650011     0.00000113689003     0.00000029178451     0.00000559957494
   66     0.01281478597911     0.00082036954472     0.00302240794483     0.00081149725647     0.00020263979787
   67     0.01267084930879     0.00083449445448     0.00275236716101     0.00088666074662     0.00015526226358
   68     0.01959395274740     0.00143976416890     0.00033623124489     0.00074278036811     0.00007289036401

                21                  22                  23                  24                  25

    1     0.00013816260439     0.00020224777967     0.00057768732662     0.00017118887607     0.00002572032495
    2     0.00013684802440     0.00013356711581     0.00041457236882     0.00021593370402     0.00002551480832
    3     0.00027418306286     0.00020610447272     0.00055047258632     0.00020769802978     0.00004753589268
    4     0.00318009729772     0.00274948050900     0.00749530054733     0.00141898747485     0.00022961556092
    5     0.00125801106355     0.00606969699066     0.01702642848327     0.00752157961063     0.00080278172559
    6     0.00016426888689     0.00051919613774     0.00204193122775     0.00130980760266     0.00016114284963
    7     0.00007503317247     0.00004004306247     0.00008410530869     0.00002456143907     0.00000611114537
    8     0.00003037764663     0.00001236911705     0.00003040078308     0.00001404600008     0.00000224551422
    9     0.00001415628945     0.00000470477120     0.00000734719224     0.00000311711085     0.00000050643887
   10     0.00002828154856     0.00000872489471     0.00001017635247     0.00000274227363     0.00000084035411
   11     0.00013829794901     0.00002615489225     0.00002261418389     0.00000307593618     0.00000168852881
   12     0.00029648562598     0.00011120613005     0.00013949899630     0.00001358732547     0.00000461751842
   13     0.00041740843360     0.00004483384733     0.00003055953732     0.00000536046553     0.00000584634380
   14     0.00341560944482     0.00043634758354     0.00023603189830     0.00002940617454     0.00003733033762
   15     0.00354803835061     0.00034156086152     0.00018720863466     0.00004171073461     0.00000876389209
   16     0.00298248418115     0.00046263299786     0.00017300892776     0.00002695070416     0.00001436508270
   17     0.02509540750458     0.00290675731261     0.00102613655228     0.00016096334150     0.00011318536202
   18     0.09558558286931     0.01560460796769     0.00484242191106     0.00054978390318     0.00052255518569
   19     0.02966096682164     0.00375003657740     0.00227814555556     0.00025870465271     0.00020741712978
   20     1.34156015454431     0.10721423826574     0.04650998775616     0.00405738164232     0.00358563835515
   21     0.00000000000000     0.98028481673264     0.10884344057157     0.01561389719273     0.01170019753710
   22     0.98028481673264     0.00000000000000     1.42372127974186     0.13294613671837     0.12638718747505
   23     0.10884344057157     1.42372127974186     0.00000000000000     1.50308370145976     0.13101056661297
   24     0.01561389719273     0.13294613671837     1.50308370145976     0.00000000000000     1.42902128762051
   25     0.01170019753710     0.12638718747505     0.13101056661297     1.42902128762051     0.00000000000000
   26     0.01574114193896     0.13215062018761     0.13630245514969     0.12979157354148     1.42424242390255
   27     0.11536643221652     1.41017279123161     0.12742529128490     0.13896485349197     0.13168806716050
   28     0.00089597759311     0.00985815475152     0.01606782219223     0.11377530686227     1.05509525385959
   29     0.00042129224762     0.00451442129583     0.00235772005924     0.02420490887923     0.09177817202376
   30     0.00012172804105     0.00107170553622     0.00224082099934     0.01898765356151     0.02229199220407
   31     0.00009276193423     0.00132351353653     0.00980783847546     0.02807853307957     0.01744674808178
   32     0.00008289629998     0.00070795228054     0.00109491689579     0.00327622127338     0.00435535469239
   33     0.00001693404584     0.00015399272875     0.00032500640097     0.00097101792358     0.00137558971102
   34     0.00024019214322     0.00358419479306     0.00343901813746     0.00968602583246     0.02517785753316
   35     0.00016601784489     0.00130317339902     0.00142432383824     0.00645530704955     0.02559795790549
   36     2.19721836872715     0.14100313339884     0.02645649409932     0.00339333198355     0.00640570040951
   37     0.00026881143466     0.00003929920658     0.00002334389520     0.00000430845848     0.00000195482608
   38     0.00000778782197     0.00000632444611     0.00001225880076     0.00000943407359     0.00000122065279
   39     0.00000273584500     0.00000656044779     0.00001663963846     0.00000946421151     0.00000337948508
   40     0.00166831609198     0.00064362873991     0.00104904355175     0.00003086322865     0.00002228239192
   41     0.00000730657786     0.00002172114156     0.00002814129756     0.00002249292797     0.00000861485026
   42     0.00000694695302     0.00000340601973     0.00000800971020     0.00000180394266     0.00000015477901
   43     0.00000135170812     0.00000080664919     0.00000136067364     0.00000082579092     0.00000014321913
   44     0.00004405843989     0.00000761157509     0.00000388775794     0.00000075601485     0.00000108684783
   45     0.00023122488481     0.00005262842722     0.00003995498193     0.00000425270124     0.00000102129766
   46     0.00346838877053     0.00022819596416     0.00007661652962     0.00001630026071     0.00001163432873
   47     0.00474401471062     0.00057422178221     0.00046495828018     0.00000963899677     0.00000911593624
   48     0.04631677569039     0.01110588888854     0.00849406842916     0.00083474411417     0.00033848484242
   49     0.01449356054329     0.05441541309800     0.81971579861535     0.05446817203153     0.00877316621248
   50     0.00096434746284     0.00920035943569     0.05530654252260     0.82130696773628     0.05341207470911
   51     0.00096596817390     0.00924776466890     0.00209730440033     0.00917745403131     0.05384724853720
   52     0.01614077320239     0.05301937429471     0.00909978313170     0.00206702685951     0.00880542296244
   53     0.00012753725162     0.00094411712401     0.00095286659812     0.01525556902851     0.04187000526521
   54     0.00008436513326     0.00050698205098     0.00083444734573     0.00697873595259     0.04309807597615
   55     0.00001606691152     0.00006746458670     0.00020010520422     0.00511633403797     0.00450803709973
   56     0.00003506055695     0.00024491621775     0.00041842443989     0.00082318456582     0.00123763691792
   57     0.00000314086359     0.00004762205810     0.00009916063941     0.00053246889927     0.00034229003116
   58     0.00002523863917     0.00064354823973     0.00514814389567     0.01570805295577     0.00684442046124
   59     0.00000156324653     0.00000618917384     0.00001411877658     0.00005540389168     0.00006801504513
   60     0.00000053412947     0.00000631964907     0.00002543150673     0.00009078774218     0.00006828148899
   61     0.00000178651505     0.00001455745777     0.00002294309805     0.00004709422837     0.00008263566911
[...]
   15     0.00000006700808     0.00000002226970     0.00000058897252     0.00000004925204     0.00000001954980
   16     0.00000004682813     0.00000001874084     0.00000012066299     0.00000006185412     0.00000002092644
   17     0.00000075978391     0.00000005170229     0.00000097712065     0.00000010163774     0.00000006522019
   18     0.00000284275985     0.00000018818730     0.00000267704910     0.00000039355757     0.00000011261222
   19     0.00000073215424     0.00000016667915     0.00000256054632     0.00000004222339     0.00000003101895
   20     0.00000804784313     0.00000175486738     0.00001560688126     0.00000030240530     0.00000024584678
   21     0.00003506055695     0.00000314086359     0.00002523863917     0.00000156324653     0.00000053412947
   22     0.00024491621775     0.00004762205810     0.00064354823973     0.00000618917384     0.00000631964907
   23     0.00041842443989     0.00009916063941     0.00514814389567     0.00001411877658     0.00002543150673
   24     0.00082318456582     0.00053246889927     0.01570805295577     0.00005540389168     0.00009078774218
   25     0.00123763691792     0.00034229003116     0.00684442046124     0.00006801504513     0.00006828148899
   26     0.00048188822544     0.00011715544060     0.00160295337562     0.00005580357298     0.00002811700062
   27     0.00014181081683     0.00004430590139     0.00122666678543     0.00001041604298     0.00001661102312
   28     0.01107132913729     0.00063163139283     0.00397842860883     0.00023089163079     0.00004468584241
   29     0.06046248817565     0.00996650469964     0.00889510535251     0.00128226945479     0.00011972450305
   30     0.79542111776317     0.04731515333309     0.03412213075084     0.00835767625696     0.00234056582001
   31     0.04398328184782     0.83564640055760     0.81425634888477     0.01251729360511     0.01532188843890
   32     0.01112102933531     0.04374319462486     0.04675476554733     0.04900985844557     0.04791541900570
   33     0.01267338147192     0.01911479286265     0.00915430169103     0.89241736388688     0.90400505934690
   34     0.00642510227737     0.01264716714755     0.01361227382605     0.01283459269929     0.01040723623550
   35     0.01815280508720     0.00116421469336     0.00490001658709     0.00814705548071     0.00098576870020
   36     0.00001502343251     0.00000247424637     0.00001689085631     0.00000060543167     0.00000036744766
   37     0.00000002973647     0.00000000162090     0.00000004635841     0.00000002594302     0.00000000319995
   38     0.00000005288126     0.00000000942684     0.00000017616471     0.00000000234649     0.00000000376373
   39     0.00000004040836     0.00000000121702     0.00000007085286     0.00000000163508     0.00000000131848
   40     0.00000026512082     0.00000006222428     0.00000176036776     0.00000000871309     0.00000001118815
   41     0.00000005070173     0.00000001915280     0.00000050694026     0.00000000422393     0.00000000100704
   42     0.00000000044978     0.00000000017661     0.00000001657262     0.00000000057228     0.00000000016767
   43     0.00000000130709     0.00000000009197     0.00000000308861     0.00000000017737     0.00000000005147
   44     0.00000000603058     0.00000000035787     0.00000000381230     0.00000000012334     0.00000000014935
   45     0.00000000900805     0.00000000024798     0.00000001301804     0.00000000088459     0.00000000064452
   46     0.00000000898053     0.00000000287833     0.00000003276404     0.00000000419158     0.00000000132254
   47     0.00000007575443     0.00000001119230     0.00000048331920     0.00000000827617     0.00000000393524
   48     0.00000074568373     0.00000052482860     0.00000238164957     0.00000000714382     0.00000009322778
   49     0.00000183335357     0.00000857621791     0.00010523067988     0.00000022851945     0.00000012946900
   50     0.00002386499908     0.00011399328973     0.00108888161427     0.00003507510782     0.00001547330282
   51     0.00008038176106     0.00001224765302     0.00000077919434     0.00002699340417     0.00000300031740
   52     0.00000506525913     0.00000051597030     0.00000149458668     0.00000035067726     0.00000046209471
   53     0.00074570585932     0.00003109923809     0.00017009651452     0.00003522276329     0.00000503908931
   54     0.00008012815050     0.00030331971197     0.00003447541733     0.00003253599602     0.00000757549174
   55     0.00656111707684     0.00178106883303     0.00321082154991     0.00012254102387     0.00002845997254
   56     0.00000000000000     0.00465024670782     0.01248492556905     0.00174184430595     0.00026532569338
   57     0.00465024670782     0.00000000000000     0.00683688602229     0.00100290219275     0.00195105442150
   58     0.01248492556905     0.00683688602229     0.00000000000000     0.00007392079540     0.00045537978256
   59     0.00174184430595     0.00100290219275     0.00007392079540     0.00000000000000     0.00743343553361
   60     0.00026532569338     0.00195105442150     0.00045537978256     0.00743343553361     0.00000000000000
   61     0.00008941063397     0.00061889841182     0.00011665680784     0.00744086095017     0.00932714206141
   62     0.00004296820024     0.00061612142231     0.00047776286859     0.00101306060746     0.00057289544335
   63     0.00005174954016     0.00061730087270     0.00096214014115     0.00011171029350     0.00015296566152
   64     0.00072318420581     0.00006666806855     0.00007908167531     0.00164140058369     0.00008315414851
   65     0.00032149539978     0.00038052824685     0.00002389160690     0.00012804355409     0.00014819688679
   66     0.00000000172976     0.00000000079465     0.00000002545340     0.00000000137761     0.00000000036554
   67     0.00000000163790     0.00000000037227     0.00000000825525     0.00000000119434     0.00000000048485
   68     0.00000000261257     0.00000000034765     0.00000000188733     0.00000000041047     0.00000000042339

                61                  62                  63                  64                  65

    1     0.00000002563424     0.00000006804775     0.00000534535931     0.00000136688128     0.00000026272617
    2     0.00000002974386     0.00000002880874     0.00000202781587     0.00000024630093     0.00000017622168
    3     0.00000002228148     0.00000005148563     0.00000459772381     0.00000097711986     0.00000028773692
    4     0.00000013756947     0.00000099961565     0.00002616805904     0.00000494403661     0.00000108936306
    5     0.00000032704246     0.00000102908496     0.00005378324698     0.00000719203225     0.00000449289288
    6     0.00000049930531     0.00000164335397     0.00004895292528     0.00000764446868     0.00000531889386
    7     0.00000000583140     0.00000001407051     0.00000155587421     0.00000036828384     0.00000006865536
    8     0.00000000193792     0.00000001343466     0.00000036160973     0.00000004417770     0.00000004823839
    9     0.00000000192958     0.00000000295426     0.00000009124779     0.00000001584139     0.00000000349517
   10     0.00000000066389     0.00000000121434     0.00000005387389     0.00000000438096     0.00000000496961
   11     0.00000000710667     0.00000000493904     0.00000013534544     0.00000004236748     0.00000000939570
   12     0.00000000593624     0.00000002005882     0.00000061563702     0.00000006896657     0.00000002938163
   13     0.00000000092430     0.00000000530666     0.00000003456206     0.00000000997307     0.00000001968482
   14     0.00000001261767     0.00000003919715     0.00000062744329     0.00000045252620     0.00000007910949
   15     0.00000001447896     0.00000003516317     0.00000035796126     0.00000008138284     0.00000004561423
   16     0.00000001178808     0.00000002759635     0.00000031821367     0.00000007140657     0.00000004193700
   17     0.00000009305866     0.00000008823148     0.00000115483479     0.00000054240866     0.00000022650011
   18     0.00000021643241     0.00000035946006     0.00000378628274     0.00000168765563     0.00000113689003
   19     0.00000002707279     0.00000027597413     0.00000462272311     0.00000161537254     0.00000029178451
   20     0.00000028271522     0.00000199489784     0.00003435754872     0.00000742174144     0.00000559957494
   21     0.00000178651505     0.00001115522849     0.00015852180221     0.00007629822363     0.00001290227134
   22     0.00001455745777     0.00009525916043     0.00269370874619     0.00036583902306     0.00008539007344
   23     0.00002294309805     0.00007268901288     0.00254587582755     0.00037204021697     0.00010865952510
   24     0.00004709422837     0.00025820612225     0.00548063621548     0.00064005773010     0.00029777654359
   25     0.00008263566911     0.00046192529058     0.01311179808475     0.00130079161818     0.00531936034456
   26     0.00007534463464     0.00042179500909     0.01475381183313     0.00078017226164     0.00498482739879
   27     0.00003738111785     0.00010642823321     0.00669011588585     0.00040151717726     0.00027842441643
   28     0.00004150618226     0.00066536395941     0.00546715111685     0.01089434092103     0.01634619824426
   29     0.00011781122204     0.00972652267779     0.00928143445394     0.05879231843967     0.04184138083597
   30     0.00096933029848     0.00117778241059     0.00555355514662     0.01816647930204     0.01011737746667
   31     0.01030127771729     0.01236493008668     0.01484164610055     0.00650251972474     0.00118462318457
   32     0.04779603898748     0.04462028488950     0.05341812246153     0.01108497907840     0.00816287440829
   33     0.90412574961518     0.01818518489552     0.01138309638336     0.01254636660365     0.00081373845239
   34     0.01511164869026     0.83595601531735     0.76781103590889     0.04183831445134     0.04247203170518
   35     0.00229928307325     0.04678685159897     0.03631236310538     0.79324606966776     0.84339410288101
   36     0.00000066152958     0.00000441818019     0.00005903360889     0.00001336242846     0.00000387949405
   37     0.00000000518939     0.00000000809285     0.00000013556552     0.00000001710028     0.00000000577501
   38     0.00000000254389     0.00000001140782     0.00000036247127     0.00000004820656     0.00000004535659
   39     0.00000000247724     0.00000000264938     0.00000028277357     0.00000004761916     0.00000003901363
   40     0.00000000473428     0.00000008665483     0.00000216719443     0.00000047692393     0.00000004894392
   41     0.00000000763978     0.00000002292857     0.00000054650655     0.00000001311854     0.00000011716237
   42     0.00000000010835     0.00000000046117     0.00000003474343     0.00000000243549     0.00000000019996
   43     0.00000000020937     0.00000000028530     0.00000000956629     0.00000000131716     0.00000000140423
   44     0.00000000026636     0.00000000082003     0.00000001371526     0.00000000444040     0.00000000185135
   45     0.00000000061045     0.00000000105804     0.00000003425567     0.00000001236937     0.00000001053739
   46     0.00000000565481     0.00000000554144     0.00000014803944     0.00000000770790     0.00000002107623
   47     0.00000000435627     0.00000004102277     0.00000041527262     0.00000013676667     0.00000002774597
   48     0.00000000802807     0.00000012794916     0.00000121078656     0.00000028168186     0.00000061390392
   49     0.00000018110357     0.00000279213917     0.00001118900741     0.00000089717680     0.00000600924759
   50     0.00000895976138     0.00001382551732     0.00014192984970     0.00007691350947     0.00001993989111
   51     0.00000536506262     0.00002978385036     0.00090774993297     0.00003019129966     0.00043285295939
   52     0.00000019108979     0.00001070075994     0.00017700908071     0.00000099172300     0.00000578367213
   53     0.00000809537351     0.00027714655680     0.00002066377556     0.00012482561751     0.00041028781228
   54     0.00000496218810     0.00005340907462     0.00013642902134     0.00069218493689     0.00137113432794
   55     0.00017607406881     0.00047643341962     0.00002320478251     0.00041929387016     0.00053028720796
   56     0.00008941063397     0.00004296820024     0.00005174954016     0.00072318420581     0.00032149539978
   57     0.00061889841182     0.00061612142231     0.00061730087270     0.00006666806855     0.00038052824685
   58     0.00011665680784     0.00047776286859     0.00096214014115     0.00007908167531     0.00002389160690
   59     0.00744086095017     0.00101306060746     0.00011171029350     0.00164140058369     0.00012804355409
   60     0.00932714206141     0.00057289544335     0.00015296566152     0.00008315414851     0.00014819688679
   61     0.00000000000000     0.00184175264702     0.00066451449678     0.00026104750452     0.00002261354612
   62     0.00184175264702     0.00000000000000     0.00679804030757     0.00404196589818     0.00177872337627
   63     0.00066451449678     0.00679804030757     0.00000000000000     0.01833184570098     0.00364868829844
   64     0.00026104750452     0.00404196589818     0.01833184570098     0.00000000000000     0.00648206583616
   65     0.00002261354612     0.00177872337627     0.00364868829844     0.00648206583616     0.00000000000000
   66     0.00000000048084     0.00000000069083     0.00000001503841     0.00000000281891     0.00000000038945
   67     0.00000000004836     0.00000000033648     0.00000000568778     0.00000000382861     0.00000000136892
   68     0.00000000056389     0.00000000020942     0.00000000043431     0.00000000208186     0.00000000220067

                66                  67                  68

    1     0.00000085725736     0.00000073401924     0.00000030382045
    2     0.00000170549730     0.00000129600406     0.00000086850059
    3     0.00001097717050     0.00000619120165     0.00000399557111
    4     0.00000804074173     0.00000873369010     0.00000705998490
    5     0.00000040200283     0.00000046422400     0.00000032878919
    6     0.00000026026355     0.00000036194679     0.00000017044097
    7     0.00003428176579     0.00002732735661     0.00001430621843
    8     0.00006503443750     0.00009499947322     0.00000570444731
    9     0.00001977435320     0.00001732829914     0.00000337667555
   10     0.00011723152661     0.00016110164042     0.00003551934055
   11     0.00068463825816     0.00076235392380     0.00019691164148
   12     0.00020244949974     0.00021688461145     0.00006325854916
   13     0.00764879890245     0.00793925822361     0.00168451333307
   14     0.01381367501351     0.01368040601511     0.00678458515581
   15     0.04141473351117     0.04198826505954     0.04506592568053
   16     0.01281478597911     0.01267084930879     0.01959395274740
   17     0.00082036954472     0.00083449445448     0.00143976416890
   18     0.00302240794483     0.00275236716101     0.00033623124489
   19     0.00081149725647     0.00088666074662     0.00074278036811
   20     0.00020263979787     0.00015526226358     0.00007289036401
   21     0.00011692672310     0.00011452328281     0.00003973284860
   22     0.00000895577842     0.00001161202896     0.00000697593554
   23     0.00000390107248     0.00000788707570     0.00000480160450
   24     0.00000103059102     0.00000187697808     0.00000034848683
   25     0.00000025334324     0.00000032825182     0.00000026357530
   26     0.00000096403733     0.00000127867862     0.00000061254356
   27     0.00000280498404     0.00000423554752     0.00000184327244
   28     0.00000013231529     0.00000007856025     0.00000005072113
   29     0.00000001482164     0.00000001913892     0.00000000915676
   30     0.00000000868684     0.00000001481241     0.00000001992408
   31     0.00000002936289     0.00000004134581     0.00000001866661
   32     0.00000001111803     0.00000000488586     0.00000000605624
   33     0.00000000389570     0.00000000544098     0.00000000197604
   34     0.00000001836549     0.00000004675306     0.00000001585205
   35     0.00000001159553     0.00000004799332     0.00000001158588
   36     0.00002618962776     0.00005315732512     0.00000688343900
   37     0.89810479733754     0.89707465521837     0.90313791194584
   38     0.00000006866054     0.00000008257065     0.00000001905663
   39     0.00000014027262     0.00000004453033     0.00000007053485
   40     0.00000114372643     0.00000379579040     0.00000278919508
   41     0.00000004295385     0.00000001287212     0.00000004451411
   42     0.00000035321226     0.00000075147514     0.00000008020324
   43     0.00000079108603     0.00000088276601     0.00000023358972
   44     0.00155360379331     0.00115172458704     0.00044723744938
   45     0.00009995203955     0.00010840554819     0.00224923610642
   46     0.00014052579317     0.00016959584950     0.00003503117194
   47     0.00006969306501     0.00007782545210     0.00026276570747
   48     0.00007823986902     0.00010854937615     0.00000757680454
   49     0.00000073488997     0.00000103698862     0.00000020696302
   50     0.00000003410942     0.00000002010714     0.00000004764160
   51     0.00000015292246     0.00000006049972     0.00000006173838
   52     0.00000025361897     0.00000027061732     0.00000011040246
   53     0.00000000415796     0.00000001727138     0.00000001315582
   54     0.00000000654342     0.00000000514684     0.00000000799729
   55     0.00000000070387     0.00000000492571     0.00000000161484
   56     0.00000000172976     0.00000000163790     0.00000000261257
   57     0.00000000079465     0.00000000037227     0.00000000034765
   58     0.00000002545340     0.00000000825525     0.00000000188733
   59     0.00000000137761     0.00000000119434     0.00000000041047
   60     0.00000000036554     0.00000000048485     0.00000000042339
   61     0.00000000048084     0.00000000004836     0.00000000056389
   62     0.00000000069083     0.00000000033648     0.00000000020942
   63     0.00000001503841     0.00000000568778     0.00000000043431
   64     0.00000000281891     0.00000000382861     0.00000000208186
   65     0.00000000038945     0.00000000136892     0.00000000220067
   66     0.00000000000000     0.00691465155827     0.00911227937832
   67     0.00691465155827     0.00000000000000     0.00924170765281
   68     0.00911227937832     0.00924170765281     0.00000000000000



  Atomic Valences: 

 #  #
 Irrep: 1
      1:  4.4082703
      2:  4.4438297
      3:  4.6212086
      4:  4.5897919
      5:  3.9128995
      6:  4.5584665
      7:  4.7541713
      8:  4.3799396
      9:  4.5371284
     10:  3.8687025
     11:  5.0213038
     12:  3.9489871
     13:  3.9712565
     14:  4.6870199
     15:  4.6525181
     16:  4.4565195
     17:  4.4183968
     18:  4.7361447
     19:  4.4626414
     20:  4.0037564
     21:  5.0449637
     22:  4.6543502
     23:  4.4845539
     24:  4.5135384
     25:  4.7529289
     26:  4.4958477
     27:  4.4580068
     28:  4.5407608
     29:  4.2774561
     30:  4.5930570
     31:  4.6143411
     32:  4.2369728
     33:  4.3096985
     34:  4.5968375
     35:  4.5928928
     36:  2.7460022
     37:  4.1556964
     38:  0.9893478
     39:  0.9898638
     40:  0.9878280
     41:  0.9894917
     42:  0.9886534
     43:  0.9890783
     44:  0.9357111
     45:  0.9907861
     46:  0.9838868
     47:  0.9879716
     48:  0.9352776
     49:  0.9895056
     50:  0.9885435
     51:  0.9881731
     52:  0.9822677
     53:  0.9924687
     54:  0.9930894
     55:  0.9889240
     56:  0.9906158
     57:  0.9904144
     58:  0.9931313
     59:  1.0058514
     60:  1.0018282
     61:  1.0016335
     62:  0.9889692
     63:  0.9825134
     64:  0.9901130
     65:  0.9911543
     66:  0.9979333
     67:  0.9972546
     68:  1.0006115


    Psi4 stopped on: Friday, 24 April 2020 12:15PM
    Psi4 wall time for execution: 0:26:13.33

*** Psi4 exiting successfully. Buy a developer a beer!
