 Entering Gaussian System, Link 0=g09
 Input=MOLECULE0-opt-2-3-7-8-199.com
 Output=MOLECULE0-opt-2-3-7-8-199.log
 Initial command:
 /opt/g09gh/gaussian/g09/l1.exe /scratch/bdw2292/Gau-MOLECULE0/Gau-22664.inp -scrdir=/scratch/bdw2292/Gau-MOLECULE0/
 Entering Link 1 = /opt/g09gh/gaussian/g09/l1.exe PID=     22665.
  
 Copyright (c) 1988,1990,1992,1993,1995,1998,2003,2009, Gaussian, Inc.
                  All Rights Reserved.
  
 This is part of the Gaussian(R) 09 program.  It is based on
 the Gaussian(R) 03 system (copyright 2003, Gaussian, Inc.),
 the Gaussian(R) 98 system (copyright 1998, Gaussian, Inc.),
 the Gaussian(R) 94 system (copyright 1995, Gaussian, Inc.),
 the Gaussian 92(TM) system (copyright 1992, Gaussian, Inc.),
 the Gaussian 90(TM) system (copyright 1990, Gaussian, Inc.),
 the Gaussian 88(TM) system (copyright 1988, Gaussian, Inc.),
 the Gaussian 86(TM) system (copyright 1986, Carnegie Mellon
 University), and the Gaussian 82(TM) system (copyright 1983,
 Carnegie Mellon University). Gaussian is a federally registered
 trademark of Gaussian, Inc.
  
 This software contains proprietary and confidential information,
 including trade secrets, belonging to Gaussian, Inc.
  
 This software is provided under written license and may be
 used, copied, transmitted, or stored only in accord with that
 written license.
  
 The following legend is applicable only to US Government
 contracts under FAR:
  
                    RESTRICTED RIGHTS LEGEND
  
 Use, reproduction and disclosure by the US Government is
 subject to restrictions as set forth in subparagraphs (a)
 and (c) of the Commercial Computer Software - Restricted
 Rights clause in FAR 52.227-19.
  
 Gaussian, Inc.
 340 Quinnipiac St., Bldg. 40, Wallingford CT 06492
  
  
 ---------------------------------------------------------------
 Warning -- This program may not be used in any manner that
 competes with the business of Gaussian, Inc. or will provide
 assistance to any competitor of Gaussian, Inc.  The licensee
 of this program is prohibited from giving any competitor of
 Gaussian, Inc. access to this program.  By using this program,
 the user acknowledges that Gaussian, Inc. is engaged in the
 business of creating and licensing software in the field of
 computational chemistry and represents and warrants to the
 licensee that it is not a competitor of Gaussian, Inc. and that
 it will not use this program in any manner prohibited above.
 ---------------------------------------------------------------
  

 Cite this work as:
 Gaussian 09, Revision A.02,
 M. J. Frisch, G. W. Trucks, H. B. Schlegel, G. E. Scuseria, 
 M. A. Robb, J. R. Cheeseman, G. Scalmani, V. Barone, B. Mennucci, 
 G. A. Petersson, H. Nakatsuji, M. Caricato, X. Li, H. P. Hratchian, 
 A. F. Izmaylov, J. Bloino, G. Zheng, J. L. Sonnenberg, M. Hada, 
 M. Ehara, K. Toyota, R. Fukuda, J. Hasegawa, M. Ishida, T. Nakajima, 
 Y. Honda, O. Kitao, H. Nakai, T. Vreven, J. A. Montgomery, Jr., 
 J. E. Peralta, F. Ogliaro, M. Bearpark, J. J. Heyd, E. Brothers, 
 K. N. Kudin, V. N. Staroverov, R. Kobayashi, J. Normand, 
 K. Raghavachari, A. Rendell, J. C. Burant, S. S. Iyengar, J. Tomasi, 
 M. Cossi, N. Rega, J. M. Millam, M. Klene, J. E. Knox, J. B. Cross, 
 V. Bakken, C. Adamo, J. Jaramillo, R. Gomperts, R. E. Stratmann, 
 O. Yazyev, A. J. Austin, R. Cammi, C. Pomelli, J. W. Ochterski, 
 R. L. Martin, K. Morokuma, V. G. Zakrzewski, G. A. Voth, 
 P. Salvador, J. J. Dannenberg, S. Dapprich, A. D. Daniels, 
 O. Farkas, J. B. Foresman, J. V. Ortiz, J. Cioslowski, 
 and D. J. Fox, Gaussian, Inc., Wallingford CT, 2009.
 
 ******************************************
 Gaussian 09:  EM64L-G09RevA.02 11-Jun-2009
                25-Mar-2020 
 ******************************************
 %RWF=/scratch/bdw2292/Gau-MOLECULE0/,100GB
 %Nosave
 %Chk=MOLECULE0-opt-2-3-7-8-199.chk
 %Mem=20GB
 %Nproc=6
 Will use up to    6 processors via shared memory.
 --------------------------------------------------
 #P opt=(,maxcycle=400) wB97XD/6-31G* MaxDisk=100GB
 --------------------------------------------------
 1/6=400,14=-1,18=20,19=15,26=3,38=1/1,3;
 2/9=110,12=2,17=6,18=5,40=1/2;
 3/5=1,6=6,7=1,11=2,16=1,25=1,30=1,71=1,74=-58/1,2,3;
 4//1;
 5/5=2,38=5/2;
 6/7=2,8=2,9=2,10=2,28=1/1;
 7//1,2,3,16;
 1/6=400,14=-1,18=20,19=15/3(2);
 2/9=110/2;
 99//99;
 2/9=110/2;
 3/5=1,6=6,7=1,11=2,16=1,25=1,30=1,71=1,74=-58/1,2,3;
 4/5=5,16=3/1;
 5/5=2,38=5/2;
 7//1,2,3,16;
 1/6=400,14=-1,18=20,19=15/3(-5);
 2/9=110/2;
 6/7=2,8=2,9=2,10=2,19=2,28=1/1;
 99/9=1/99;
 Leave Link    1 at Wed Mar 25 12:57:44 2020, MaxMem= 2684354560 cpu:       0.2
 (Enter /opt/g09gh/gaussian/g09/l101.exe)
 --------------------------------------------------------------
 MOLECULE0 Rotatable Bond Optimization on node37.bme.utexas.edu
 --------------------------------------------------------------
 Symbolic Z-matrix:
 Charge =  0 Multiplicity = 1
 C                    -0.23806   4.18775  -0.97636 
 C                     1.09102   4.12258  -0.54253 
 C                     1.84384   2.94737  -0.73873 
 C                     1.16395   1.87214  -1.359 
 N                    -0.10861   1.91506  -1.77421 
 C                    -0.78922   3.0567   -1.58707 
 C                     3.27766   2.79873  -0.2999 
 C                     4.18376   1.83873  -0.77754 
 C                     5.47404   1.90492  -0.2417 
 N                     5.86472   2.792     0.66871 
 C                     4.92365   3.66808   1.08016 
 N                     3.66769   3.69962   0.62384 
 N                     5.34771   4.57887   2.0375 
 C                     4.68188   5.60821   2.79622 
 C                     5.31597   6.13904   3.96082 
 C                     4.62884   7.1418    4.66602 
 C                     3.36603   7.62538   4.30418 
 C                     2.75522   7.09034   3.16548 
 C                     3.42484   6.10093   2.42705 
 N                     1.4595    7.43655   2.66632 
 C                     0.45732   8.21287   3.19816 
 C                    -0.89905   8.13604   2.52401 
 C                    -1.4105    6.94291   1.98649 
 C                    -2.64977   6.93063   1.34376 
 C                    -3.42511   8.09934   1.22395 
 C                    -2.91032   9.28313   1.78744 
 C                    -1.67784   9.30161   2.44535 
 C                    -4.74932   8.0896    0.45804 
 N                    -4.72862   8.23228  -1.00889 
 C                    -4.30306   7.07947  -1.83327 
 C                    -2.79705   7.08669  -2.20011 
 N                    -2.34465   8.33599  -2.85501 
 C                    -2.59377   8.45832  -4.2964 
 C                    -2.74202   9.49383  -2.016 
 C                    -4.236     9.49962  -1.59659 
 O                     0.62845   8.95322   4.15273 
 C                     6.67165   5.67229   4.46338 
 H                    -0.82698   5.09068  -0.84999 
 H                     1.53731   4.99876  -0.08315 
 H                     1.65709   0.91593  -1.51838 
 H                    -1.81979   3.05961  -1.93822 
 H                     3.94453   1.10387  -1.53717 
 H                     6.24059   1.20257  -0.56804 
 H                     6.309     4.38941   2.27886 
 H                     5.08385   7.57207   5.55766 
 H                     2.86007   8.38371   4.88947 
 H                     2.95616   5.67418   1.55462 
 H                     1.21756   6.97302   1.80221 
 H                    -0.83756   6.02361   2.08247 
 H                    -3.01385   5.99056   0.92881 
 H                    -3.47514   10.21217   1.71194 
 H                    -1.29225   10.21601   2.8889 
 H                    -5.27775   7.15268   0.68721 
 H                    -5.38345   8.89956   0.846 
 H                    -4.61673   6.15814  -1.39004 
 H                    -5.06829   7.1943   -3.20272 
 H                    -2.57793   5.93196  -3.17198 
 H                    -2.17598   6.91686  -1.34113 
 H                    -3.66789   8.50778  -4.50777 
 H                    -2.16721   7.60044  -4.82833 
 H                    -2.11617   9.36467  -4.68619 
 H                    -2.45666   10.44379  -2.53066 
 H                    -1.93186   9.40845  -0.75666 
 H                    -5.04053   9.72623  -2.93826 
 H                    -4.4751    10.3513  -0.93579 
 H                     7.46722   5.89963   3.73979 
 H                     6.68386   4.58729   4.639 
 H                     6.9641    6.14445   5.41142 
 
 NAtoms=     68 NQM=     68 NQMF=      0 NMic=      0 NMicF=      0 NTot=     68.
                    Isotopes and Nuclear Properties:
 (Nuclear quadrupole moments (NQMom) in fm**2, nuclear magnetic moments (NMagM)
  in nuclear magnetons)

  Atom         1           2           3           4           5           6           7           8           9          10
 IAtWgt=          12          12          12          12          14          12          12          12          12          14
 AtmWgt=  12.0000000  12.0000000  12.0000000  12.0000000  14.0030740  12.0000000  12.0000000  12.0000000  12.0000000  14.0030740
 NucSpn=           0           0           0           0           2           0           0           0           0           2
 AtZEff=   0.0000000   0.0000000   0.0000000   0.0000000   0.0000000   0.0000000   0.0000000   0.0000000   0.0000000   0.0000000
 NQMom=    0.0000000   0.0000000   0.0000000   0.0000000   2.0440000   0.0000000   0.0000000   0.0000000   0.0000000   2.0440000
 NMagM=    0.0000000   0.0000000   0.0000000   0.0000000   0.4037610   0.0000000   0.0000000   0.0000000   0.0000000   0.4037610

  Atom        11          12          13          14          15          16          17          18          19          20
 IAtWgt=          12          14          14          12          12          12          12          12          12          14
 AtmWgt=  12.0000000  14.0030740  14.0030740  12.0000000  12.0000000  12.0000000  12.0000000  12.0000000  12.0000000  14.0030740
 NucSpn=           0           2           2           0           0           0           0           0           0           2
 AtZEff=   0.0000000   0.0000000   0.0000000   0.0000000   0.0000000   0.0000000   0.0000000   0.0000000   0.0000000   0.0000000
 NQMom=    0.0000000   2.0440000   2.0440000   0.0000000   0.0000000   0.0000000   0.0000000   0.0000000   0.0000000   2.0440000
 NMagM=    0.0000000   0.4037610   0.4037610   0.0000000   0.0000000   0.0000000   0.0000000   0.0000000   0.0000000   0.4037610

  Atom        21          22          23          24          25          26          27          28          29          30
 IAtWgt=          12          12          12          12          12          12          12          12          14          12
 AtmWgt=  12.0000000  12.0000000  12.0000000  12.0000000  12.0000000  12.0000000  12.0000000  12.0000000  14.0030740  12.0000000
 NucSpn=           0           0           0           0           0           0           0           0           2           0
 AtZEff=   0.0000000   0.0000000   0.0000000   0.0000000   0.0000000   0.0000000   0.0000000   0.0000000   0.0000000   0.0000000
 NQMom=    0.0000000   0.0000000   0.0000000   0.0000000   0.0000000   0.0000000   0.0000000   0.0000000   2.0440000   0.0000000
 NMagM=    0.0000000   0.0000000   0.0000000   0.0000000   0.0000000   0.0000000   0.0000000   0.0000000   0.4037610   0.0000000

  Atom        31          32          33          34          35          36          37          38          39          40
 IAtWgt=          12          14          12          12          12          16          12           1           1           1
 AtmWgt=  12.0000000  14.0030740  12.0000000  12.0000000  12.0000000  15.9949146  12.0000000   1.0078250   1.0078250   1.0078250
 NucSpn=           0           2           0           0           0           0           0           1           1           1
 AtZEff=   0.0000000   0.0000000   0.0000000   0.0000000   0.0000000   0.0000000   0.0000000   0.0000000   0.0000000   0.0000000
 NQMom=    0.0000000   2.0440000   0.0000000   0.0000000   0.0000000   0.0000000   0.0000000   0.0000000   0.0000000   0.0000000
 NMagM=    0.0000000   0.4037610   0.0000000   0.0000000   0.0000000   0.0000000   0.0000000   2.7928460   2.7928460   2.7928460

  Atom        41          42          43          44          45          46          47          48          49          50
 IAtWgt=           1           1           1           1           1           1           1           1           1           1
 AtmWgt=   1.0078250   1.0078250   1.0078250   1.0078250   1.0078250   1.0078250   1.0078250   1.0078250   1.0078250   1.0078250
 NucSpn=           1           1           1           1           1           1           1           1           1           1
 AtZEff=   0.0000000   0.0000000   0.0000000   0.0000000   0.0000000   0.0000000   0.0000000   0.0000000   0.0000000   0.0000000
 NQMom=    0.0000000   0.0000000   0.0000000   0.0000000   0.0000000   0.0000000   0.0000000   0.0000000   0.0000000   0.0000000
 NMagM=    2.7928460   2.7928460   2.7928460   2.7928460   2.7928460   2.7928460   2.7928460   2.7928460   2.7928460   2.7928460

  Atom        51          52          53          54          55          56          57          58          59          60
 IAtWgt=           1           1           1           1           1           1           1           1           1           1
 AtmWgt=   1.0078250   1.0078250   1.0078250   1.0078250   1.0078250   1.0078250   1.0078250   1.0078250   1.0078250   1.0078250
 NucSpn=           1           1           1           1           1           1           1           1           1           1
 AtZEff=   0.0000000   0.0000000   0.0000000   0.0000000   0.0000000   0.0000000   0.0000000   0.0000000   0.0000000   0.0000000
 NQMom=    0.0000000   0.0000000   0.0000000   0.0000000   0.0000000   0.0000000   0.0000000   0.0000000   0.0000000   0.0000000
 NMagM=    2.7928460   2.7928460   2.7928460   2.7928460   2.7928460   2.7928460   2.7928460   2.7928460   2.7928460   2.7928460

  Atom        61          62          63          64          65          66          67          68
 IAtWgt=           1           1           1           1           1           1           1           1
 AtmWgt=   1.0078250   1.0078250   1.0078250   1.0078250   1.0078250   1.0078250   1.0078250   1.0078250
 NucSpn=           1           1           1           1           1           1           1           1
 AtZEff=   0.0000000   0.0000000   0.0000000   0.0000000   0.0000000   0.0000000   0.0000000   0.0000000
 NQMom=    0.0000000   0.0000000   0.0000000   0.0000000   0.0000000   0.0000000   0.0000000   0.0000000
 NMagM=    2.7928460   2.7928460   2.7928460   2.7928460   2.7928460   2.7928460   2.7928460   2.7928460
 Leave Link  101 at Wed Mar 25 12:57:44 2020, MaxMem= 2684354560 cpu:       0.4
 (Enter /opt/g09gh/gaussian/g09/l103.exe)

 GradGradGradGradGradGradGradGradGradGradGradGradGradGradGradGradGradGrad
 Berny optimization.
 Initialization pass.
                           ----------------------------
                           !    Initial Parameters    !
                           ! (Angstroms and Degrees)  !
 --------------------------                            --------------------------
 ! Name  Definition              Value          Derivative Info.                !
 --------------------------------------------------------------------------------
 ! R1    R(1,2)                  1.3996         estimate D2E/DX2                !
 ! R2    R(1,6)                  1.3986         estimate D2E/DX2                !
 ! R3    R(1,38)                 1.0854         estimate D2E/DX2                !
 ! R4    R(2,3)                  1.4094         estimate D2E/DX2                !
 ! R5    R(2,39)                 1.0853         estimate D2E/DX2                !
 ! R6    R(3,4)                  1.4153         estimate D2E/DX2                !
 ! R7    R(3,7)                  1.5068         estimate D2E/DX2                !
 ! R8    R(4,5)                  1.3393         estimate D2E/DX2                !
 ! R9    R(4,40)                 1.0876         estimate D2E/DX2                !
 ! R10   R(5,6)                  1.3422         estimate D2E/DX2                !
 ! R11   R(6,41)                 1.0888         estimate D2E/DX2                !
 ! R12   R(7,8)                  1.4038         estimate D2E/DX2                !
 ! R13   R(7,12)                 1.348          estimate D2E/DX2                !
 ! R14   R(8,9)                  1.3987         estimate D2E/DX2                !
 ! R15   R(8,42)                 1.0836         estimate D2E/DX2                !
 ! R16   R(9,10)                 1.3298         estimate D2E/DX2                !
 ! R17   R(9,43)                 1.0897         estimate D2E/DX2                !
 ! R18   R(10,11)                1.35           estimate D2E/DX2                !
 ! R19   R(11,12)                1.3367         estimate D2E/DX2                !
 ! R20   R(11,13)                1.3877         estimate D2E/DX2                !
 ! R21   R(13,14)                1.4417         estimate D2E/DX2                !
 ! R22   R(13,44)                1.0091         estimate D2E/DX2                !
 ! R23   R(14,15)                1.4283         estimate D2E/DX2                !
 ! R24   R(14,19)                1.3997         estimate D2E/DX2                !
 ! R25   R(15,16)                1.4053         estimate D2E/DX2                !
 ! R26   R(15,37)                1.5193         estimate D2E/DX2                !
 ! R27   R(16,17)                1.3998         estimate D2E/DX2                !
 ! R28   R(16,45)                1.0896         estimate D2E/DX2                !
 ! R29   R(17,18)                1.3986         estimate D2E/DX2                !
 ! R30   R(17,46)                1.0833         estimate D2E/DX2                !
 ! R31   R(18,19)                1.4045         estimate D2E/DX2                !
 ! R32   R(18,20)                1.4311         estimate D2E/DX2                !
 ! R33   R(19,47)                1.0784         estimate D2E/DX2                !
 ! R34   R(20,21)                1.3747         estimate D2E/DX2                !
 ! R35   R(20,48)                1.01           estimate D2E/DX2                !
 ! R36   R(21,22)                1.5166         estimate D2E/DX2                !
 ! R37   R(21,36)                1.2201         estimate D2E/DX2                !
 ! R38   R(22,23)                1.405          estimate D2E/DX2                !
 ! R39   R(22,27)                1.404          estimate D2E/DX2                !
 ! R40   R(23,24)                1.3961         estimate D2E/DX2                !
 ! R41   R(23,49)                1.0875         estimate D2E/DX2                !
 ! R42   R(24,25)                1.4076         estimate D2E/DX2                !
 ! R43   R(24,50)                1.0902         estimate D2E/DX2                !
 ! R44   R(25,26)                1.4085         estimate D2E/DX2                !
 ! R45   R(25,28)                1.5298         estimate D2E/DX2                !
 ! R46   R(26,27)                1.3972         estimate D2E/DX2                !
 ! R47   R(26,51)                1.0899         estimate D2E/DX2                !
 ! R48   R(27,52)                1.087          estimate D2E/DX2                !
 ! R49   R(28,29)                1.474          estimate D2E/DX2                !
 ! R50   R(28,53)                1.0998         estimate D2E/DX2                !
 ! R51   R(28,54)                1.0994         estimate D2E/DX2                !
 ! R52   R(29,30)                1.4798         estimate D2E/DX2                !
 ! R53   R(29,35)                1.4813         estimate D2E/DX2                !
 ! R54   R(30,31)                1.5501         estimate D2E/DX2                !
 ! R55   R(30,55)                1.0694         estimate D2E/DX2                !
 ! R56   R(30,56)                1.5729         estimate D2E/DX2                !
 ! R57   R(31,32)                1.4813         estimate D2E/DX2                !
 ! R58   R(31,57)                1.5251         estimate D2E/DX2                !
 ! R59   R(31,58)                1.0735         estimate D2E/DX2                !
 ! R60   R(32,33)                1.4679         estimate D2E/DX2                !
 ! R61   R(32,34)                1.4841         estimate D2E/DX2                !
 ! R62   R(33,59)                1.0958         estimate D2E/DX2                !
 ! R63   R(33,60)                1.0958         estimate D2E/DX2                !
 ! R64   R(33,61)                1.0961         estimate D2E/DX2                !
 ! R65   R(34,35)                1.5517         estimate D2E/DX2                !
 ! R66   R(34,62)                1.1175         estimate D2E/DX2                !
 ! R67   R(34,63)                1.4999         estimate D2E/DX2                !
 ! R68   R(35,64)                1.5807         estimate D2E/DX2                !
 ! R69   R(35,65)                1.1042         estimate D2E/DX2                !
 ! R70   R(37,66)                1.0992         estimate D2E/DX2                !
 ! R71   R(37,67)                1.0992         estimate D2E/DX2                !
 ! R72   R(37,68)                1.0987         estimate D2E/DX2                !
 ! A1    A(2,1,6)              118.1597         estimate D2E/DX2                !
 ! A2    A(2,1,38)             121.1907         estimate D2E/DX2                !
 ! A3    A(6,1,38)             120.6486         estimate D2E/DX2                !
 ! A4    A(1,2,3)              120.1922         estimate D2E/DX2                !
 ! A5    A(1,2,39)             118.9538         estimate D2E/DX2                !
 ! A6    A(3,2,39)             120.8271         estimate D2E/DX2                !
 ! A7    A(2,3,4)              115.9702         estimate D2E/DX2                !
 ! A8    A(2,3,7)              123.3657         estimate D2E/DX2                !
 ! A9    A(4,3,7)              120.6506         estimate D2E/DX2                !
 ! A10   A(3,4,5)              124.6094         estimate D2E/DX2                !
 ! A11   A(3,4,40)             120.9531         estimate D2E/DX2                !
 ! A12   A(5,4,40)             114.4289         estimate D2E/DX2                !
 ! A13   A(4,5,6)              117.7651         estimate D2E/DX2                !
 ! A14   A(1,6,5)              123.2914         estimate D2E/DX2                !
 ! A15   A(1,6,41)             120.7776         estimate D2E/DX2                !
 ! A16   A(5,6,41)             115.9303         estimate D2E/DX2                !
 ! A17   A(3,7,8)              125.6299         estimate D2E/DX2                !
 ! A18   A(3,7,12)             114.1407         estimate D2E/DX2                !
 ! A19   A(8,7,12)             120.2272         estimate D2E/DX2                !
 ! A20   A(7,8,9)              115.6401         estimate D2E/DX2                !
 ! A21   A(7,8,42)             124.0382         estimate D2E/DX2                !
 ! A22   A(9,8,42)             120.2847         estimate D2E/DX2                !
 ! A23   A(8,9,10)             124.3928         estimate D2E/DX2                !
 ! A24   A(8,9,43)             120.246          estimate D2E/DX2                !
 ! A25   A(10,9,43)            115.361          estimate D2E/DX2                !
 ! A26   A(9,10,11)            115.8976         estimate D2E/DX2                !
 ! A27   A(10,11,12)           124.491          estimate D2E/DX2                !
 ! A28   A(10,11,13)           115.0343         estimate D2E/DX2                !
 ! A29   A(12,11,13)           120.4737         estimate D2E/DX2                !
 ! A30   A(7,12,11)            119.3445         estimate D2E/DX2                !
 ! A31   A(11,13,14)           133.6702         estimate D2E/DX2                !
 ! A32   A(11,13,44)           109.4437         estimate D2E/DX2                !
 ! A33   A(14,13,44)           116.6241         estimate D2E/DX2                !
 ! A34   A(13,14,15)           119.3021         estimate D2E/DX2                !
 ! A35   A(13,14,19)           121.8222         estimate D2E/DX2                !
 ! A36   A(15,14,19)           118.8752         estimate D2E/DX2                !
 ! A37   A(14,15,16)           117.2112         estimate D2E/DX2                !
 ! A38   A(14,15,37)           123.4806         estimate D2E/DX2                !
 ! A39   A(16,15,37)           119.3077         estimate D2E/DX2                !
 ! A40   A(15,16,17)           123.9087         estimate D2E/DX2                !
 ! A41   A(15,16,45)           119.2241         estimate D2E/DX2                !
 ! A42   A(17,16,45)           116.8623         estimate D2E/DX2                !
 ! A43   A(16,17,18)           118.1836         estimate D2E/DX2                !
 ! A44   A(16,17,46)           121.5668         estimate D2E/DX2                !
 ! A45   A(18,17,46)           120.2449         estimate D2E/DX2                !
 ! A46   A(17,18,19)           119.2978         estimate D2E/DX2                !
 ! A47   A(17,18,20)           125.9358         estimate D2E/DX2                !
 ! A48   A(19,18,20)           114.7538         estimate D2E/DX2                !
 ! A49   A(14,19,18)           122.5124         estimate D2E/DX2                !
 ! A50   A(14,19,47)           117.6707         estimate D2E/DX2                !
 ! A51   A(18,19,47)           119.7959         estimate D2E/DX2                !
 ! A52   A(18,20,21)           131.4324         estimate D2E/DX2                !
 ! A53   A(18,20,48)           113.8466         estimate D2E/DX2                !
 ! A54   A(21,20,48)           114.5525         estimate D2E/DX2                !
 ! A55   A(20,21,22)           116.8335         estimate D2E/DX2                !
 ! A56   A(20,21,36)           122.8944         estimate D2E/DX2                !
 ! A57   A(22,21,36)           120.2621         estimate D2E/DX2                !
 ! A58   A(21,22,23)           122.5903         estimate D2E/DX2                !
 ! A59   A(21,22,27)           118.6153         estimate D2E/DX2                !
 ! A60   A(23,22,27)           118.792          estimate D2E/DX2                !
 ! A61   A(22,23,24)           120.4459         estimate D2E/DX2                !
 ! A62   A(22,23,49)           119.4934         estimate D2E/DX2                !
 ! A63   A(24,23,49)           120.0582         estimate D2E/DX2                !
 ! A64   A(23,24,25)           121.388          estimate D2E/DX2                !
 ! A65   A(23,24,50)           118.6382         estimate D2E/DX2                !
 ! A66   A(25,24,50)           119.9737         estimate D2E/DX2                !
 ! A67   A(24,25,26)           117.5453         estimate D2E/DX2                !
 ! A68   A(24,25,28)           120.9387         estimate D2E/DX2                !
 ! A69   A(26,25,28)           121.4678         estimate D2E/DX2                !
 ! A70   A(25,26,27)           121.4588         estimate D2E/DX2                !
 ! A71   A(25,26,51)           119.9543         estimate D2E/DX2                !
 ! A72   A(27,26,51)           118.5866         estimate D2E/DX2                !
 ! A73   A(22,27,26)           120.3108         estimate D2E/DX2                !
 ! A74   A(22,27,52)           118.6029         estimate D2E/DX2                !
 ! A75   A(26,27,52)           121.076          estimate D2E/DX2                !
 ! A76   A(25,28,29)           119.0452         estimate D2E/DX2                !
 ! A77   A(25,28,53)           108.482          estimate D2E/DX2                !
 ! A78   A(25,28,54)           108.537          estimate D2E/DX2                !
 ! A79   A(29,28,53)           107.2522         estimate D2E/DX2                !
 ! A80   A(29,28,54)           106.7372         estimate D2E/DX2                !
 ! A81   A(53,28,54)           106.0779         estimate D2E/DX2                !
 ! A82   A(28,29,30)           118.8858         estimate D2E/DX2                !
 ! A83   A(28,29,35)           118.8376         estimate D2E/DX2                !
 ! A84   A(30,29,35)           110.4785         estimate D2E/DX2                !
 ! A85   A(29,30,31)           114.0563         estimate D2E/DX2                !
 ! A86   A(29,30,55)           110.8491         estimate D2E/DX2                !
 ! A87   A(29,30,56)           106.7531         estimate D2E/DX2                !
 ! A88   A(31,30,55)           112.7726         estimate D2E/DX2                !
 ! A89   A(31,30,56)           105.4433         estimate D2E/DX2                !
 ! A90   A(55,30,56)           106.3222         estimate D2E/DX2                !
 ! A91   A(30,31,32)           113.9091         estimate D2E/DX2                !
 ! A92   A(30,31,57)           106.6711         estimate D2E/DX2                !
 ! A93   A(30,31,58)           111.8389         estimate D2E/DX2                !
 ! A94   A(32,31,57)           108.2366         estimate D2E/DX2                !
 ! A95   A(32,31,58)           108.0885         estimate D2E/DX2                !
 ! A96   A(57,31,58)           107.8783         estimate D2E/DX2                !
 ! A97   A(31,32,33)           116.9097         estimate D2E/DX2                !
 ! A98   A(31,32,34)           109.0419         estimate D2E/DX2                !
 ! A99   A(33,32,34)           116.4032         estimate D2E/DX2                !
 ! A100  A(32,33,59)           111.0709         estimate D2E/DX2                !
 ! A101  A(32,33,60)           110.2029         estimate D2E/DX2                !
 ! A102  A(32,33,61)           110.1298         estimate D2E/DX2                !
 ! A103  A(59,33,60)           108.8593         estimate D2E/DX2                !
 ! A104  A(59,33,61)           108.7338         estimate D2E/DX2                !
 ! A105  A(60,33,61)           107.7639         estimate D2E/DX2                !
 ! A106  A(32,34,35)           114.4258         estimate D2E/DX2                !
 ! A107  A(32,34,62)           109.5407         estimate D2E/DX2                !
 ! A108  A(32,34,63)           106.5971         estimate D2E/DX2                !
 ! A109  A(35,34,62)           111.5414         estimate D2E/DX2                !
 ! A110  A(35,34,63)           107.0566         estimate D2E/DX2                !
 ! A111  A(62,34,63)           107.287          estimate D2E/DX2                !
 ! A112  A(29,35,34)           115.1017         estimate D2E/DX2                !
 ! A113  A(29,35,64)           106.8661         estimate D2E/DX2                !
 ! A114  A(29,35,65)           110.516          estimate D2E/DX2                !
 ! A115  A(34,35,64)           105.1378         estimate D2E/DX2                !
 ! A116  A(34,35,65)           111.9083         estimate D2E/DX2                !
 ! A117  A(64,35,65)           106.688          estimate D2E/DX2                !
 ! A118  A(15,37,66)           111.3798         estimate D2E/DX2                !
 ! A119  A(15,37,67)           111.4696         estimate D2E/DX2                !
 ! A120  A(15,37,68)           113.0104         estimate D2E/DX2                !
 ! A121  A(66,37,67)           107.535          estimate D2E/DX2                !
 ! A122  A(66,37,68)           106.6474         estimate D2E/DX2                !
 ! A123  A(67,37,68)           106.4608         estimate D2E/DX2                !
 ! D1    D(6,1,2,3)              0.7754         estimate D2E/DX2                !
 ! D2    D(6,1,2,39)           178.9033         estimate D2E/DX2                !
 ! D3    D(38,1,2,3)          -178.8636         estimate D2E/DX2                !
 ! D4    D(38,1,2,39)           -0.7357         estimate D2E/DX2                !
 ! D5    D(2,1,6,5)              0.136          estimate D2E/DX2                !
 ! D6    D(2,1,6,41)           179.8385         estimate D2E/DX2                !
 ! D7    D(38,1,6,5)           179.777          estimate D2E/DX2                !
 ! D8    D(38,1,6,41)           -0.5205         estimate D2E/DX2                !
 ! D9    D(1,2,3,4)             -1.2808         estimate D2E/DX2                !
 ! D10   D(1,2,3,7)           -179.9504         estimate D2E/DX2                !
 ! D11   D(39,2,3,4)          -179.3732         estimate D2E/DX2                !
 ! D12   D(39,2,3,7)             1.9573         estimate D2E/DX2                !
 ! D13   D(2,3,4,5)              0.9989         estimate D2E/DX2                !
 ! D14   D(2,3,4,40)          -177.8665         estimate D2E/DX2                !
 ! D15   D(7,3,4,5)            179.7073         estimate D2E/DX2                !
 ! D16   D(7,3,4,40)             0.842          estimate D2E/DX2                !
 ! D17   D(2,3,7,8)           -161.0296         estimate D2E/DX2                !
 ! D18   D(2,3,7,12)            18.4256         estimate D2E/DX2                !
 ! D19   D(4,3,7,8)             20.3608         estimate D2E/DX2                !
 ! D20   D(4,3,7,12)          -160.184          estimate D2E/DX2                !
 ! D21   D(3,4,5,6)             -0.1436         estimate D2E/DX2                !
 ! D22   D(40,4,5,6)           178.7876         estimate D2E/DX2                !
 ! D23   D(4,5,6,1)             -0.4543         estimate D2E/DX2                !
 ! D24   D(4,5,6,41)           179.8299         estimate D2E/DX2                !
 ! D25   D(3,7,8,9)            178.9051         estimate D2E/DX2                !
 ! D26   D(3,7,8,42)             1.1157         estimate D2E/DX2                !
 ! D27   D(12,7,8,9)            -0.5195         estimate D2E/DX2                !
 ! D28   D(12,7,8,42)         -178.3089         estimate D2E/DX2                !
 ! D29   D(3,7,12,11)         -179.5565         estimate D2E/DX2                !
 ! D30   D(8,7,12,11)           -0.069          estimate D2E/DX2                !
 ! D31   D(7,8,9,10)             0.4806         estimate D2E/DX2                !
 ! D32   D(7,8,9,43)          -179.3114         estimate D2E/DX2                !
 ! D33   D(42,8,9,10)          178.3593         estimate D2E/DX2                !
 ! D34   D(42,8,9,43)           -1.4327         estimate D2E/DX2                !
 ! D35   D(8,9,10,11)            0.1592         estimate D2E/DX2                !
 ! D36   D(43,9,10,11)         179.9604         estimate D2E/DX2                !
 ! D37   D(9,10,11,12)          -0.8331         estimate D2E/DX2                !
 ! D38   D(9,10,11,13)         179.5297         estimate D2E/DX2                !
 ! D39   D(10,11,12,7)           0.8001         estimate D2E/DX2                !
 ! D40   D(13,11,12,7)        -179.5814         estimate D2E/DX2                !
 ! D41   D(10,11,13,14)       -175.6535         estimate D2E/DX2                !
 ! D42   D(10,11,13,44)         -1.9258         estimate D2E/DX2                !
 ! D43   D(12,11,13,14)          4.6934         estimate D2E/DX2                !
 ! D44   D(12,11,13,44)        178.4212         estimate D2E/DX2                !
 ! D45   D(11,13,14,15)        163.2741         estimate D2E/DX2                !
 ! D46   D(11,13,14,19)        -16.4555         estimate D2E/DX2                !
 ! D47   D(44,13,14,15)        -10.1083         estimate D2E/DX2                !
 ! D48   D(44,13,14,19)        170.162          estimate D2E/DX2                !
 ! D49   D(13,14,15,16)        179.9109         estimate D2E/DX2                !
 ! D50   D(13,14,15,37)         -0.3264         estimate D2E/DX2                !
 ! D51   D(19,14,15,16)         -0.3515         estimate D2E/DX2                !
 ! D52   D(19,14,15,37)        179.4113         estimate D2E/DX2                !
 ! D53   D(13,14,19,18)        179.1203         estimate D2E/DX2                !
 ! D54   D(13,14,19,47)          0.7903         estimate D2E/DX2                !
 ! D55   D(15,14,19,18)         -0.6104         estimate D2E/DX2                !
 ! D56   D(15,14,19,47)       -178.9404         estimate D2E/DX2                !
 ! D57   D(14,15,16,17)          1.015          estimate D2E/DX2                !
 ! D58   D(14,15,16,45)       -179.8112         estimate D2E/DX2                !
 ! D59   D(37,15,16,17)       -178.7581         estimate D2E/DX2                !
 ! D60   D(37,15,16,45)          0.4158         estimate D2E/DX2                !
 ! D61   D(14,15,37,66)         64.0655         estimate D2E/DX2                !
 ! D62   D(14,15,37,67)        -56.0438         estimate D2E/DX2                !
 ! D63   D(14,15,37,68)       -175.9009         estimate D2E/DX2                !
 ! D64   D(16,15,37,66)       -116.1765         estimate D2E/DX2                !
 ! D65   D(16,15,37,67)        123.7142         estimate D2E/DX2                !
 ! D66   D(16,15,37,68)          3.8572         estimate D2E/DX2                !
 ! D67   D(15,16,17,18)         -0.6866         estimate D2E/DX2                !
 ! D68   D(15,16,17,46)        178.5194         estimate D2E/DX2                !
 ! D69   D(45,16,17,18)       -179.8784         estimate D2E/DX2                !
 ! D70   D(45,16,17,46)         -0.6724         estimate D2E/DX2                !
 ! D71   D(16,17,18,19)         -0.3085         estimate D2E/DX2                !
 ! D72   D(16,17,18,20)        178.3284         estimate D2E/DX2                !
 ! D73   D(46,17,18,19)       -179.5254         estimate D2E/DX2                !
 ! D74   D(46,17,18,20)         -0.8885         estimate D2E/DX2                !
 ! D75   D(17,18,19,14)          0.9564         estimate D2E/DX2                !
 ! D76   D(17,18,19,47)        179.2521         estimate D2E/DX2                !
 ! D77   D(20,18,19,14)       -177.8283         estimate D2E/DX2                !
 ! D78   D(20,18,19,47)          0.4674         estimate D2E/DX2                !
 ! D79   D(17,18,20,21)         -8.0954         estimate D2E/DX2                !
 ! D80   D(17,18,20,48)        176.9663         estimate D2E/DX2                !
 ! D81   D(19,18,20,21)        170.5956         estimate D2E/DX2                !
 ! D82   D(19,18,20,48)         -4.3427         estimate D2E/DX2                !
 ! D83   D(18,20,21,22)       -167.7799         estimate D2E/DX2                !
 ! D84   D(18,20,21,36)         13.3683         estimate D2E/DX2                !
 ! D85   D(48,20,21,22)          7.1301         estimate D2E/DX2                !
 ! D86   D(48,20,21,36)       -171.7216         estimate D2E/DX2                !
 ! D87   D(20,21,22,23)         36.3762         estimate D2E/DX2                !
 ! D88   D(20,21,22,27)       -144.1975         estimate D2E/DX2                !
 ! D89   D(36,21,22,23)       -144.7401         estimate D2E/DX2                !
 ! D90   D(36,21,22,27)         34.6863         estimate D2E/DX2                !
 ! D91   D(21,22,23,24)       -178.2887         estimate D2E/DX2                !
 ! D92   D(21,22,23,49)          2.2812         estimate D2E/DX2                !
 ! D93   D(27,22,23,24)          2.2859         estimate D2E/DX2                !
 ! D94   D(27,22,23,49)       -177.1441         estimate D2E/DX2                !
 ! D95   D(21,22,27,26)        177.5637         estimate D2E/DX2                !
 ! D96   D(21,22,27,52)         -1.2825         estimate D2E/DX2                !
 ! D97   D(23,22,27,26)         -2.9878         estimate D2E/DX2                !
 ! D98   D(23,22,27,52)        178.166          estimate D2E/DX2                !
 ! D99   D(22,23,24,25)         -0.5278         estimate D2E/DX2                !
 ! D100  D(22,23,24,50)        179.3997         estimate D2E/DX2                !
 ! D101  D(49,23,24,25)        178.899          estimate D2E/DX2                !
 ! D102  D(49,23,24,50)         -1.1735         estimate D2E/DX2                !
 ! D103  D(23,24,25,26)         -0.5442         estimate D2E/DX2                !
 ! D104  D(23,24,25,28)        176.9647         estimate D2E/DX2                !
 ! D105  D(50,24,25,26)        179.5292         estimate D2E/DX2                !
 ! D106  D(50,24,25,28)         -2.9619         estimate D2E/DX2                !
 ! D107  D(24,25,26,27)         -0.1716         estimate D2E/DX2                !
 ! D108  D(24,25,26,51)        179.6117         estimate D2E/DX2                !
 ! D109  D(28,25,26,27)       -177.6665         estimate D2E/DX2                !
 ! D110  D(28,25,26,51)          2.1167         estimate D2E/DX2                !
 ! D111  D(24,25,28,29)        -82.9322         estimate D2E/DX2                !
 ! D112  D(24,25,28,53)         39.9771         estimate D2E/DX2                !
 ! D113  D(24,25,28,54)        154.8155         estimate D2E/DX2                !
 ! D114  D(26,25,28,29)         94.4782         estimate D2E/DX2                !
 ! D115  D(26,25,28,53)       -142.6125         estimate D2E/DX2                !
 ! D116  D(26,25,28,54)        -27.7741         estimate D2E/DX2                !
 ! D117  D(25,26,27,22)          1.9629         estimate D2E/DX2                !
 ! D118  D(25,26,27,52)       -179.2199         estimate D2E/DX2                !
 ! D119  D(51,26,27,22)       -177.8232         estimate D2E/DX2                !
 ! D120  D(51,26,27,52)          0.994          estimate D2E/DX2                !
 ! D121  D(25,28,29,30)         74.8864         estimate D2E/DX2                !
 ! D122  D(25,28,29,35)        -64.5696         estimate D2E/DX2                !
 ! D123  D(53,28,29,30)        -48.6285         estimate D2E/DX2                !
 ! D124  D(53,28,29,35)        171.9155         estimate D2E/DX2                !
 ! D125  D(54,28,29,30)       -161.9699         estimate D2E/DX2                !
 ! D126  D(54,28,29,35)         58.574          estimate D2E/DX2                !
 ! D127  D(28,29,30,31)        -93.7795         estimate D2E/DX2                !
 ! D128  D(28,29,30,55)         34.8003         estimate D2E/DX2                !
 ! D129  D(28,29,30,56)        150.1856         estimate D2E/DX2                !
 ! D130  D(35,29,30,31)         48.7874         estimate D2E/DX2                !
 ! D131  D(35,29,30,55)        177.3673         estimate D2E/DX2                !
 ! D132  D(35,29,30,56)        -67.2475         estimate D2E/DX2                !
 ! D133  D(28,29,35,34)         95.6087         estimate D2E/DX2                !
 ! D134  D(28,29,35,64)       -148.0723         estimate D2E/DX2                !
 ! D135  D(28,29,35,65)        -32.361          estimate D2E/DX2                !
 ! D136  D(30,29,35,34)        -46.9785         estimate D2E/DX2                !
 ! D137  D(30,29,35,64)         69.3404         estimate D2E/DX2                !
 ! D138  D(30,29,35,65)       -174.9482         estimate D2E/DX2                !
 ! D139  D(29,30,31,32)        -54.2181         estimate D2E/DX2                !
 ! D140  D(29,30,31,57)       -173.5651         estimate D2E/DX2                !
 ! D141  D(29,30,31,58)         68.708          estimate D2E/DX2                !
 ! D142  D(55,30,31,32)        178.1843         estimate D2E/DX2                !
 ! D143  D(55,30,31,57)         58.8373         estimate D2E/DX2                !
 ! D144  D(55,30,31,58)        -58.8896         estimate D2E/DX2                !
 ! D145  D(56,30,31,32)         62.5778         estimate D2E/DX2                !
 ! D146  D(56,30,31,57)        -56.7692         estimate D2E/DX2                !
 ! D147  D(56,30,31,58)       -174.4961         estimate D2E/DX2                !
 ! D148  D(30,31,32,33)        -81.8518         estimate D2E/DX2                !
 ! D149  D(30,31,32,34)         52.7942         estimate D2E/DX2                !
 ! D150  D(57,31,32,33)         36.6036         estimate D2E/DX2                !
 ! D151  D(57,31,32,34)        171.2495         estimate D2E/DX2                !
 ! D152  D(58,31,32,33)        153.1971         estimate D2E/DX2                !
 ! D153  D(58,31,32,34)        -72.1569         estimate D2E/DX2                !
 ! D154  D(31,32,33,59)         65.9786         estimate D2E/DX2                !
 ! D155  D(31,32,33,60)        -54.7449         estimate D2E/DX2                !
 ! D156  D(31,32,33,61)       -173.504          estimate D2E/DX2                !
 ! D157  D(34,32,33,59)        -65.3569         estimate D2E/DX2                !
 ! D158  D(34,32,33,60)        173.9196         estimate D2E/DX2                !
 ! D159  D(34,32,33,61)         55.1605         estimate D2E/DX2                !
 ! D160  D(31,32,34,35)        -50.686          estimate D2E/DX2                !
 ! D161  D(31,32,34,62)       -176.7795         estimate D2E/DX2                !
 ! D162  D(31,32,34,63)         67.447          estimate D2E/DX2                !
 ! D163  D(33,32,34,35)         84.2162         estimate D2E/DX2                !
 ! D164  D(33,32,34,62)        -41.8773         estimate D2E/DX2                !
 ! D165  D(33,32,34,63)       -157.6507         estimate D2E/DX2                !
 ! D166  D(32,34,35,29)         50.0373         estimate D2E/DX2                !
 ! D167  D(32,34,35,64)        -67.2625         estimate D2E/DX2                !
 ! D168  D(32,34,35,65)        177.3057         estimate D2E/DX2                !
 ! D169  D(62,34,35,29)        175.0824         estimate D2E/DX2                !
 ! D170  D(62,34,35,64)         57.7826         estimate D2E/DX2                !
 ! D171  D(62,34,35,65)        -57.6492         estimate D2E/DX2                !
 ! D172  D(63,34,35,29)        -67.8345         estimate D2E/DX2                !
 ! D173  D(63,34,35,64)        174.8657         estimate D2E/DX2                !
 ! D174  D(63,34,35,65)         59.434          estimate D2E/DX2                !
 --------------------------------------------------------------------------------
 Trust Radius=3.00D-01 FncErr=1.00D-07 GrdErr=1.00D-06
 Number of steps in this run= 400 maximum allowed number of steps= 408.
 GradGradGradGradGradGradGradGradGradGradGradGradGradGradGradGradGradGrad

 Leave Link  103 at Wed Mar 25 12:57:44 2020, MaxMem= 2684354560 cpu:       0.1
 (Enter /opt/g09gh/gaussian/g09/l202.exe)
 Stoichiometry    C29H31N7O
 Framework group  C1[X(C29H31N7O)]
 Deg. of freedom   198
 Full point group                 C1      NOp   1
 Largest Abelian subgroup         C1      NOp   1
 Largest concise Abelian subgroup C1      NOp   1
                         Standard orientation:                         
 ---------------------------------------------------------------------
 Center     Atomic      Atomic             Coordinates (Angstroms)
 Number     Number       Type             X           Y           Z
 ---------------------------------------------------------------------
      1          6           0       -0.488965    2.582299   -0.643947
      2          6           0        0.814273    2.234973   -0.270012
      3          6           0        1.877709    3.133685   -0.488627
      4          6           0        1.537753    4.354677   -1.118467
      5          7           0        0.297901    4.700304   -1.488542
      6          6           0       -0.692675    3.827009   -1.248281
      7          6           0        3.306422    2.833476   -0.115588
      8          6           0        4.326569    3.784266    0.045838
      9          6           0        5.574807    3.275270    0.418861
     10          7           0        5.832985    1.984965    0.610827
     11          6           0        4.796325    1.141506    0.420203
     12          7           0        3.562568    1.524081    0.076454
     13          7           0        5.088124   -0.201117    0.615308
     14          6           0        4.333627   -1.418276    0.448675
     15          6           0        5.024751   -2.667007    0.392454
     16          6           0        4.246113   -3.825740    0.231051
     17          6           0        2.852127   -3.818396    0.103738
     18          6           0        2.190766   -2.587094    0.153552
     19          6           0        2.938603   -1.412075    0.334331
     20          7           0        0.781638   -2.384150    0.008330
     21          6           0       -0.229543   -3.244916   -0.347314
     22          6           0       -1.573245   -2.623631   -0.676852
     23          6           0       -1.694837   -1.392717   -1.343285
     24          6           0       -2.954398   -0.844685   -1.592690
     25          6           0       -4.132794   -1.506008   -1.198446
     26          6           0       -3.996465   -2.749820   -0.551742
     27          6           0       -2.740531   -3.312813   -0.311170
     28          6           0       -5.504667   -0.864664   -1.415028
     29          7           0       -6.000991    0.113231   -0.430129
     30          6           0       -5.423142    1.475474   -0.421695
     31          6           0       -4.246268    1.656477    0.570718
     32          7           0       -4.568990    1.265186    1.962498
     33          6           0       -5.280918    2.253034    2.782221
     34          6           0       -5.120120   -0.112748    1.962646
     35          6           0       -6.275597   -0.341790    0.952544
     36          8           0       -0.086626   -4.456055   -0.383669
     37          6           0        6.535446   -2.794074    0.492256
     38          1           0       -1.322634    1.910269   -0.466589
     39          1           0        0.984417    1.279742    0.216268
     40          1           0        2.300520    5.092309   -1.357248
     41          1           0       -1.688443    4.139421   -1.558494
     42          1           0        4.183522    4.852492   -0.066954
     43          1           0        6.417379    3.948215    0.575715
     44          1           0        6.066065   -0.302779    0.842330
     45          1           0        4.739394   -4.796277    0.187135
     46          1           0        2.291202   -4.733555   -0.042802
     47          1           0        2.438119   -0.457260    0.361829
     48          1           0        0.493497   -1.423027    0.123621
     49          1           0       -0.799110   -0.871765   -1.673239
     50          1           0       -3.014134    0.116727   -2.103169
     51          1           0       -4.882798   -3.292835   -0.224069
     52          1           0       -2.642999   -4.278988    0.177221
     53          1           0       -5.506598   -0.368659   -2.396636
     54          1           0       -6.258054   -1.663034   -1.475825
     55          1           0       -5.180348    1.792082   -1.413917
     56          1           0       -6.553058    2.444132    0.087363
     57          1           0       -3.890861    3.139562    0.562116
     58          1           0       -3.376568    1.107378    0.263252
     59          1           0       -6.289564    2.433796    2.393869
     60          1           0       -4.731155    3.200902    2.795084
     61          1           0       -5.360167    1.898334    3.816344
     62          1           0       -5.421080   -0.394818    3.001200
     63          1           0       -3.997804   -1.023101    1.561065
     64          1           0       -7.476080    0.532920    1.493319
     65          1           0       -6.621722   -1.390307    0.953327
     66          1           0        6.901569   -2.461412    1.473827
     67          1           0        7.041541   -2.188290   -0.272675
     68          1           0        6.889572   -3.825383    0.357203
 ---------------------------------------------------------------------
 Rotational constants (GHZ):      0.1297738      0.0604444      0.0447958
 Leave Link  202 at Wed Mar 25 12:57:44 2020, MaxMem= 2684354560 cpu:       0.1
 (Enter /opt/g09gh/gaussian/g09/l301.exe)
 Standard basis: 6-31G(d) (6D, 7F)
 Ernie: Thresh=  0.10000D-02 Tol=  0.10000D-05 Strict=F.
 There are   617 symmetry adapted basis functions of A   symmetry.
 Integral buffers will be    131072 words long.
 Raffenetti 2 integral format.
 Two-electron integral symmetry is turned on.
   617 basis functions,  1160 primitive gaussians,   617 cartesian basis functions
   131 alpha electrons      131 beta electrons
       nuclear repulsion energy      3771.4087524704 Hartrees.
 IExCor= 4639 DFT=T Ex+Corr=wB97XD ExCW=0 ScaHFX=  1.000000
 ScaDFX=  1.000000  1.000000  1.000000  1.000000 ScalE2=  1.000000  1.000000
 IRadAn=      0 IRanWt=     -1 IRanGd=            0 ICorTp=0
  HFx wShort=  0.000000 wLong=  0.200000 cFull=  0.222036 cShort=  0.000000 cLong=  0.777964
  DFx wShort=  0.000000 wLong=  0.200000 cFull=  0.000000 cShort=  0.000000 cLong=  1.000000
 NAtoms=   68 NActive=   68 NUniq=   68 SFac= 7.50D-01 NAtFMM=   80 NAOKFM=F Big=T
 R6Disp: Dispersion energy =        -0.0589343735 Hartrees.
 Nuclear repulsion after empirical dispersion term =     3771.3498180969 Hartrees.
 Leave Link  301 at Wed Mar 25 12:57:44 2020, MaxMem= 2684354560 cpu:       0.3
 (Enter /opt/g09gh/gaussian/g09/l302.exe)
 NPDir=0 NMtPBC=     1 NCelOv=     1 NCel=       1 NClECP=     1 NCelD=      1
         NCelK=      1 NCelE2=     1 NClLst=     1 CellRange=     0.0.
 One-electron integrals computed using PRISM.
 NBasis=   617 RedAO= T  NBF=   617
 NBsUse=   617 1.00D-06 NBFU=   617
 Precomputing XC quadrature grid using
 IXCGrd= 2 IRadAn=           0 IRanWt=          -1 IRanGd=           0 AccXCQ= 1.00D-10.
 NRdTot=    4374 NPtTot=      559086 NUsed=      590601 NTot=      590633
 NSgBfM=   606   606   606   606   606 NAtAll=    68    68.
 Leave Link  302 at Wed Mar 25 12:57:46 2020, MaxMem= 2684354560 cpu:       7.8
 (Enter /opt/g09gh/gaussian/g09/l303.exe)
 DipDrv:  MaxL=1.
 Leave Link  303 at Wed Mar 25 12:57:46 2020, MaxMem= 2684354560 cpu:       0.8
 (Enter /opt/g09gh/gaussian/g09/l401.exe)
 Harris functional with IExCor= 4639 diagonalized for initial guess.
 ExpMin= 1.61D-01 ExpMax= 5.48D+03 ExpMxC= 8.25D+02 IAcc=1 IRadAn=         1 AccDes= 0.00D+00
 HarFok:  IExCor= 4639 AccDes= 0.00D+00 IRadAn=         1 IDoV= 1
 ScaDFX=  1.000000  1.000000  1.000000  1.000000
 FoFCou: FMM=F IPFlag=           0 FMFlag=      100000 FMFlg1=           1
         NFxFlg=           0 DoJE=T BraDBF=F KetDBF=T FulRan=T
         Omega=  0.000000  0.000000  1.000000  0.000000  0.000000 ICntrl=     500 IOpCl=  0
         NMat0=    1 NMatS0=    1 NMatT0=    0 NMatD0=    1 NMtDS0=    0 NMtDT0=    0
         I1Cent=           4 NGrid=           0.
 Petite list used in FoFCou.
 Harris En= -1512.39554705385    
 Initial guess orbital symmetries:
       Occupied  (A) (A) (A) (A) (A) (A) (A) (A) (A) (A) (A) (A)
                 (A) (A) (A) (A) (A) (A) (A) (A) (A) (A) (A) (A)
                 (A) (A) (A) (A) (A) (A) (A) (A) (A) (A) (A) (A)
                 (A) (A) (A) (A) (A) (A) (A) (A) (A) (A) (A) (A)
                 (A) (A) (A) (A) (A) (A) (A) (A) (A) (A) (A) (A)
                 (A) (A) (A) (A) (A) (A) (A) (A) (A) (A) (A) (A)
                 (A) (A) (A) (A) (A) (A) (A) (A) (A) (A) (A) (A)
                 (A) (A) (A) (A) (A) (A) (A) (A) (A) (A) (A) (A)
                 (A) (A) (A) (A) (A) (A) (A) (A) (A) (A) (A) (A)
                 (A) (A) (A) (A) (A) (A) (A) (A) (A) (A) (A) (A)
                 (A) (A) (A) (A) (A) (A) (A) (A) (A) (A) (A)
       Virtual   (A) (A) (A) (A) (A) (A) (A) (A) (A) (A) (A) (A)
                 (A) (A) (A) (A) (A) (A) (A) (A) (A) (A) (A) (A)
                 (A) (A) (A) (A) (A) (A) (A) (A) (A) (A) (A) (A)
                 (A) (A) (A) (A) (A) (A) (A) (A) (A) (A) (A) (A)
                 (A) (A) (A) (A) (A) (A) (A) (A) (A) (A) (A) (A)
                 (A) (A) (A) (A) (A) (A) (A) (A) (A) (A) (A) (A)
                 (A) (A) (A) (A) (A) (A) (A) (A) (A) (A) (A) (A)
                 (A) (A) (A) (A) (A) (A) (A) (A) (A) (A) (A) (A)
                 (A) (A) (A) (A) (A) (A) (A) (A) (A) (A) (A) (A)
                 (A) (A) (A) (A) (A) (A) (A) (A) (A) (A) (A) (A)
                 (A) (A) (A) (A) (A) (A) (A) (A) (A) (A) (A) (A)
                 (A) (A) (A) (A) (A) (A) (A) (A) (A) (A) (A) (A)
                 (A) (A) (A) (A) (A) (A) (A) (A) (A) (A) (A) (A)
                 (A) (A) (A) (A) (A) (A) (A) (A) (A) (A) (A) (A)
                 (A) (A) (A) (A) (A) (A) (A) (A) (A) (A) (A) (A)
                 (A) (A) (A) (A) (A) (A) (A) (A) (A) (A) (A) (A)
                 (A) (A) (A) (A) (A) (A) (A) (A) (A) (A) (A) (A)
                 (A) (A) (A) (A) (A) (A) (A) (A) (A) (A) (A) (A)
                 (A) (A) (A) (A) (A) (A) (A) (A) (A) (A) (A) (A)
                 (A) (A) (A) (A) (A) (A) (A) (A) (A) (A) (A) (A)
                 (A) (A) (A) (A) (A) (A) (A) (A) (A) (A) (A) (A)
                 (A) (A) (A) (A) (A) (A) (A) (A) (A) (A) (A) (A)
                 (A) (A) (A) (A) (A) (A) (A) (A) (A) (A) (A) (A)
                 (A) (A) (A) (A) (A) (A) (A) (A) (A) (A) (A) (A)
                 (A) (A) (A) (A) (A) (A) (A) (A) (A) (A) (A) (A)
                 (A) (A) (A) (A) (A) (A) (A) (A) (A) (A) (A) (A)
                 (A) (A) (A) (A) (A) (A) (A) (A) (A) (A) (A) (A)
                 (A) (A) (A) (A) (A) (A) (A) (A) (A) (A) (A) (A)
                 (A) (A) (A) (A) (A) (A) (A) (A) (A) (A) (A) (A)
                 (A) (A) (A) (A) (A) (A) (A) (A) (A) (A) (A) (A)
                 (A) (A) (A) (A) (A) (A) (A) (A) (A) (A) (A) (A)
                 (A) (A) (A) (A) (A) (A) (A) (A) (A) (A) (A) (A)
                 (A) (A) (A) (A) (A) (A) (A) (A) (A) (A) (A) (A)
                 (A) (A) (A) (A) (A) (A) (A) (A) (A) (A) (A) (A)
                 (A) (A) (A) (A) (A) (A) (A) (A) (A) (A) (A) (A)
                 (A) (A) (A) (A) (A) (A) (A) (A) (A) (A) (A) (A)
                 (A) (A) (A) (A) (A) (A) (A) (A) (A) (A) (A) (A)
                 (A) (A) (A) (A) (A) (A) (A) (A) (A) (A) (A) (A)
                 (A) (A) (A) (A) (A) (A) (A) (A) (A) (A) (A) (A)
                 (A) (A) (A) (A) (A) (A) (A) (A) (A) (A) (A) (A)
                 (A) (A) (A) (A) (A) (A)
 The electronic state of the initial guess is 1-A.
 Leave Link  401 at Wed Mar 25 12:57:49 2020, MaxMem= 2684354560 cpu:      16.3
 (Enter /opt/g09gh/gaussian/g09/l502.exe)
 Closed shell SCF:
 Requested convergence on RMS density matrix=1.00D-08 within 128 cycles.
 Requested convergence on MAX density matrix=1.00D-06.
 Requested convergence on             energy=1.00D-06.
 No special actions if energy rises.
 Using DIIS extrapolation, IDIIS=  1040.
 Integral symmetry usage will be decided dynamically.
       589976 words used for storage of precomputed grid.
 IEnd=     1758556 IEndB=     1758556 NGot=  2684354560 MDV=  2682993951
 LenX=  2682993951 LenY=  2682612645
 Fock matrices will be formed incrementally for  20 cycles.
 Integral accuracy reduced to 1.0D-05 until final iterations.

 Cycle   1  Pass 0  IDiag  1:
 FoFJK:  IHMeth= 1 ICntrl=     0 DoSepK=T KAlg= 1 I1Cent= 0 FoldK=F
 FoFCou: FMM=T IPFlag=           0 FMFlag=      100000 FMFlg1=           1
         NFxFlg=           0 DoJE=T BraDBF=F KetDBF=F FulRan=T
         Omega=  0.000000  0.000000  1.000000  0.000000  0.000000 ICntrl=     500 IOpCl=  0
         NMat0=    1 NMatS0=    1 NMatT0=    0 NMatD0=    1 NMtDS0=    0 NMtDT0=    0
         I1Cent=           0 NGrid=           0.
 Symmetry not used in FoFCou.
 FMM levels:  10  Number of levels for PrismC:   9
 E= -1581.16046543698    
 DIIS: error= 5.90D-02 at cycle   1 NSaved=   1.
 NSaved= 1 IEnMin= 1 EnMin= -1581.16046543698     IErMin= 1 ErrMin= 5.90D-02
 ErrMax= 5.90D-02 EMaxC= 1.00D-01 BMatC= 1.46D+00 BMatP= 1.46D+00
 IDIUse=3 WtCom= 4.10D-01 WtEn= 5.90D-01
 Coeff-Com:  0.100D+01
 Coeff-En:   0.100D+01
 Coeff:      0.100D+01
 Gap=     0.280 Goal=   None    Shift=    0.000
 GapD=    0.280 DampG=1.000 DampE=0.500 DampFc=0.5000 IDamp=-1.
 Damping current iteration by 5.00D-01
 RMSDP=1.87D-03 MaxDP=8.81D-02              OVMax= 1.70D-01

 Cycle   2  Pass 0  IDiag  1:
 RMSU=  6.62D-04    CP:  1.00D+00
 FoFJK:  IHMeth= 1 ICntrl=     0 DoSepK=T KAlg= 1 I1Cent= 0 FoldK=F
 E= -1581.33695554275     Delta-E=       -0.176490105770 Rises=F Damp=T
 DIIS: error= 2.96D-02 at cycle   2 NSaved=   2.
 NSaved= 2 IEnMin= 2 EnMin= -1581.33695554275     IErMin= 2 ErrMin= 2.96D-02
 ErrMax= 2.96D-02 EMaxC= 1.00D-01 BMatC= 3.22D-01 BMatP= 1.46D+00
 IDIUse=3 WtCom= 7.04D-01 WtEn= 2.96D-01
 Coeff-Com: -0.654D+00 0.165D+01
 Coeff-En:   0.000D+00 0.100D+01
 Coeff:     -0.460D+00 0.146D+01
 Gap=     0.291 Goal=   None    Shift=    0.000
 RMSDP=8.65D-04 MaxDP=3.79D-02 DE=-1.76D-01 OVMax= 1.21D-01

 Cycle   3  Pass 0  IDiag  1:
 RMSU=  5.58D-04    CP:  1.00D+00  1.38D+00
 FoFJK:  IHMeth= 1 ICntrl=     0 DoSepK=T KAlg= 1 I1Cent= 0 FoldK=F
 E= -1581.46970994843     Delta-E=       -0.132754405678 Rises=F Damp=F
 DIIS: error= 8.62D-03 at cycle   3 NSaved=   3.
 NSaved= 3 IEnMin= 3 EnMin= -1581.46970994843     IErMin= 3 ErrMin= 8.62D-03
 ErrMax= 8.62D-03 EMaxC= 1.00D-01 BMatC= 5.96D-02 BMatP= 3.22D-01
 IDIUse=3 WtCom= 9.14D-01 WtEn= 8.62D-02
 Coeff-Com: -0.359D+00 0.742D+00 0.617D+00
 Coeff-En:   0.000D+00 0.000D+00 0.100D+01
 Coeff:     -0.328D+00 0.678D+00 0.650D+00
 Gap=     0.272 Goal=   None    Shift=    0.000
 RMSDP=4.56D-04 MaxDP=3.17D-02 DE=-1.33D-01 OVMax= 6.24D-02

 Cycle   4  Pass 0  IDiag  1:
 RMSU=  1.35D-04    CP:  1.00D+00  1.67D+00  6.05D-01
 FoFJK:  IHMeth= 1 ICntrl=     0 DoSepK=T KAlg= 1 I1Cent= 0 FoldK=F
 E= -1581.52206285727     Delta-E=       -0.052352908839 Rises=F Damp=F
 DIIS: error= 2.07D-03 at cycle   4 NSaved=   4.
 NSaved= 4 IEnMin= 4 EnMin= -1581.52206285727     IErMin= 4 ErrMin= 2.07D-03
 ErrMax= 2.07D-03 EMaxC= 1.00D-01 BMatC= 3.53D-03 BMatP= 5.96D-02
 IDIUse=3 WtCom= 9.79D-01 WtEn= 2.07D-02
 Coeff-Com: -0.158D+00 0.321D+00 0.346D+00 0.490D+00
 Coeff-En:   0.000D+00 0.000D+00 0.000D+00 0.100D+01
 Coeff:     -0.154D+00 0.315D+00 0.339D+00 0.501D+00
 Gap=     0.265 Goal=   None    Shift=    0.000
 RMSDP=9.70D-05 MaxDP=9.34D-03 DE=-5.24D-02 OVMax= 1.01D-02

 Cycle   5  Pass 0  IDiag  1:
 RMSU=  4.49D-05    CP:  1.00D+00  1.65D+00  6.69D-01  7.41D-01
 FoFJK:  IHMeth= 1 ICntrl=     0 DoSepK=T KAlg= 1 I1Cent= 0 FoldK=F
 E= -1581.52502230799     Delta-E=       -0.002959450716 Rises=F Damp=F
 DIIS: error= 5.43D-04 at cycle   5 NSaved=   5.
 NSaved= 5 IEnMin= 5 EnMin= -1581.52502230799     IErMin= 5 ErrMin= 5.43D-04
 ErrMax= 5.43D-04 EMaxC= 1.00D-01 BMatC= 8.88D-05 BMatP= 3.53D-03
 IDIUse=3 WtCom= 9.95D-01 WtEn= 5.43D-03
 Coeff-Com: -0.136D-01 0.267D-01 0.526D-01 0.162D+00 0.772D+00
 Coeff-En:   0.000D+00 0.000D+00 0.000D+00 0.000D+00 0.100D+01
 Coeff:     -0.135D-01 0.266D-01 0.523D-01 0.161D+00 0.774D+00
 Gap=     0.264 Goal=   None    Shift=    0.000
 RMSDP=2.46D-05 MaxDP=2.65D-03 DE=-2.96D-03 OVMax= 2.89D-03

 Cycle   6  Pass 0  IDiag  1:
 RMSU=  1.36D-05    CP:  1.00D+00  1.65D+00  6.76D-01  8.10D-01  9.73D-01
 FoFJK:  IHMeth= 1 ICntrl=     0 DoSepK=T KAlg= 1 I1Cent= 0 FoldK=F
 E= -1581.52511005976     Delta-E=       -0.000087751769 Rises=F Damp=F
 DIIS: error= 2.72D-04 at cycle   6 NSaved=   6.
 NSaved= 6 IEnMin= 6 EnMin= -1581.52511005976     IErMin= 6 ErrMin= 2.72D-04
 ErrMax= 2.72D-04 EMaxC= 1.00D-01 BMatC= 2.78D-05 BMatP= 8.88D-05
 IDIUse=3 WtCom= 9.97D-01 WtEn= 2.72D-03
 Coeff-Com:  0.238D-01-0.491D-01-0.384D-01-0.173D-01 0.402D+00 0.679D+00
 Coeff-En:   0.000D+00 0.000D+00 0.000D+00 0.000D+00 0.000D+00 0.100D+01
 Coeff:      0.237D-01-0.490D-01-0.383D-01-0.173D-01 0.401D+00 0.680D+00
 Gap=     0.265 Goal=   None    Shift=    0.000
 RMSDP=1.31D-05 MaxDP=8.34D-04 DE=-8.78D-05 OVMax= 1.65D-03

 Cycle   7  Pass 0  IDiag  1:
 RMSU=  5.68D-06    CP:  1.00D+00  1.66D+00  6.80D-01  8.39D-01  1.09D+00
                    CP:  9.05D-01
 FoFJK:  IHMeth= 1 ICntrl=     0 DoSepK=T KAlg= 1 I1Cent= 0 FoldK=F
 E= -1581.52514124586     Delta-E=       -0.000031186105 Rises=F Damp=F
 DIIS: error= 7.14D-05 at cycle   7 NSaved=   7.
 NSaved= 7 IEnMin= 7 EnMin= -1581.52514124586     IErMin= 7 ErrMin= 7.14D-05
 ErrMax= 7.14D-05 EMaxC= 1.00D-01 BMatC= 1.57D-06 BMatP= 2.78D-05
 IDIUse=1 WtCom= 1.00D+00 WtEn= 0.00D+00
 Coeff-Com:  0.932D-02-0.191D-01-0.171D-01-0.217D-01 0.656D-01 0.224D+00
 Coeff-Com:  0.759D+00
 Coeff:      0.932D-02-0.191D-01-0.171D-01-0.217D-01 0.656D-01 0.224D+00
 Coeff:      0.759D+00
 Gap=     0.265 Goal=   None    Shift=    0.000
 RMSDP=4.11D-06 MaxDP=2.43D-04 DE=-3.12D-05 OVMax= 6.48D-04

 Initial convergence to 1.0D-05 achieved.  Increase integral accuracy.
 Cycle   8  Pass 1  IDiag  1:
 FoFJK:  IHMeth= 1 ICntrl=     0 DoSepK=T KAlg= 1 I1Cent= 0 FoldK=F
 E= -1581.52337897714     Delta-E=        0.001762268718 Rises=F Damp=F
 DIIS: error= 8.66D-05 at cycle   1 NSaved=   1.
 NSaved= 1 IEnMin= 1 EnMin= -1581.52337897714     IErMin= 1 ErrMin= 8.66D-05
 ErrMax= 8.66D-05 EMaxC= 1.00D-01 BMatC= 1.33D-05 BMatP= 1.33D-05
 IDIUse=1 WtCom= 1.00D+00 WtEn= 0.00D+00
 Coeff-Com:  0.100D+01
 Coeff:      0.100D+01
 Gap=     0.265 Goal=   None    Shift=    0.000
 RMSDP=4.11D-06 MaxDP=2.43D-04 DE= 1.76D-03 OVMax= 3.78D-04

 Cycle   9  Pass 1  IDiag  1:
 RMSU=  1.90D-05    CP:  1.00D+00
 FoFJK:  IHMeth= 1 ICntrl=     0 DoSepK=T KAlg= 1 I1Cent= 0 FoldK=F
 E= -1581.52338957523     Delta-E=       -0.000010598083 Rises=F Damp=F
 DIIS: error= 3.76D-05 at cycle   2 NSaved=   2.
 NSaved= 2 IEnMin= 2 EnMin= -1581.52338957523     IErMin= 2 ErrMin= 3.76D-05
 ErrMax= 3.76D-05 EMaxC= 1.00D-01 BMatC= 6.80D-07 BMatP= 1.33D-05
 IDIUse=1 WtCom= 1.00D+00 WtEn= 0.00D+00
 Coeff-Com:  0.225D-01 0.978D+00
 Coeff:      0.225D-01 0.978D+00
 Gap=     0.265 Goal=   None    Shift=    0.000
 RMSDP=3.15D-06 MaxDP=2.26D-04 DE=-1.06D-05 OVMax= 3.33D-04

 Cycle  10  Pass 1  IDiag  1:
 RMSU=  2.01D-06    CP:  1.00D+00  1.05D+00
 FoFJK:  IHMeth= 1 ICntrl=     0 DoSepK=T KAlg= 1 I1Cent= 0 FoldK=F
 E= -1581.52338964970     Delta-E=       -0.000000074477 Rises=F Damp=F
 DIIS: error= 4.04D-05 at cycle   3 NSaved=   3.
 NSaved= 3 IEnMin= 3 EnMin= -1581.52338964970     IErMin= 2 ErrMin= 3.76D-05
 ErrMax= 4.04D-05 EMaxC= 1.00D-01 BMatC= 8.14D-07 BMatP= 6.80D-07
 IDIUse=1 WtCom= 1.00D+00 WtEn= 0.00D+00
 Coeff-Com: -0.386D-01 0.540D+00 0.498D+00
 Coeff:     -0.386D-01 0.540D+00 0.498D+00
 Gap=     0.265 Goal=   None    Shift=    0.000
 RMSDP=1.50D-06 MaxDP=1.25D-04 DE=-7.45D-08 OVMax= 1.54D-04

 Cycle  11  Pass 1  IDiag  1:
 RMSU=  6.29D-07    CP:  1.00D+00  1.06D+00  5.82D-01
 FoFJK:  IHMeth= 1 ICntrl=     0 DoSepK=T KAlg= 1 I1Cent= 0 FoldK=F
 E= -1581.52339036915     Delta-E=       -0.000000719450 Rises=F Damp=F
 DIIS: error= 7.33D-06 at cycle   4 NSaved=   4.
 NSaved= 4 IEnMin= 4 EnMin= -1581.52339036915     IErMin= 4 ErrMin= 7.33D-06
 ErrMax= 7.33D-06 EMaxC= 1.00D-01 BMatC= 2.23D-08 BMatP= 6.80D-07
 IDIUse=1 WtCom= 1.00D+00 WtEn= 0.00D+00
 Coeff-Com: -0.162D-01 0.123D+00 0.176D+00 0.716D+00
 Coeff:     -0.162D-01 0.123D+00 0.176D+00 0.716D+00
 Gap=     0.265 Goal=   None    Shift=    0.000
 RMSDP=3.46D-07 MaxDP=3.61D-05 DE=-7.19D-07 OVMax= 3.80D-05

 Cycle  12  Pass 1  IDiag  1:
 RMSU=  2.15D-07    CP:  1.00D+00  1.06D+00  6.38D-01  1.03D+00
 FoFJK:  IHMeth= 1 ICntrl=     0 DoSepK=T KAlg= 1 I1Cent= 0 FoldK=F
 E= -1581.52339039181     Delta-E=       -0.000000022661 Rises=F Damp=F
 DIIS: error= 2.91D-06 at cycle   5 NSaved=   5.
 NSaved= 5 IEnMin= 5 EnMin= -1581.52339039181     IErMin= 5 ErrMin= 2.91D-06
 ErrMax= 2.91D-06 EMaxC= 1.00D-01 BMatC= 4.89D-09 BMatP= 2.23D-08
 IDIUse=1 WtCom= 1.00D+00 WtEn= 0.00D+00
 Coeff-Com: -0.265D-04-0.398D-01-0.965D-02 0.316D+00 0.734D+00
 Coeff:     -0.265D-04-0.398D-01-0.965D-02 0.316D+00 0.734D+00
 Gap=     0.265 Goal=   None    Shift=    0.000
 RMSDP=1.90D-07 MaxDP=1.22D-05 DE=-2.27D-08 OVMax= 2.90D-05

 Cycle  13  Pass 1  IDiag  1:
 RMSU=  9.08D-08    CP:  1.00D+00  1.06D+00  6.56D-01  1.18D+00  9.63D-01
 FoFJK:  IHMeth= 1 ICntrl=     0 DoSepK=T KAlg= 1 I1Cent= 0 FoldK=F
 E= -1581.52339039842     Delta-E=       -0.000000006607 Rises=F Damp=F
 DIIS: error= 7.44D-07 at cycle   6 NSaved=   6.
 NSaved= 6 IEnMin= 6 EnMin= -1581.52339039842     IErMin= 6 ErrMin= 7.44D-07
 ErrMax= 7.44D-07 EMaxC= 1.00D-01 BMatC= 5.59D-10 BMatP= 4.89D-09
 IDIUse=1 WtCom= 1.00D+00 WtEn= 0.00D+00
 Coeff-Com:  0.207D-02-0.297D-01-0.262D-01 0.237D-01 0.274D+00 0.757D+00
 Coeff:      0.207D-02-0.297D-01-0.262D-01 0.237D-01 0.274D+00 0.757D+00
 Gap=     0.265 Goal=   None    Shift=    0.000
 RMSDP=8.10D-08 MaxDP=4.06D-06 DE=-6.61D-09 OVMax= 1.45D-05

 Cycle  14  Pass 1  IDiag  1:
 RMSU=  3.57D-08    CP:  1.00D+00  1.06D+00  6.60D-01  1.23D+00  1.10D+00
                    CP:  1.04D+00
 FoFJK:  IHMeth= 1 ICntrl=     0 DoSepK=T KAlg= 1 I1Cent= 0 FoldK=F
 E= -1581.52339039963     Delta-E=       -0.000000001210 Rises=F Damp=F
 DIIS: error= 3.58D-07 at cycle   7 NSaved=   7.
 NSaved= 7 IEnMin= 7 EnMin= -1581.52339039963     IErMin= 7 ErrMin= 3.58D-07
 ErrMax= 3.58D-07 EMaxC= 1.00D-01 BMatC= 1.08D-10 BMatP= 5.59D-10
 IDIUse=1 WtCom= 1.00D+00 WtEn= 0.00D+00
 Coeff-Com:  0.778D-03-0.436D-02-0.905D-02-0.538D-01-0.333D-01 0.286D+00
 Coeff-Com:  0.813D+00
 Coeff:      0.778D-03-0.436D-02-0.905D-02-0.538D-01-0.333D-01 0.286D+00
 Coeff:      0.813D+00
 Gap=     0.265 Goal=   None    Shift=    0.000
 RMSDP=4.46D-08 MaxDP=2.52D-06 DE=-1.21D-09 OVMax= 8.39D-06

 Cycle  15  Pass 1  IDiag  1:
 RMSU=  1.47D-08    CP:  1.00D+00  1.06D+00  6.65D-01  1.25D+00  1.15D+00
                    CP:  1.24D+00  1.09D+00
 FoFJK:  IHMeth= 1 ICntrl=     0 DoSepK=T KAlg= 1 I1Cent= 0 FoldK=F
 E= -1581.52339039987     Delta-E=       -0.000000000236 Rises=F Damp=F
 DIIS: error= 1.32D-07 at cycle   8 NSaved=   8.
 NSaved= 8 IEnMin= 8 EnMin= -1581.52339039987     IErMin= 8 ErrMin= 1.32D-07
 ErrMax= 1.32D-07 EMaxC= 1.00D-01 BMatC= 1.53D-11 BMatP= 1.08D-10
 IDIUse=1 WtCom= 1.00D+00 WtEn= 0.00D+00
 Coeff-Com: -0.109D-03 0.389D-02 0.176D-02-0.205D-01-0.548D-01-0.402D-01
 Coeff-Com:  0.268D+00 0.842D+00
 Coeff:     -0.109D-03 0.389D-02 0.176D-02-0.205D-01-0.548D-01-0.402D-01
 Coeff:      0.268D+00 0.842D+00
 Gap=     0.265 Goal=   None    Shift=    0.000
 RMSDP=1.82D-08 MaxDP=1.10D-06 DE=-2.36D-10 OVMax= 3.85D-06

 Cycle  16  Pass 1  IDiag  1:
 RMSU=  5.88D-09    CP:  1.00D+00  1.06D+00  6.65D-01  1.26D+00  1.17D+00
                    CP:  1.30D+00  1.29D+00  1.09D+00
 FoFJK:  IHMeth= 1 ICntrl=     0 DoSepK=T KAlg= 1 I1Cent= 0 FoldK=F
 E= -1581.52339039995     Delta-E=       -0.000000000080 Rises=F Damp=F
 DIIS: error= 5.52D-08 at cycle   9 NSaved=   9.
 NSaved= 9 IEnMin= 9 EnMin= -1581.52339039995     IErMin= 9 ErrMin= 5.52D-08
 ErrMax= 5.52D-08 EMaxC= 1.00D-01 BMatC= 2.86D-12 BMatP= 1.53D-11
 IDIUse=1 WtCom= 1.00D+00 WtEn= 0.00D+00
 Coeff-Com: -0.167D-03 0.226D-02 0.217D-02 0.155D-03-0.174D-01-0.668D-01
 Coeff-Com: -0.255D-01 0.319D+00 0.787D+00
 Coeff:     -0.167D-03 0.226D-02 0.217D-02 0.155D-03-0.174D-01-0.668D-01
 Coeff:     -0.255D-01 0.319D+00 0.787D+00
 Gap=     0.265 Goal=   None    Shift=    0.000
 RMSDP=7.20D-09 MaxDP=4.09D-07 DE=-8.00D-11 OVMax= 1.40D-06

 SCF Done:  E(RwB97XD) =  -1581.52339040     A.U. after   16 cycles
             Convg  =    0.7197D-08             -V/T =  2.0109
 KE= 1.564498882438D+03 PE=-1.121011771983D+04 EE= 4.292745628897D+03
 Leave Link  502 at Wed Mar 25 13:00:47 2020, MaxMem= 2684354560 cpu:    1069.0
 (Enter /opt/g09gh/gaussian/g09/l601.exe)
 Copying SCF densities to generalized density rwf, IOpCl= 0 IROHF=0.

 **********************************************************************

            Population analysis using the SCF density.

 **********************************************************************

 Orbital symmetries:
       Occupied  (A) (A) (A) (A) (A) (A) (A) (A) (A) (A) (A) (A)
                 (A) (A) (A) (A) (A) (A) (A) (A) (A) (A) (A) (A)
                 (A) (A) (A) (A) (A) (A) (A) (A) (A) (A) (A) (A)
                 (A) (A) (A) (A) (A) (A) (A) (A) (A) (A) (A) (A)
                 (A) (A) (A) (A) (A) (A) (A) (A) (A) (A) (A) (A)
                 (A) (A) (A) (A) (A) (A) (A) (A) (A) (A) (A) (A)
                 (A) (A) (A) (A) (A) (A) (A) (A) (A) (A) (A) (A)
                 (A) (A) (A) (A) (A) (A) (A) (A) (A) (A) (A) (A)
                 (A) (A) (A) (A) (A) (A) (A) (A) (A) (A) (A) (A)
                 (A) (A) (A) (A) (A) (A) (A) (A) (A) (A) (A) (A)
                 (A) (A) (A) (A) (A) (A) (A) (A) (A) (A) (A)
       Virtual   (A) (A) (A) (A) (A) (A) (A) (A) (A) (A) (A) (A)
                 (A) (A) (A) (A) (A) (A) (A) (A) (A) (A) (A) (A)
                 (A) (A) (A) (A) (A) (A) (A) (A) (A) (A) (A) (A)
                 (A) (A) (A) (A) (A) (A) (A) (A) (A) (A) (A) (A)
                 (A) (A) (A) (A) (A) (A) (A) (A) (A) (A) (A) (A)
                 (A) (A) (A) (A) (A) (A) (A) (A) (A) (A) (A) (A)
                 (A) (A) (A) (A) (A) (A) (A) (A) (A) (A) (A) (A)
                 (A) (A) (A) (A) (A) (A) (A) (A) (A) (A) (A) (A)
                 (A) (A) (A) (A) (A) (A) (A) (A) (A) (A) (A) (A)
                 (A) (A) (A) (A) (A) (A) (A) (A) (A) (A) (A) (A)
                 (A) (A) (A) (A) (A) (A) (A) (A) (A) (A) (A) (A)
                 (A) (A) (A) (A) (A) (A) (A) (A) (A) (A) (A) (A)
                 (A) (A) (A) (A) (A) (A) (A) (A) (A) (A) (A) (A)
                 (A) (A) (A) (A) (A) (A) (A) (A) (A) (A) (A) (A)
                 (A) (A) (A) (A) (A) (A) (A) (A) (A) (A) (A) (A)
                 (A) (A) (A) (A) (A) (A) (A) (A) (A) (A) (A) (A)
                 (A) (A) (A) (A) (A) (A) (A) (A) (A) (A) (A) (A)
                 (A) (A) (A) (A) (A) (A) (A) (A) (A) (A) (A) (A)
                 (A) (A) (A) (A) (A) (A) (A) (A) (A) (A) (A) (A)
                 (A) (A) (A) (A) (A) (A) (A) (A) (A) (A) (A) (A)
                 (A) (A) (A) (A) (A) (A) (A) (A) (A) (A) (A) (A)
                 (A) (A) (A) (A) (A) (A) (A) (A) (A) (A) (A) (A)
                 (A) (A) (A) (A) (A) (A) (A) (A) (A) (A) (A) (A)
                 (A) (A) (A) (A) (A) (A) (A) (A) (A) (A) (A) (A)
                 (A) (A) (A) (A) (A) (A) (A) (A) (A) (A) (A) (A)
                 (A) (A) (A) (A) (A) (A) (A) (A) (A) (A) (A) (A)
                 (A) (A) (A) (A) (A) (A) (A) (A) (A) (A) (A) (A)
                 (A) (A) (A) (A) (A) (A) (A) (A) (A) (A) (A) (A)
                 (A) (A) (A) (A) (A) (A) (A) (A) (A) (A) (A) (A)
                 (A) (A) (A) (A) (A) (A) (A) (A) (A) (A) (A) (A)
                 (A) (A) (A) (A) (A) (A) (A) (A) (A) (A) (A) (A)
                 (A) (A) (A) (A) (A) (A) (A) (A) (A) (A) (A) (A)
                 (A) (A) (A) (A) (A) (A) (A) (A) (A) (A) (A) (A)
                 (A) (A) (A) (A) (A) (A) (A) (A) (A) (A) (A) (A)
                 (A) (A) (A) (A) (A) (A) (A) (A) (A) (A) (A) (A)
                 (A) (A) (A) (A) (A) (A) (A) (A) (A) (A) (A) (A)
                 (A) (A) (A) (A) (A) (A) (A) (A) (A) (A) (A) (A)
                 (A) (A) (A) (A) (A) (A) (A) (A) (A) (A) (A) (A)
                 (A) (A) (A) (A) (A) (A) (A) (A) (A) (A) (A) (A)
                 (A) (A) (A) (A) (A) (A) (A) (A) (A) (A) (A) (A)
                 (A) (A) (A) (A) (A) (A)
 The electronic state is 1-A.
 Alpha  occ. eigenvalues --  -19.24289 -14.49691 -14.49574 -14.47342 -14.46131
 Alpha  occ. eigenvalues --  -14.46089 -14.45869 -14.45351 -10.42089 -10.41407
 Alpha  occ. eigenvalues --  -10.38074 -10.37137 -10.36660 -10.36466 -10.36346
 Alpha  occ. eigenvalues --  -10.36345 -10.36064 -10.35422 -10.35178 -10.35026
 Alpha  occ. eigenvalues --  -10.34925 -10.33888 -10.33765 -10.32978 -10.32940
 Alpha  occ. eigenvalues --  -10.32707 -10.32518 -10.32303 -10.32111 -10.32105
 Alpha  occ. eigenvalues --  -10.32048 -10.31692 -10.31487 -10.30552 -10.30495
 Alpha  occ. eigenvalues --  -10.30057 -10.29534  -1.14384  -1.11563  -1.05235
 Alpha  occ. eigenvalues --   -1.04278  -1.04202  -1.03411  -1.00258  -1.00101
 Alpha  occ. eigenvalues --   -0.97191  -0.94853  -0.91929  -0.89734  -0.88884
 Alpha  occ. eigenvalues --   -0.87084  -0.86704  -0.86121  -0.84718  -0.84048
 Alpha  occ. eigenvalues --   -0.82760  -0.80038  -0.78569  -0.77756  -0.76008
 Alpha  occ. eigenvalues --   -0.73505  -0.73294  -0.72793  -0.72232  -0.71702
 Alpha  occ. eigenvalues --   -0.71237  -0.70118  -0.68947  -0.66887  -0.64817
 Alpha  occ. eigenvalues --   -0.63569  -0.62893  -0.62298  -0.61522  -0.60424
 Alpha  occ. eigenvalues --   -0.59201  -0.58480  -0.57521  -0.57006  -0.56439
 Alpha  occ. eigenvalues --   -0.56283  -0.55894  -0.55037  -0.54923  -0.54638
 Alpha  occ. eigenvalues --   -0.53923  -0.53851  -0.53136  -0.52618  -0.52123
 Alpha  occ. eigenvalues --   -0.51996  -0.51800  -0.51488  -0.51209  -0.50835
 Alpha  occ. eigenvalues --   -0.50656  -0.50312  -0.49809  -0.49464  -0.49052
 Alpha  occ. eigenvalues --   -0.48074  -0.47726  -0.47164  -0.46937  -0.46095
 Alpha  occ. eigenvalues --   -0.46053  -0.45567  -0.45129  -0.44406  -0.44188
 Alpha  occ. eigenvalues --   -0.43774  -0.43494  -0.43160  -0.41424  -0.41049
 Alpha  occ. eigenvalues --   -0.40153  -0.38694  -0.38234  -0.37012  -0.36600
 Alpha  occ. eigenvalues --   -0.35434  -0.34868  -0.34761  -0.34202  -0.33810
 Alpha  occ. eigenvalues --   -0.33323  -0.33041  -0.31933  -0.29802  -0.27744
 Alpha  occ. eigenvalues --   -0.26826
 Alpha virt. eigenvalues --   -0.00311   0.01909   0.03421   0.04321   0.04594
 Alpha virt. eigenvalues --    0.06873   0.07163   0.07241   0.08996   0.09749
 Alpha virt. eigenvalues --    0.11188   0.12150   0.12724   0.13491   0.14934
 Alpha virt. eigenvalues --    0.16449   0.17482   0.18169   0.18314   0.18687
 Alpha virt. eigenvalues --    0.19085   0.19745   0.20242   0.21292   0.21615
 Alpha virt. eigenvalues --    0.22470   0.22541   0.23061   0.23360   0.23493
 Alpha virt. eigenvalues --    0.23771   0.24269   0.24304   0.24419   0.24952
 Alpha virt. eigenvalues --    0.25110   0.25491   0.25797   0.25958   0.26848
 Alpha virt. eigenvalues --    0.26942   0.27381   0.27629   0.27961   0.28503
 Alpha virt. eigenvalues --    0.28795   0.29115   0.29821   0.30437   0.31171
 Alpha virt. eigenvalues --    0.31515   0.31793   0.32583   0.32730   0.33383
 Alpha virt. eigenvalues --    0.34132   0.35171   0.35407   0.36222   0.37187
 Alpha virt. eigenvalues --    0.37402   0.37797   0.38336   0.38945   0.39149
 Alpha virt. eigenvalues --    0.39888   0.40390   0.40628   0.40968   0.41557
 Alpha virt. eigenvalues --    0.43081   0.44521   0.45192   0.45939   0.46082
 Alpha virt. eigenvalues --    0.47978   0.49614   0.50976   0.52566   0.53384
 Alpha virt. eigenvalues --    0.54853   0.55593   0.56089   0.57446   0.57499
 Alpha virt. eigenvalues --    0.57917   0.58256   0.58909   0.59251   0.59896
 Alpha virt. eigenvalues --    0.60224   0.60453   0.60730   0.61561   0.61821
 Alpha virt. eigenvalues --    0.62353   0.62605   0.62772   0.62978   0.63311
 Alpha virt. eigenvalues --    0.63684   0.64149   0.64658   0.64753   0.65102
 Alpha virt. eigenvalues --    0.65386   0.65544   0.65618   0.66000   0.66229
 Alpha virt. eigenvalues --    0.66819   0.67095   0.67562   0.67650   0.67843
 Alpha virt. eigenvalues --    0.68166   0.68455   0.68660   0.69236   0.69923
 Alpha virt. eigenvalues --    0.69978   0.70481   0.71004   0.71563   0.71801
 Alpha virt. eigenvalues --    0.72101   0.72230   0.72313   0.72986   0.73400
 Alpha virt. eigenvalues --    0.73952   0.74434   0.75139   0.75539   0.76051
 Alpha virt. eigenvalues --    0.77210   0.77450   0.78554   0.79138   0.79944
 Alpha virt. eigenvalues --    0.80534   0.80782   0.81636   0.81886   0.82389
 Alpha virt. eigenvalues --    0.82720   0.83661   0.84195   0.84278   0.85301
 Alpha virt. eigenvalues --    0.86150   0.86524   0.86718   0.87900   0.88285
 Alpha virt. eigenvalues --    0.88588   0.89271   0.89678   0.90161   0.90489
 Alpha virt. eigenvalues --    0.90930   0.91445   0.91624   0.92020   0.92284
 Alpha virt. eigenvalues --    0.92972   0.93178   0.93444   0.93479   0.93782
 Alpha virt. eigenvalues --    0.94106   0.94222   0.94870   0.95077   0.95674
 Alpha virt. eigenvalues --    0.96026   0.96693   0.97130   0.97281   0.97862
 Alpha virt. eigenvalues --    0.98076   0.98987   0.99517   1.00039   1.00326
 Alpha virt. eigenvalues --    1.00528   1.00653   1.01178   1.01827   1.02805
 Alpha virt. eigenvalues --    1.03358   1.03723   1.04943   1.05408   1.05774
 Alpha virt. eigenvalues --    1.06697   1.06877   1.07111   1.07710   1.08458
[...]
                 (A) (A) (A) (A) (A) (A) (A) (A) (A) (A) (A) (A)
                 (A) (A) (A) (A) (A) (A) (A) (A) (A) (A) (A) (A)
                 (A) (A) (A) (A) (A) (A) (A) (A) (A) (A) (A) (A)
                 (A) (A) (A) (A) (A) (A) (A) (A) (A) (A) (A) (A)
                 (A) (A) (A) (A) (A) (A) (A) (A) (A) (A) (A) (A)
                 (A) (A) (A) (A) (A) (A) (A) (A) (A) (A) (A) (A)
                 (A) (A) (A) (A) (A) (A) (A) (A) (A) (A) (A) (A)
                 (A) (A) (A) (A) (A) (A) (A) (A) (A) (A) (A) (A)
                 (A) (A) (A) (A) (A) (A) (A) (A) (A) (A) (A) (A)
                 (A) (A) (A) (A) (A) (A) (A) (A) (A) (A) (A) (A)
                 (A) (A) (A) (A) (A) (A) (A) (A) (A) (A) (A) (A)
                 (A) (A) (A) (A) (A) (A) (A) (A) (A) (A) (A) (A)
                 (A) (A) (A) (A) (A) (A) (A) (A) (A) (A) (A) (A)
                 (A) (A) (A) (A) (A) (A) (A) (A) (A) (A) (A) (A)
                 (A) (A) (A) (A) (A) (A) (A) (A) (A) (A) (A) (A)
                 (A) (A) (A) (A) (A) (A) (A) (A) (A) (A) (A) (A)
                 (A) (A) (A) (A) (A) (A) (A) (A) (A) (A) (A) (A)
                 (A) (A) (A) (A) (A) (A) (A) (A) (A) (A) (A) (A)
                 (A) (A) (A) (A) (A) (A) (A) (A) (A) (A) (A) (A)
                 (A) (A) (A) (A) (A) (A) (A) (A) (A) (A) (A) (A)
                 (A) (A) (A) (A) (A) (A) (A) (A) (A) (A) (A) (A)
                 (A) (A) (A) (A) (A) (A) (A) (A) (A) (A) (A) (A)
                 (A) (A) (A) (A) (A) (A) (A) (A) (A) (A) (A) (A)
                 (A) (A) (A) (A) (A) (A) (A) (A) (A) (A) (A) (A)
                 (A) (A) (A) (A) (A) (A) (A) (A) (A) (A) (A) (A)
                 (A) (A) (A) (A) (A) (A) (A) (A) (A) (A) (A) (A)
                 (A) (A) (A) (A) (A) (A) (A) (A) (A) (A) (A) (A)
                 (A) (A) (A) (A) (A) (A) (A) (A) (A) (A) (A) (A)
                 (A) (A) (A) (A) (A) (A) (A) (A) (A) (A) (A) (A)
                 (A) (A) (A) (A) (A) (A) (A) (A) (A) (A) (A) (A)
                 (A) (A) (A) (A) (A) (A) (A) (A) (A) (A) (A) (A)
                 (A) (A) (A) (A) (A) (A) (A) (A) (A) (A) (A) (A)
                 (A) (A) (A) (A) (A) (A) (A) (A) (A) (A) (A) (A)
                 (A) (A) (A) (A) (A) (A)
 The electronic state is 1-A.
 Alpha  occ. eigenvalues --  -19.24089 -14.49150 -14.49017 -14.45638 -14.45495
 Alpha  occ. eigenvalues --  -14.45254 -14.44752 -14.44486 -10.41410 -10.40878
 Alpha  occ. eigenvalues --  -10.36990 -10.35812 -10.34772 -10.34358 -10.34178
 Alpha  occ. eigenvalues --  -10.33795 -10.33270 -10.32415 -10.32329 -10.32275
 Alpha  occ. eigenvalues --  -10.32159 -10.32061 -10.32003 -10.31811 -10.31773
 Alpha  occ. eigenvalues --  -10.31762 -10.31723 -10.31419 -10.31321 -10.31205
 Alpha  occ. eigenvalues --  -10.31200 -10.30807 -10.30492 -10.30094 -10.29696
 Alpha  occ. eigenvalues --  -10.29148 -10.28553  -1.14248  -1.11908  -1.05088
 Alpha  occ. eigenvalues --   -1.04927  -1.04514  -1.03924  -1.00692  -1.00240
 Alpha  occ. eigenvalues --   -0.97149  -0.94799  -0.91759  -0.89379  -0.88646
 Alpha  occ. eigenvalues --   -0.86819  -0.86443  -0.86243  -0.85685  -0.83680
 Alpha  occ. eigenvalues --   -0.82873  -0.80131  -0.78570  -0.77406  -0.76021
 Alpha  occ. eigenvalues --   -0.74343  -0.73636  -0.72815  -0.71793  -0.71617
 Alpha  occ. eigenvalues --   -0.71220  -0.69819  -0.68525  -0.66744  -0.64958
 Alpha  occ. eigenvalues --   -0.64627  -0.63170  -0.62535  -0.61081  -0.60116
 Alpha  occ. eigenvalues --   -0.58973  -0.58182  -0.57565  -0.56650  -0.56349
 Alpha  occ. eigenvalues --   -0.55926  -0.55793  -0.55164  -0.54887  -0.54641
 Alpha  occ. eigenvalues --   -0.54423  -0.54138  -0.53873  -0.53287  -0.52595
 Alpha  occ. eigenvalues --   -0.51884  -0.51660  -0.51425  -0.50999  -0.50800
 Alpha  occ. eigenvalues --   -0.50409  -0.50019  -0.49366  -0.49204  -0.48843
 Alpha  occ. eigenvalues --   -0.47703  -0.47540  -0.47286  -0.47125  -0.46416
 Alpha  occ. eigenvalues --   -0.46063  -0.45850  -0.45151  -0.44692  -0.44090
 Alpha  occ. eigenvalues --   -0.43558  -0.43276  -0.42949  -0.42536  -0.41957
 Alpha  occ. eigenvalues --   -0.41847  -0.41095  -0.39715  -0.38105  -0.36396
 Alpha  occ. eigenvalues --   -0.35067  -0.34335  -0.34262  -0.34043  -0.33635
 Alpha  occ. eigenvalues --   -0.32954  -0.32672  -0.31975  -0.29393  -0.27113
 Alpha  occ. eigenvalues --   -0.26187
 Alpha virt. eigenvalues --    0.00536   0.02564   0.04139   0.04952   0.05308
 Alpha virt. eigenvalues --    0.07730   0.08197   0.10644   0.13795   0.14270
 Alpha virt. eigenvalues --    0.15592   0.15749   0.16868   0.17975   0.18382
 Alpha virt. eigenvalues --    0.18877   0.19180   0.19524   0.20059   0.20843
 Alpha virt. eigenvalues --    0.21467   0.21575   0.21968   0.22531   0.22992
 Alpha virt. eigenvalues --    0.23184   0.23427   0.23702   0.24386   0.24643
 Alpha virt. eigenvalues --    0.24893   0.25086   0.25291   0.26028   0.26593
 Alpha virt. eigenvalues --    0.26861   0.27309   0.27648   0.27896   0.28159
 Alpha virt. eigenvalues --    0.28384   0.28799   0.29514   0.29715   0.30037
 Alpha virt. eigenvalues --    0.30513   0.30852   0.31313   0.32108   0.32254
 Alpha virt. eigenvalues --    0.32388   0.32905   0.33396   0.33627   0.34009
 Alpha virt. eigenvalues --    0.34504   0.35642   0.36713   0.37018   0.37382
 Alpha virt. eigenvalues --    0.37905   0.38864   0.39722   0.39943   0.40340
 Alpha virt. eigenvalues --    0.40554   0.41069   0.41793   0.42030   0.42313
 Alpha virt. eigenvalues --    0.43168   0.45316   0.45521   0.46758   0.47145
 Alpha virt. eigenvalues --    0.48658   0.49987   0.51262   0.52806   0.53948
 Alpha virt. eigenvalues --    0.55946   0.56369   0.56871   0.57338   0.57686
 Alpha virt. eigenvalues --    0.58871   0.59230   0.59808   0.59936   0.60487
 Alpha virt. eigenvalues --    0.60824   0.61202   0.61359   0.61708   0.62578
 Alpha virt. eigenvalues --    0.62798   0.62938   0.63454   0.63829   0.64266
 Alpha virt. eigenvalues --    0.64676   0.64825   0.65128   0.65685   0.65949
 Alpha virt. eigenvalues --    0.66255   0.66536   0.66695   0.67034   0.67444
 Alpha virt. eigenvalues --    0.67626   0.68099   0.68525   0.69045   0.69205
 Alpha virt. eigenvalues --    0.69504   0.69928   0.70538   0.70617   0.71042
 Alpha virt. eigenvalues --    0.71161   0.71812   0.72347   0.72473   0.72882
 Alpha virt. eigenvalues --    0.73459   0.73622   0.73730   0.74544   0.74818
 Alpha virt. eigenvalues --    0.75377   0.76011   0.76528   0.77862   0.78288
 Alpha virt. eigenvalues --    0.78620   0.78792   0.79901   0.80407   0.80997
 Alpha virt. eigenvalues --    0.81995   0.82239   0.82834   0.83459   0.84024
 Alpha virt. eigenvalues --    0.84705   0.85227   0.86427   0.87064   0.88109
 Alpha virt. eigenvalues --    0.88670   0.89499   0.89702   0.90027   0.90201
 Alpha virt. eigenvalues --    0.90292   0.90866   0.91321   0.91741   0.92073
 Alpha virt. eigenvalues --    0.92531   0.92931   0.93180   0.93745   0.93813
 Alpha virt. eigenvalues --    0.93982   0.94224   0.94559   0.94790   0.95237
 Alpha virt. eigenvalues --    0.95463   0.96043   0.96719   0.96944   0.97251
 Alpha virt. eigenvalues --    0.97756   0.98265   0.98294   0.98738   0.99699
 Alpha virt. eigenvalues --    1.00547   1.00807   1.01166   1.01610   1.01764
 Alpha virt. eigenvalues --    1.02187   1.02932   1.03407   1.03936   1.04242
 Alpha virt. eigenvalues --    1.05162   1.05380   1.06037   1.06389   1.06643
 Alpha virt. eigenvalues --    1.07507   1.08231   1.08413   1.08616   1.08972
 Alpha virt. eigenvalues --    1.09535   1.10055   1.10433   1.11037   1.11397
 Alpha virt. eigenvalues --    1.12606   1.13491   1.13948   1.14482   1.15464
 Alpha virt. eigenvalues --    1.16338   1.16572   1.17773   1.18178   1.19121
 Alpha virt. eigenvalues --    1.19739   1.20785   1.22130   1.23197   1.23454
 Alpha virt. eigenvalues --    1.24552   1.24862   1.25409   1.26920   1.27354
 Alpha virt. eigenvalues --    1.28081   1.29003   1.29516   1.29867   1.31002
 Alpha virt. eigenvalues --    1.31414   1.32476   1.32894   1.33948   1.35590
 Alpha virt. eigenvalues --    1.35694   1.36500   1.36679   1.37476   1.38069
 Alpha virt. eigenvalues --    1.39643   1.40867   1.41630   1.43157   1.44258
 Alpha virt. eigenvalues --    1.46620   1.47247   1.47386   1.47738   1.48249
 Alpha virt. eigenvalues --    1.48928   1.49172   1.50190   1.50564   1.50631
 Alpha virt. eigenvalues --    1.51826   1.52615   1.53306   1.54479   1.54741
 Alpha virt. eigenvalues --    1.55186   1.55537   1.56043   1.56828   1.56982
 Alpha virt. eigenvalues --    1.57399   1.57739   1.58382   1.58464   1.58834
 Alpha virt. eigenvalues --    1.59765   1.60105   1.60598   1.60855   1.61892
 Alpha virt. eigenvalues --    1.63118   1.64402   1.65319   1.66094   1.66356
 Alpha virt. eigenvalues --    1.68757   1.69169   1.72116   1.74717   1.76754
 Alpha virt. eigenvalues --    1.79456   1.80714   1.81297   1.81652   1.82391
 Alpha virt. eigenvalues --    1.84745   1.84905   1.86453   1.87170   1.87677
 Alpha virt. eigenvalues --    1.88338   1.88853   1.89462   1.89934   1.90668
 Alpha virt. eigenvalues --    1.91466   1.92181   1.92649   1.92978   1.93957
 Alpha virt. eigenvalues --    1.94331   1.94893   1.96254   1.96689   1.97819
 Alpha virt. eigenvalues --    1.98329   1.98566   1.99082   1.99655   2.00185
 Alpha virt. eigenvalues --    2.00837   2.02288   2.02495   2.02648   2.04454
 Alpha virt. eigenvalues --    2.04691   2.05979   2.06194   2.07040   2.07411
 Alpha virt. eigenvalues --    2.07782   2.08454   2.08629   2.09898   2.10879
 Alpha virt. eigenvalues --    2.11590   2.11941   2.13039   2.14158   2.14545
 Alpha virt. eigenvalues --    2.15049   2.16733   2.16997   2.19644   2.19966
 Alpha virt. eigenvalues --    2.20667   2.20777   2.21674   2.21894   2.22215
 Alpha virt. eigenvalues --    2.22692   2.23582   2.23820   2.24869   2.25181
 Alpha virt. eigenvalues --    2.25336   2.25807   2.26227   2.26776   2.27148
 Alpha virt. eigenvalues --    2.28693   2.29064   2.30208   2.31656   2.33155
 Alpha virt. eigenvalues --    2.34292   2.34930   2.35081   2.36036   2.36503
 Alpha virt. eigenvalues --    2.37472   2.38040   2.38734   2.38972   2.39593
 Alpha virt. eigenvalues --    2.40562   2.41714   2.41799   2.42700   2.42977
 Alpha virt. eigenvalues --    2.43656   2.44467   2.44698   2.44949   2.45601
 Alpha virt. eigenvalues --    2.45903   2.46773   2.47873   2.48746   2.49716
 Alpha virt. eigenvalues --    2.49928   2.50556   2.51928   2.52882   2.55368
 Alpha virt. eigenvalues --    2.58362   2.59665   2.59934   2.62165   2.62647
 Alpha virt. eigenvalues --    2.64756   2.64975   2.65198   2.66219   2.67540
 Alpha virt. eigenvalues --    2.68477   2.69873   2.70900   2.72253   2.73107
 Alpha virt. eigenvalues --    2.74120   2.74329   2.74789   2.76498   2.76968
 Alpha virt. eigenvalues --    2.77407   2.78270   2.78523   2.79892   2.82023
 Alpha virt. eigenvalues --    2.82582   2.83109   2.83499   2.84369   2.84745
 Alpha virt. eigenvalues --    2.85671   2.86399   2.86840   2.87744   2.89075
 Alpha virt. eigenvalues --    2.90356   2.91180   2.91404   2.92988   2.94362
 Alpha virt. eigenvalues --    2.94809   2.95296   2.96982   3.00012   3.02841
 Alpha virt. eigenvalues --    3.04294   3.06834   3.08712   3.09831   3.11225
 Alpha virt. eigenvalues --    3.19058   3.26299   3.30264   3.38486   3.41452
 Alpha virt. eigenvalues --    3.45696   3.52555   3.56945   3.57329   4.12062
 Alpha virt. eigenvalues --    4.13980   4.16231   4.17410   4.18210   4.18857
 Alpha virt. eigenvalues --    4.19973   4.21327   4.21990   4.23870   4.24271
 Alpha virt. eigenvalues --    4.25826   4.26429   4.27559   4.31063   4.31940
 Alpha virt. eigenvalues --    4.33233   4.33395   4.35508   4.40031   4.40532
 Alpha virt. eigenvalues --    4.41942   4.44512   4.45493   4.48734   4.49510
 Alpha virt. eigenvalues --    4.50476   4.52280   4.56613   4.59641   4.62602
 Alpha virt. eigenvalues --    4.63927   4.66713   4.68309   4.79665   4.84024
 Alpha virt. eigenvalues --    4.89224
          Condensed to atoms (all electrons):
 Mulliken atomic charges:
              1
     1  C   -0.194952
     2  C   -0.155717
     3  C    0.040375
     4  C   -0.013274
     5  N   -0.423391
     6  C    0.014927
     7  C    0.286076
     8  C   -0.251843
     9  C    0.048515
    10  N   -0.497096
    11  C    0.713254
    12  N   -0.566529
    13  N   -0.806675
    14  C    0.298512
    15  C    0.117524
    16  C   -0.239665
    17  C   -0.190041
    18  C    0.353521
    19  C   -0.272317
    20  N   -0.760392
    21  C    0.589942
    22  C    0.015719
    23  C   -0.211588
    24  C   -0.218112
    25  C    0.154725
    26  C   -0.222990
    27  C   -0.177682
    28  C   -0.264403
    29  N   -0.380973
    30  C   -0.184921
    31  C   -0.181226
    32  N   -0.395907
    33  C   -0.355906
    34  C   -0.183101
    35  C   -0.188877
    36  O   -0.510954
    37  C   -0.608922
    38  H    0.212570
    39  H    0.199651
    40  H    0.174220
    41  H    0.169149
    42  H    0.186397
    43  H    0.188603
    44  H    0.369497
    45  H    0.161348
    46  H    0.213298
    47  H    0.199503
    48  H    0.357516
    49  H    0.179595
    50  H    0.167824
    51  H    0.167897
    52  H    0.201579
    53  H    0.172886
    54  H    0.172662
    55  H    0.156834
    56  H    0.163382
    57  H    0.155226
    58  H    0.161746
    59  H    0.144100
    60  H    0.168513
    61  H    0.173497
    62  H    0.158529
    63  H    0.171174
    64  H    0.163475
    65  H    0.159041
    66  H    0.184940
    67  H    0.179356
    68  H    0.190359
 Sum of Mulliken atomic charges =   0.00000
 Mulliken charges with hydrogens summed into heavy atoms:
              1
     1  C    0.017618
     2  C    0.043934
     3  C    0.040375
     4  C    0.160946
     5  N   -0.423391
     6  C    0.184076
     7  C    0.286076
     8  C   -0.065447
     9  C    0.237117
    10  N   -0.497096
    11  C    0.713254
    12  N   -0.566529
    13  N   -0.437179
    14  C    0.298512
    15  C    0.117524
    16  C   -0.078317
    17  C    0.023256
    18  C    0.353521
    19  C   -0.072814
    20  N   -0.402877
    21  C    0.589942
    22  C    0.015719
    23  C   -0.031994
    24  C   -0.050288
    25  C    0.154725
    26  C   -0.055093
    27  C    0.023897
    28  C    0.081145
    29  N   -0.380973
    30  C    0.135295
    31  C    0.135745
    32  N   -0.395907
    33  C    0.130204
    34  C    0.146602
    35  C    0.133639
    36  O   -0.510954
    37  C   -0.054267
 Sum of Mulliken charges with hydrogens summed into heavy atoms =   0.00000
 Electronic spatial extent (au):  <R**2>=          21776.4937
 Charge=              0.0000 electrons
 Dipole moment (field-independent basis, Debye):
    X=             -0.9187    Y=              2.1809    Z=              0.0459  Tot=              2.3670
 Quadrupole moment (field-independent basis, Debye-Ang):
   XX=           -188.5003   YY=           -231.2277   ZZ=           -212.7071
   XY=              2.9889   XZ=             -1.9337   YZ=              1.0326
 Traceless Quadrupole moment (field-independent basis, Debye-Ang):
   XX=             22.3114   YY=            -20.4160   ZZ=             -1.8954
   XY=              2.9889   XZ=             -1.9337   YZ=              1.0326
 Octapole moment (field-independent basis, Debye-Ang**2):
  XXX=             61.0322  YYY=             54.5311  ZZZ=              1.5209  XYY=             60.0753
  XXY=            -12.8674  XXZ=             33.0375  XZZ=            -38.2003  YZZ=             -3.6558
  YYZ=             18.6736  XYZ=             -7.3337
 Hexadecapole moment (field-independent basis, Debye-Ang**3):
 XXXX=         -18876.0455 YYYY=          -9892.2830 ZZZZ=           -957.9201 XXXY=           -157.3672
 XXXZ=            -60.9753 YYYX=            177.0643 YYYZ=             12.9127 ZZZX=            -10.8202
 ZZZY=              1.7222 XXYY=          -4185.3699 XXZZ=          -3321.9938 YYZZ=          -1771.2535
 XXYZ=            -94.7938 YYXZ=            -68.2886 ZZXY=             -0.0373
 N-N= 3.866356630551D+03 E-N=-1.140374884161D+04  KE= 1.567154095691D+03
 No NMR shielding tensors so no spin-rotation constants.
 Leave Link  601 at Wed Mar 25 16:20:18 2020, MaxMem= 2684354560 cpu:       2.9
 (Enter /opt/g09gh/gaussian/g09/l9999.exe)
 1\1\GINC-NODE49\FOpt\RwB97XD\6-31G(d)\C29H31N7O1\BDW2292\25-Mar-2020\0
 \\#P opt=(,maxcycle=400) wB97XD/6-31G* MaxDisk=100GB\\MOLECULE0 Rotata
 ble Bond Optimization on node37.bme.utexas.edu\\0,1\C,0.3840259685,5.2
 131756645,-1.914779472\C,1.5371572823,4.9062378096,-1.2066352308\C,2.0
 77620169,3.6211285564,-1.3116477513\C,1.4042586662,2.6994205429,-2.117
 7150537\N,0.29540175,2.9757147797,-2.8027965293\C,-0.1888090375,4.2146
 507396,-2.6994556995\C,3.3113895144,3.254677126,-0.5761793742\C,4.1770
 412075,2.2522424965,-1.0080618194\C,5.2943274359,2.0170820111,-0.21176
 02193\N,5.5595724362,2.6944646047,0.8963620407\C,4.6669497357,3.652706
 7902,1.2168077592\N,3.5607940685,3.9559418034,0.5362800899\N,4.9845469
 328,4.3437365434,2.3550137923\C,4.3408226388,5.407840936,3.005642494\C
 ,5.0667746466,6.1001069805,3.9969255795\C,4.4327870747,7.1521679065,4.
 6485740404\C,3.1297710247,7.5493178894,4.3633573205\C,2.4303067538,6.8
 485925416,3.3843645191\C,3.0302287119,5.7786371918,2.7180218606\N,1.10
 44297285,7.1405927,3.007745212\C,0.3673413798,8.2650355881,3.278066249
 \C,-0.9845735213,8.2693092083,2.6220901656\C,-1.7373852834,7.109004182
 ,2.4225245266\C,-2.9652581899,7.1755716129,1.7760000637\C,-3.457525259
 4,8.3893410884,1.2934198738\C,-2.7219901083,9.5498265669,1.5445751063\
 C,-1.5027851202,9.4958525475,2.2076176141\C,-4.7352770572,8.4445564421
 ,0.470896771\N,-4.6216886362,8.1911659948,-0.9565562724\C,-4.474520679
 1,6.8110786309,-1.4012824159\C,-3.017679985,6.3644747076,-1.6050320473
 \N,-2.2445318292,7.2817380874,-2.442289764\C,-2.5657828234,7.194144694
 7,-3.8582792144\C,-2.3433350218,8.6397807956,-1.903792801\C,-3.7966304
 132,9.1126947554,-1.7276185229\O,0.7592227515,9.2016415062,3.953684007
 4\C,6.4855845508,5.7215229714,4.3383587107\H,-0.0822772561,6.194868628
 3,-1.8862359253\H,2.0365995511,5.6438545956,-0.5856515105\H,1.76395195
 91,1.67528797,-2.1977286936\H,-1.0866351426,4.4243704042,-3.2767537813
 \H,4.0147287563,1.6979491638,-1.9236749329\H,6.0149597507,1.2488119268
 ,-0.4848952135\H,5.8620775045,4.035437985,2.7460345622\H,4.9834760021,
 7.6950181422,5.4125476087\H,2.6733178359,8.3852421889,4.8734848339\H,2
 .4888127203,5.2363760863,1.9546622178\H,0.7202922395,6.5198403976,2.31
 05373033\H,-1.3860043901,6.1524280576,2.8009893307\H,-3.5477151395,6.2
 676257956,1.636557303\H,-3.1061033772,10.5097157964,1.2069222925\H,-0.
 9324285568,10.3970593743,2.4080690964\H,-5.4560777236,7.722048108,0.87
 13511498\H,-5.1856779411,9.4382718258,0.5921423399\H,-4.972550859,6.15
 03840899,-0.6829325279\H,-5.0157809133,6.7046972121,-2.3533310224\H,-2
 .9942984081,5.365677336,-2.0566854071\H,-2.5076640625,6.2974876978,-0.
 6375103489\H,-3.5987168025,7.4733922712,-4.1252037122\H,-2.4027530679,
 6.1670237378,-4.2014182943\H,-1.8874476037,7.8452187351,-4.4194434427\
 H,-1.8030093722,9.3215470133,-2.5711267435\H,-1.8316233223,8.650415383
 3,-0.9344569014\H,-4.2584501341,9.2375113194,-2.7181217253\H,-3.814948
 5651,10.0968134876,-1.2467395303\H,7.1453319346,5.7695609271,3.4626415
 638\H,6.555961668,4.7061933064,4.7525571026\H,6.8930702526,6.400996042
 5,5.0911693994\\Version=EM64L-G09RevA.02\State=1-A\HF=-1581.7673805\RM
 SD=7.836e-09\RMSF=3.471e-06\Dipole=-0.2911099,-0.3707168,-0.8031486\Qu
 adrupole=11.1794488,-2.7737685,-8.4056803,-7.8020125,3.6430724,-9.2497
 259\PG=C01 [X(C29H31N7O1)]\\@


 TIME GOES, YOU SAY?  AH NO!
 ALAS, TIME STAYS, WE GO.
    -- A. DOBSON (1840-1921)
 Job cpu time:  0 days 20 hours  9 minutes 39.4 seconds.
 File lengths (MBytes):  RWF=    244 Int=      0 D2E=      0 Chk=     25 Scr=      1
 Normal termination of Gaussian 09 at Wed Mar 25 16:20:18 2020.
