 Entering Gaussian System, Link 0=g09
 Input=MOLECULE0-opt-23-22-21-20-246.com
 Output=MOLECULE0-opt-23-22-21-20-246.log
 Initial command:
 /opt/g09gh/gaussian/g09/l1.exe /scratch/bdw2292/Gau-MOLECULE0/Gau-17407.inp -scrdir=/scratch/bdw2292/Gau-MOLECULE0/
 Entering Link 1 = /opt/g09gh/gaussian/g09/l1.exe PID=     17411.
  
 Copyright (c) 1988,1990,1992,1993,1995,1998,2003,2009, Gaussian, Inc.
                  All Rights Reserved.
  
 This is part of the Gaussian(R) 09 program.  It is based on
 the Gaussian(R) 03 system (copyright 2003, Gaussian, Inc.),
 the Gaussian(R) 98 system (copyright 1998, Gaussian, Inc.),
 the Gaussian(R) 94 system (copyright 1995, Gaussian, Inc.),
 the Gaussian 92(TM) system (copyright 1992, Gaussian, Inc.),
 the Gaussian 90(TM) system (copyright 1990, Gaussian, Inc.),
 the Gaussian 88(TM) system (copyright 1988, Gaussian, Inc.),
 the Gaussian 86(TM) system (copyright 1986, Carnegie Mellon
 University), and the Gaussian 82(TM) system (copyright 1983,
 Carnegie Mellon University). Gaussian is a federally registered
 trademark of Gaussian, Inc.
  
 This software contains proprietary and confidential information,
 including trade secrets, belonging to Gaussian, Inc.
  
 This software is provided under written license and may be
 used, copied, transmitted, or stored only in accord with that
 written license.
  
 The following legend is applicable only to US Government
 contracts under FAR:
  
                    RESTRICTED RIGHTS LEGEND
  
 Use, reproduction and disclosure by the US Government is
 subject to restrictions as set forth in subparagraphs (a)
 and (c) of the Commercial Computer Software - Restricted
 Rights clause in FAR 52.227-19.
  
 Gaussian, Inc.
 340 Quinnipiac St., Bldg. 40, Wallingford CT 06492
  
  
 ---------------------------------------------------------------
 Warning -- This program may not be used in any manner that
 competes with the business of Gaussian, Inc. or will provide
 assistance to any competitor of Gaussian, Inc.  The licensee
 of this program is prohibited from giving any competitor of
 Gaussian, Inc. access to this program.  By using this program,
 the user acknowledges that Gaussian, Inc. is engaged in the
 business of creating and licensing software in the field of
 computational chemistry and represents and warrants to the
 licensee that it is not a competitor of Gaussian, Inc. and that
 it will not use this program in any manner prohibited above.
 ---------------------------------------------------------------
  

 Cite this work as:
 Gaussian 09, Revision A.02,
 M. J. Frisch, G. W. Trucks, H. B. Schlegel, G. E. Scuseria, 
 M. A. Robb, J. R. Cheeseman, G. Scalmani, V. Barone, B. Mennucci, 
 G. A. Petersson, H. Nakatsuji, M. Caricato, X. Li, H. P. Hratchian, 
 A. F. Izmaylov, J. Bloino, G. Zheng, J. L. Sonnenberg, M. Hada, 
 M. Ehara, K. Toyota, R. Fukuda, J. Hasegawa, M. Ishida, T. Nakajima, 
 Y. Honda, O. Kitao, H. Nakai, T. Vreven, J. A. Montgomery, Jr., 
 J. E. Peralta, F. Ogliaro, M. Bearpark, J. J. Heyd, E. Brothers, 
 K. N. Kudin, V. N. Staroverov, R. Kobayashi, J. Normand, 
 K. Raghavachari, A. Rendell, J. C. Burant, S. S. Iyengar, J. Tomasi, 
 M. Cossi, N. Rega, J. M. Millam, M. Klene, J. E. Knox, J. B. Cross, 
 V. Bakken, C. Adamo, J. Jaramillo, R. Gomperts, R. E. Stratmann, 
 O. Yazyev, A. J. Austin, R. Cammi, C. Pomelli, J. W. Ochterski, 
 R. L. Martin, K. Morokuma, V. G. Zakrzewski, G. A. Voth, 
 P. Salvador, J. J. Dannenberg, S. Dapprich, A. D. Daniels, 
 O. Farkas, J. B. Foresman, J. V. Ortiz, J. Cioslowski, 
 and D. J. Fox, Gaussian, Inc., Wallingford CT, 2009.
 
 ******************************************
 Gaussian 09:  EM64L-G09RevA.02 11-Jun-2009
                10-Mar-2020 
 ******************************************
 %RWF=/scratch/bdw2292/Gau-MOLECULE0/,100GB
 %Nosave
 %Chk=MOLECULE0-opt-23-22-21-20-246.chk
 %Mem=20GB
 %Nproc=6
 Will use up to    6 processors via shared memory.
 --------------------------------------------------
 #P opt=(,maxcycle=400) wB97XD/6-31G* MaxDisk=100GB
 --------------------------------------------------
 1/6=400,14=-1,18=20,19=15,26=3,38=1/1,3;
 2/9=110,12=2,17=6,18=5,40=1/2;
 3/5=1,6=6,7=1,11=2,16=1,25=1,30=1,71=1,74=-58/1,2,3;
 4//1;
 5/5=2,38=5/2;
 6/7=2,8=2,9=2,10=2,28=1/1;
 7//1,2,3,16;
 1/6=400,14=-1,18=20,19=15/3(2);
 2/9=110/2;
 99//99;
 2/9=110/2;
 3/5=1,6=6,7=1,11=2,16=1,25=1,30=1,71=1,74=-58/1,2,3;
 4/5=5,16=3/1;
 5/5=2,38=5/2;
 7//1,2,3,16;
 1/6=400,14=-1,18=20,19=15/3(-5);
 2/9=110/2;
 6/7=2,8=2,9=2,10=2,19=2,28=1/1;
 99/9=1/99;
 Leave Link    1 at Tue Mar 10 11:30:57 2020, MaxMem= 2684354560 cpu:       0.3
 (Enter /opt/g09gh/gaussian/g09/l101.exe)
 -----------------------------------------------------------------
 MOLECULE0 Rotatable Bond Optimization on g2-node38.bme.utexas.edu
 -----------------------------------------------------------------
 Symbolic Z-matrix:
 Charge =  0 Multiplicity = 1
 C                    -4.77816  -8.49053  -4.18482 
 C                    -3.56745  -9.19303  -4.25352 
 C                    -2.43244  -8.71198  -3.56978 
 C                    -2.62223  -7.52099  -2.82655 
 N                    -3.77146  -6.83933  -2.74503 
 C                    -4.82572  -7.31985  -3.4203 
 C                    -1.09109  -9.40269  -3.59323 
 C                    -0.82302  -10.62823  -4.22493 
 C                     0.48699  -11.10189  -4.10149 
 N                     1.45674  -10.46593  -3.45199 
 C                     1.11553  -9.28599  -2.8918 
 N                    -0.10699  -8.7492   -2.94274 
 N                     2.14669  -8.63293  -2.23621 
 C                     2.23237  -7.42453  -1.45636 
 C                     3.36924  -7.22675  -0.61441 
 C                     3.41303  -6.04151   0.13711 
 C                     2.41834  -5.05912   0.1 
 C                     1.31935  -5.25672  -0.74306 
 C                     1.23984  -6.43623  -1.50303 
 N                     0.22173  -4.34827  -0.89279 
 C                    -0.10286  -3.21344  -0.18749 
 C                    -1.47837  -2.64294  -0.44662 
 C                    -1.60082  -1.3854   -1.05582 
 C                    -2.86561  -0.8541   -1.31862 
 C                    -4.04069  -1.55618  -0.98747 
 C                    -3.89735  -2.81612  -0.3743 
 C                    -2.63756  -3.35604  -0.10605 
 C                    -5.42272  -0.94808  -1.23177 
 N                    -5.99199  -0.01803  -0.24066 
 C                    -5.4624    1.36166  -0.1619 
 C                    -4.36451   1.57143   0.91238 
 N                    -4.74957   1.12078   2.26984 
 C                    -5.56702   2.04634   3.06344 
 C                    -5.2252   -0.2819    2.19302 
 C                    -6.3108   -0.52853   1.11266 
 O                     0.65966  -2.66764   0.59198 
 C                     4.50364  -8.22878  -0.48151 
 H                    -5.66222  -8.83914  -4.7104 
 H                    -3.53437  -10.09894  -4.85365 
 H                    -1.80364  -7.10679  -2.24803 
 H                    -5.74549  -6.74309  -3.3381 
 H                    -1.56128  -11.21015  -4.7627 
 H                     0.77274  -12.05248  -4.5511 
 H                     2.97686  -9.20537  -2.27184 
 H                     4.25981  -5.86033   0.79787 
 H                     2.49135  -4.16109   0.70148 
 H                     0.39539  -6.60085  -2.1542 
 H                    -0.4639   -4.62023  -1.58417 
 H                    -0.69822  -0.83577  -1.31037 
 H                    -2.93244   0.12866  -1.78472 
 H                    -4.78023  -3.38763  -0.08846 
 H                    -2.53986  -4.33199   0.3628 
 H                    -5.40069  -0.42223  -2.19742 
 H                    -6.14773  -1.76724  -1.34545 
 H                    -5.17333   1.70525  -1.10807 
 H                    -6.66576   2.28042   0.29554 
 H                    -4.06989   3.04106   0.96491 
 H                    -3.34442   0.99583   0.60558 
 H                    -6.55644   2.18397   2.61294 
 H                    -5.07235   3.02164   3.13531 
 H                    -5.69383   1.6595    4.08128 
 H                    -5.55137  -0.61145   3.18118 
 H                    -4.01915  -1.12942   1.80746 
 H                    -7.58154   0.25782   1.61221 
 H                    -6.60395  -1.63694   1.06308 
 H                     5.04443  -8.3499   -1.43057 
 H                     4.13267  -9.21951  -0.18309 
 H                     5.24971  -7.93542   0.26992 
 
 NAtoms=     68 NQM=     68 NQMF=      0 NMic=      0 NMicF=      0 NTot=     68.
                    Isotopes and Nuclear Properties:
 (Nuclear quadrupole moments (NQMom) in fm**2, nuclear magnetic moments (NMagM)
  in nuclear magnetons)

  Atom         1           2           3           4           5           6           7           8           9          10
 IAtWgt=          12          12          12          12          14          12          12          12          12          14
 AtmWgt=  12.0000000  12.0000000  12.0000000  12.0000000  14.0030740  12.0000000  12.0000000  12.0000000  12.0000000  14.0030740
 NucSpn=           0           0           0           0           2           0           0           0           0           2
 AtZEff=   0.0000000   0.0000000   0.0000000   0.0000000   0.0000000   0.0000000   0.0000000   0.0000000   0.0000000   0.0000000
 NQMom=    0.0000000   0.0000000   0.0000000   0.0000000   2.0440000   0.0000000   0.0000000   0.0000000   0.0000000   2.0440000
 NMagM=    0.0000000   0.0000000   0.0000000   0.0000000   0.4037610   0.0000000   0.0000000   0.0000000   0.0000000   0.4037610

  Atom        11          12          13          14          15          16          17          18          19          20
 IAtWgt=          12          14          14          12          12          12          12          12          12          14
 AtmWgt=  12.0000000  14.0030740  14.0030740  12.0000000  12.0000000  12.0000000  12.0000000  12.0000000  12.0000000  14.0030740
 NucSpn=           0           2           2           0           0           0           0           0           0           2
 AtZEff=   0.0000000   0.0000000   0.0000000   0.0000000   0.0000000   0.0000000   0.0000000   0.0000000   0.0000000   0.0000000
 NQMom=    0.0000000   2.0440000   2.0440000   0.0000000   0.0000000   0.0000000   0.0000000   0.0000000   0.0000000   2.0440000
 NMagM=    0.0000000   0.4037610   0.4037610   0.0000000   0.0000000   0.0000000   0.0000000   0.0000000   0.0000000   0.4037610

  Atom        21          22          23          24          25          26          27          28          29          30
 IAtWgt=          12          12          12          12          12          12          12          12          14          12
 AtmWgt=  12.0000000  12.0000000  12.0000000  12.0000000  12.0000000  12.0000000  12.0000000  12.0000000  14.0030740  12.0000000
 NucSpn=           0           0           0           0           0           0           0           0           2           0
 AtZEff=   0.0000000   0.0000000   0.0000000   0.0000000   0.0000000   0.0000000   0.0000000   0.0000000   0.0000000   0.0000000
 NQMom=    0.0000000   0.0000000   0.0000000   0.0000000   0.0000000   0.0000000   0.0000000   0.0000000   2.0440000   0.0000000
 NMagM=    0.0000000   0.0000000   0.0000000   0.0000000   0.0000000   0.0000000   0.0000000   0.0000000   0.4037610   0.0000000

  Atom        31          32          33          34          35          36          37          38          39          40
 IAtWgt=          12          14          12          12          12          16          12           1           1           1
 AtmWgt=  12.0000000  14.0030740  12.0000000  12.0000000  12.0000000  15.9949146  12.0000000   1.0078250   1.0078250   1.0078250
 NucSpn=           0           2           0           0           0           0           0           1           1           1
 AtZEff=   0.0000000   0.0000000   0.0000000   0.0000000   0.0000000   0.0000000   0.0000000   0.0000000   0.0000000   0.0000000
 NQMom=    0.0000000   2.0440000   0.0000000   0.0000000   0.0000000   0.0000000   0.0000000   0.0000000   0.0000000   0.0000000
 NMagM=    0.0000000   0.4037610   0.0000000   0.0000000   0.0000000   0.0000000   0.0000000   2.7928460   2.7928460   2.7928460

  Atom        41          42          43          44          45          46          47          48          49          50
 IAtWgt=           1           1           1           1           1           1           1           1           1           1
 AtmWgt=   1.0078250   1.0078250   1.0078250   1.0078250   1.0078250   1.0078250   1.0078250   1.0078250   1.0078250   1.0078250
 NucSpn=           1           1           1           1           1           1           1           1           1           1
 AtZEff=   0.0000000   0.0000000   0.0000000   0.0000000   0.0000000   0.0000000   0.0000000   0.0000000   0.0000000   0.0000000
 NQMom=    0.0000000   0.0000000   0.0000000   0.0000000   0.0000000   0.0000000   0.0000000   0.0000000   0.0000000   0.0000000
 NMagM=    2.7928460   2.7928460   2.7928460   2.7928460   2.7928460   2.7928460   2.7928460   2.7928460   2.7928460   2.7928460

  Atom        51          52          53          54          55          56          57          58          59          60
 IAtWgt=           1           1           1           1           1           1           1           1           1           1
 AtmWgt=   1.0078250   1.0078250   1.0078250   1.0078250   1.0078250   1.0078250   1.0078250   1.0078250   1.0078250   1.0078250
 NucSpn=           1           1           1           1           1           1           1           1           1           1
 AtZEff=   0.0000000   0.0000000   0.0000000   0.0000000   0.0000000   0.0000000   0.0000000   0.0000000   0.0000000   0.0000000
 NQMom=    0.0000000   0.0000000   0.0000000   0.0000000   0.0000000   0.0000000   0.0000000   0.0000000   0.0000000   0.0000000
 NMagM=    2.7928460   2.7928460   2.7928460   2.7928460   2.7928460   2.7928460   2.7928460   2.7928460   2.7928460   2.7928460

  Atom        61          62          63          64          65          66          67          68
 IAtWgt=           1           1           1           1           1           1           1           1
 AtmWgt=   1.0078250   1.0078250   1.0078250   1.0078250   1.0078250   1.0078250   1.0078250   1.0078250
 NucSpn=           1           1           1           1           1           1           1           1
 AtZEff=   0.0000000   0.0000000   0.0000000   0.0000000   0.0000000   0.0000000   0.0000000   0.0000000
 NQMom=    0.0000000   0.0000000   0.0000000   0.0000000   0.0000000   0.0000000   0.0000000   0.0000000
 NMagM=    2.7928460   2.7928460   2.7928460   2.7928460   2.7928460   2.7928460   2.7928460   2.7928460
 Leave Link  101 at Tue Mar 10 11:30:57 2020, MaxMem= 2684354560 cpu:       0.4
 (Enter /opt/g09gh/gaussian/g09/l103.exe)

 GradGradGradGradGradGradGradGradGradGradGradGradGradGradGradGradGradGrad
 Berny optimization.
 Initialization pass.
                           ----------------------------
                           !    Initial Parameters    !
                           ! (Angstroms and Degrees)  !
 --------------------------                            --------------------------
 ! Name  Definition              Value          Derivative Info.                !
 --------------------------------------------------------------------------------
 ! R1    R(1,2)                  1.4014         estimate D2E/DX2                !
 ! R2    R(1,6)                  1.399          estimate D2E/DX2                !
 ! R3    R(1,38)                 1.086          estimate D2E/DX2                !
 ! R4    R(2,3)                  1.4097         estimate D2E/DX2                !
 ! R5    R(2,39)                 1.0872         estimate D2E/DX2                !
 ! R6    R(3,4)                  1.4166         estimate D2E/DX2                !
 ! R7    R(3,7)                  1.5089         estimate D2E/DX2                !
 ! R8    R(4,5)                  1.3387         estimate D2E/DX2                !
 ! R9    R(4,40)                 1.0846         estimate D2E/DX2                !
 ! R10   R(5,6)                  1.341          estimate D2E/DX2                !
 ! R11   R(6,41)                 1.0888         estimate D2E/DX2                !
 ! R12   R(7,8)                  1.4046         estimate D2E/DX2                !
 ! R13   R(7,12)                 1.3486         estimate D2E/DX2                !
 ! R14   R(8,9)                  1.3985         estimate D2E/DX2                !
 ! R15   R(8,42)                 1.083          estimate D2E/DX2                !
 ! R16   R(9,10)                 1.3292         estimate D2E/DX2                !
 ! R17   R(9,43)                 1.0897         estimate D2E/DX2                !
 ! R18   R(10,11)                1.35           estimate D2E/DX2                !
 ! R19   R(11,12)                1.3361         estimate D2E/DX2                !
 ! R20   R(11,13)                1.3855         estimate D2E/DX2                !
 ! R21   R(13,14)                1.4407         estimate D2E/DX2                !
 ! R22   R(13,44)                1.009          estimate D2E/DX2                !
 ! R23   R(14,15)                1.4285         estimate D2E/DX2                !
 ! R24   R(14,19)                1.4014         estimate D2E/DX2                !
 ! R25   R(15,16)                1.4041         estimate D2E/DX2                !
 ! R26   R(15,37)                1.5194         estimate D2E/DX2                !
 ! R27   R(16,17)                1.3985         estimate D2E/DX2                !
 ! R28   R(16,45)                1.0892         estimate D2E/DX2                !
 ! R29   R(17,18)                1.3991         estimate D2E/DX2                !
 ! R30   R(17,46)                1.0833         estimate D2E/DX2                !
 ! R31   R(18,19)                1.4054         estimate D2E/DX2                !
 ! R32   R(18,20)                1.4326         estimate D2E/DX2                !
 ! R33   R(19,47)                1.079          estimate D2E/DX2                !
 ! R34   R(20,21)                1.375          estimate D2E/DX2                !
 ! R35   R(20,48)                1.011          estimate D2E/DX2                !
 ! R36   R(21,22)                1.5115         estimate D2E/DX2                !
 ! R37   R(21,36)                1.2194         estimate D2E/DX2                !
 ! R38   R(22,23)                1.4027         estimate D2E/DX2                !
 ! R39   R(22,27)                1.4029         estimate D2E/DX2                !
 ! R40   R(23,24)                1.3968         estimate D2E/DX2                !
 ! R41   R(23,49)                1.087          estimate D2E/DX2                !
 ! R42   R(24,25)                1.4083         estimate D2E/DX2                !
 ! R43   R(24,50)                1.0897         estimate D2E/DX2                !
 ! R44   R(25,26)                1.4085         estimate D2E/DX2                !
 ! R45   R(25,28)                1.5295         estimate D2E/DX2                !
 ! R46   R(26,27)                1.3966         estimate D2E/DX2                !
 ! R47   R(26,51)                1.0899         estimate D2E/DX2                !
 ! R48   R(27,52)                1.0871         estimate D2E/DX2                !
 ! R49   R(28,29)                1.4736         estimate D2E/DX2                !
 ! R50   R(28,53)                1.0998         estimate D2E/DX2                !
 ! R51   R(28,54)                1.0998         estimate D2E/DX2                !
 ! R52   R(29,30)                1.4799         estimate D2E/DX2                !
 ! R53   R(29,35)                1.4811         estimate D2E/DX2                !
 ! R54   R(30,31)                1.5503         estimate D2E/DX2                !
 ! R55   R(30,55)                1.0473         estimate D2E/DX2                !
 ! R56   R(30,56)                1.5816         estimate D2E/DX2                !
 ! R57   R(31,32)                1.4812         estimate D2E/DX2                !
 ! R58   R(31,57)                1.4998         estimate D2E/DX2                !
 ! R59   R(31,58)                1.2108         estimate D2E/DX2                !
 ! R60   R(32,33)                1.4679         estimate D2E/DX2                !
 ! R61   R(32,34)                1.4831         estimate D2E/DX2                !
 ! R62   R(33,59)                1.0958         estimate D2E/DX2                !
 ! R63   R(33,60)                1.0959         estimate D2E/DX2                !
 ! R64   R(33,61)                1.0962         estimate D2E/DX2                !
 ! R65   R(34,35)                1.5513         estimate D2E/DX2                !
 ! R66   R(34,62)                1.0915         estimate D2E/DX2                !
 ! R67   R(34,63)                1.5237         estimate D2E/DX2                !
 ! R68   R(35,64)                1.5756         estimate D2E/DX2                !
 ! R69   R(35,65)                1.1476         estimate D2E/DX2                !
 ! R70   R(37,66)                1.099          estimate D2E/DX2                !
 ! R71   R(37,67)                1.0992         estimate D2E/DX2                !
 ! R72   R(37,68)                1.0988         estimate D2E/DX2                !
 ! A1    A(2,1,6)              118.3993         estimate D2E/DX2                !
 ! A2    A(2,1,38)             121.2411         estimate D2E/DX2                !
 ! A3    A(6,1,38)             120.3595         estimate D2E/DX2                !
 ! A4    A(1,2,3)              120.0493         estimate D2E/DX2                !
 ! A5    A(1,2,39)             118.1025         estimate D2E/DX2                !
 ! A6    A(3,2,39)             121.8435         estimate D2E/DX2                !
 ! A7    A(2,3,4)              115.6895         estimate D2E/DX2                !
 ! A8    A(2,3,7)              123.5041         estimate D2E/DX2                !
 ! A9    A(4,3,7)              120.8032         estimate D2E/DX2                !
 ! A10   A(3,4,5)              125.1039         estimate D2E/DX2                !
 ! A11   A(3,4,40)             119.9859         estimate D2E/DX2                !
 ! A12   A(5,4,40)             114.8978         estimate D2E/DX2                !
 ! A13   A(4,5,6)              117.5024         estimate D2E/DX2                !
 ! A14   A(1,6,5)              123.2497         estimate D2E/DX2                !
 ! A15   A(1,6,41)             120.8806         estimate D2E/DX2                !
 ! A16   A(5,6,41)             115.8689         estimate D2E/DX2                !
 ! A17   A(3,7,8)              125.1734         estimate D2E/DX2                !
 ! A18   A(3,7,12)             114.7954         estimate D2E/DX2                !
 ! A19   A(8,7,12)             120.0312         estimate D2E/DX2                !
 ! A20   A(7,8,9)              115.7604         estimate D2E/DX2                !
 ! A21   A(7,8,42)             124.1981         estimate D2E/DX2                !
 ! A22   A(9,8,42)             120.0272         estimate D2E/DX2                !
 ! A23   A(8,9,10)             124.3685         estimate D2E/DX2                !
 ! A24   A(8,9,43)             120.3107         estimate D2E/DX2                !
 ! A25   A(10,9,43)            115.3207         estimate D2E/DX2                !
 ! A26   A(9,10,11)            115.8844         estimate D2E/DX2                !
 ! A27   A(10,11,12)           124.5119         estimate D2E/DX2                !
 ! A28   A(10,11,13)           114.8484         estimate D2E/DX2                !
 ! A29   A(12,11,13)           120.6396         estimate D2E/DX2                !
 ! A30   A(7,12,11)            119.4317         estimate D2E/DX2                !
 ! A31   A(11,13,14)           134.0854         estimate D2E/DX2                !
 ! A32   A(11,13,44)           109.1607         estimate D2E/DX2                !
 ! A33   A(14,13,44)           116.488          estimate D2E/DX2                !
 ! A34   A(13,14,15)           118.8488         estimate D2E/DX2                !
 ! A35   A(13,14,19)           122.0958         estimate D2E/DX2                !
 ! A36   A(15,14,19)           119.0547         estimate D2E/DX2                !
 ! A37   A(14,15,16)           117.2051         estimate D2E/DX2                !
 ! A38   A(14,15,37)           123.6728         estimate D2E/DX2                !
 ! A39   A(16,15,37)           119.1167         estimate D2E/DX2                !
 ! A40   A(15,16,17)           123.8186         estimate D2E/DX2                !
 ! A41   A(15,16,45)           119.2971         estimate D2E/DX2                !
 ! A42   A(17,16,45)           116.8833         estimate D2E/DX2                !
 ! A43   A(16,17,18)           118.3889         estimate D2E/DX2                !
 ! A44   A(16,17,46)           121.3081         estimate D2E/DX2                !
 ! A45   A(18,17,46)           120.3021         estimate D2E/DX2                !
 ! A46   A(17,18,19)           119.2617         estimate D2E/DX2                !
 ! A47   A(17,18,20)           125.115          estimate D2E/DX2                !
 ! A48   A(19,18,20)           115.6156         estimate D2E/DX2                !
 ! A49   A(14,19,18)           122.2616         estimate D2E/DX2                !
 ! A50   A(14,19,47)           117.8258         estimate D2E/DX2                !
 ! A51   A(18,19,47)           119.9117         estimate D2E/DX2                !
 ! A52   A(18,20,21)           130.5865         estimate D2E/DX2                !
 ! A53   A(18,20,48)           114.8655         estimate D2E/DX2                !
 ! A54   A(21,20,48)           114.3756         estimate D2E/DX2                !
 ! A55   A(20,21,22)           116.0015         estimate D2E/DX2                !
 ! A56   A(20,21,36)           123.3458         estimate D2E/DX2                !
 ! A57   A(22,21,36)           120.6447         estimate D2E/DX2                !
 ! A58   A(21,22,23)           119.4906         estimate D2E/DX2                !
 ! A59   A(21,22,27)           121.2285         estimate D2E/DX2                !
 ! A60   A(23,22,27)           119.2749         estimate D2E/DX2                !
 ! A61   A(22,23,24)           120.1171         estimate D2E/DX2                !
 ! A62   A(22,23,49)           118.8511         estimate D2E/DX2                !
 ! A63   A(24,23,49)           121.0306         estimate D2E/DX2                !
 ! A64   A(23,24,25)           121.4441         estimate D2E/DX2                !
 ! A65   A(23,24,50)           118.6222         estimate D2E/DX2                !
 ! A66   A(25,24,50)           119.9325         estimate D2E/DX2                !
 ! A67   A(24,25,26)           117.605          estimate D2E/DX2                !
 ! A68   A(24,25,28)           121.209          estimate D2E/DX2                !
 ! A69   A(26,25,28)           121.1389         estimate D2E/DX2                !
 ! A70   A(25,26,27)           121.414          estimate D2E/DX2                !
 ! A71   A(25,26,51)           120.053          estimate D2E/DX2                !
 ! A72   A(27,26,51)           118.5298         estimate D2E/DX2                !
 ! A73   A(22,27,26)           120.1444         estimate D2E/DX2                !
 ! A74   A(22,27,52)           119.1272         estimate D2E/DX2                !
 ! A75   A(26,27,52)           120.7278         estimate D2E/DX2                !
 ! A76   A(25,28,29)           119.5096         estimate D2E/DX2                !
 ! A77   A(25,28,53)           108.1943         estimate D2E/DX2                !
 ! A78   A(25,28,54)           108.423          estimate D2E/DX2                !
 ! A79   A(29,28,53)           107.2493         estimate D2E/DX2                !
 ! A80   A(29,28,54)           106.5557         estimate D2E/DX2                !
 ! A81   A(53,28,54)           106.1759         estimate D2E/DX2                !
 ! A82   A(28,29,30)           119.0753         estimate D2E/DX2                !
 ! A83   A(28,29,35)           118.697          estimate D2E/DX2                !
 ! A84   A(30,29,35)           110.4702         estimate D2E/DX2                !
 ! A85   A(29,30,31)           114.6102         estimate D2E/DX2                !
 ! A86   A(29,30,55)           110.8879         estimate D2E/DX2                !
 ! A87   A(29,30,56)           106.5401         estimate D2E/DX2                !
 ! A88   A(31,30,55)           112.7162         estimate D2E/DX2                !
 ! A89   A(31,30,56)           105.0581         estimate D2E/DX2                !
 ! A90   A(55,30,56)           106.3031         estimate D2E/DX2                !
 ! A91   A(30,31,32)           114.1909         estimate D2E/DX2                !
 ! A92   A(30,31,57)           107.2161         estimate D2E/DX2                !
 ! A93   A(30,31,58)           110.8995         estimate D2E/DX2                !
 ! A94   A(32,31,57)           108.4869         estimate D2E/DX2                !
 ! A95   A(32,31,58)           107.854          estimate D2E/DX2                !
 ! A96   A(57,31,58)           108.0114         estimate D2E/DX2                !
 ! A97   A(31,32,33)           116.6408         estimate D2E/DX2                !
 ! A98   A(31,32,34)           108.8835         estimate D2E/DX2                !
 ! A99   A(33,32,34)           116.4714         estimate D2E/DX2                !
 ! A100  A(32,33,59)           111.0841         estimate D2E/DX2                !
 ! A101  A(32,33,60)           110.1957         estimate D2E/DX2                !
 ! A102  A(32,33,61)           110.1145         estimate D2E/DX2                !
 ! A103  A(59,33,60)           108.8281         estimate D2E/DX2                !
 ! A104  A(59,33,61)           108.7584         estimate D2E/DX2                !
 ! A105  A(60,33,61)           107.7802         estimate D2E/DX2                !
 ! A106  A(32,34,35)           114.2582         estimate D2E/DX2                !
 ! A107  A(32,34,62)           109.5409         estimate D2E/DX2                !
 ! A108  A(32,34,63)           106.5786         estimate D2E/DX2                !
 ! A109  A(35,34,62)           111.9234         estimate D2E/DX2                !
 ! A110  A(35,34,63)           106.8137         estimate D2E/DX2                !
 ! A111  A(62,34,63)           107.3184         estimate D2E/DX2                !
 ! A112  A(29,35,34)           115.5253         estimate D2E/DX2                !
 ! A113  A(29,35,64)           106.9343         estimate D2E/DX2                !
 ! A114  A(29,35,65)           110.3902         estimate D2E/DX2                !
 ! A115  A(34,35,64)           105.3216         estimate D2E/DX2                !
 ! A116  A(34,35,65)           111.2477         estimate D2E/DX2                !
 ! A117  A(64,35,65)           106.8399         estimate D2E/DX2                !
 ! A118  A(15,37,66)           111.3788         estimate D2E/DX2                !
 ! A119  A(15,37,67)           111.4808         estimate D2E/DX2                !
 ! A120  A(15,37,68)           112.9969         estimate D2E/DX2                !
 ! A121  A(66,37,67)           107.5291         estimate D2E/DX2                !
 ! A122  A(66,37,68)           106.6107         estimate D2E/DX2                !
 ! A123  A(67,37,68)           106.5069         estimate D2E/DX2                !
 ! D1    D(6,1,2,3)             -0.4291         estimate D2E/DX2                !
 ! D2    D(6,1,2,39)          -179.6504         estimate D2E/DX2                !
 ! D3    D(38,1,2,3)           179.4955         estimate D2E/DX2                !
 ! D4    D(38,1,2,39)            0.2741         estimate D2E/DX2                !
 ! D5    D(2,1,6,5)             -0.2929         estimate D2E/DX2                !
 ! D6    D(2,1,6,41)          -179.936          estimate D2E/DX2                !
 ! D7    D(38,1,6,5)           179.7819         estimate D2E/DX2                !
 ! D8    D(38,1,6,41)            0.1388         estimate D2E/DX2                !
 ! D9    D(1,2,3,4)              0.8296         estimate D2E/DX2                !
 ! D10   D(1,2,3,7)           -179.8221         estimate D2E/DX2                !
 ! D11   D(39,2,3,4)          -179.9789         estimate D2E/DX2                !
 ! D12   D(39,2,3,7)            -0.6307         estimate D2E/DX2                !
 ! D13   D(2,3,4,5)             -0.6078         estimate D2E/DX2                !
 ! D14   D(2,3,4,40)           178.0416         estimate D2E/DX2                !
 ! D15   D(7,3,4,5)           -179.9751         estimate D2E/DX2                !
 ! D16   D(7,3,4,40)            -1.3257         estimate D2E/DX2                !
 ! D17   D(2,3,7,8)             -3.6656         estimate D2E/DX2                !
 ! D18   D(2,3,7,12)           176.2853         estimate D2E/DX2                !
 ! D19   D(4,3,7,8)            175.6506         estimate D2E/DX2                !
 ! D20   D(4,3,7,12)            -4.3985         estimate D2E/DX2                !
 ! D21   D(3,4,5,6)             -0.0657         estimate D2E/DX2                !
 ! D22   D(40,4,5,6)          -178.7761         estimate D2E/DX2                !
 ! D23   D(4,5,6,1)              0.5368         estimate D2E/DX2                !
 ! D24   D(4,5,6,41)          -179.8036         estimate D2E/DX2                !
 ! D25   D(3,7,8,9)           -178.8317         estimate D2E/DX2                !
 ! D26   D(3,7,8,42)            -0.2162         estimate D2E/DX2                !
 ! D27   D(12,7,8,9)             1.2199         estimate D2E/DX2                !
 ! D28   D(12,7,8,42)          179.8353         estimate D2E/DX2                !
 ! D29   D(3,7,12,11)          179.2139         estimate D2E/DX2                !
 ! D30   D(8,7,12,11)           -0.8326         estimate D2E/DX2                !
 ! D31   D(7,8,9,10)            -0.7052         estimate D2E/DX2                !
 ! D32   D(7,8,9,43)           179.1524         estimate D2E/DX2                !
 ! D33   D(42,8,9,10)         -179.3825         estimate D2E/DX2                !
 ! D34   D(42,8,9,43)            0.4751         estimate D2E/DX2                !
 ! D35   D(8,9,10,11)           -0.2133         estimate D2E/DX2                !
 ! D36   D(43,9,10,11)         179.9228         estimate D2E/DX2                !
 ! D37   D(9,10,11,12)           0.6914         estimate D2E/DX2                !
 ! D38   D(9,10,11,13)        -179.1538         estimate D2E/DX2                !
 ! D39   D(10,11,12,7)          -0.171          estimate D2E/DX2                !
 ! D40   D(13,11,12,7)         179.6657         estimate D2E/DX2                !
 ! D41   D(10,11,13,14)       -176.1041         estimate D2E/DX2                !
 ! D42   D(10,11,13,44)         -2.4432         estimate D2E/DX2                !
 ! D43   D(12,11,13,14)          4.0443         estimate D2E/DX2                !
 ! D44   D(12,11,13,44)        177.7051         estimate D2E/DX2                !
 ! D45   D(11,13,14,15)        162.7353         estimate D2E/DX2                !
 ! D46   D(11,13,14,19)        -17.5726         estimate D2E/DX2                !
 ! D47   D(44,13,14,15)        -10.5729         estimate D2E/DX2                !
 ! D48   D(44,13,14,19)        169.1192         estimate D2E/DX2                !
 ! D49   D(13,14,15,16)       -179.5777         estimate D2E/DX2                !
 ! D50   D(13,14,15,37)         -0.4331         estimate D2E/DX2                !
 ! D51   D(19,14,15,16)          0.7207         estimate D2E/DX2                !
 ! D52   D(19,14,15,37)        179.8653         estimate D2E/DX2                !
 ! D53   D(13,14,19,18)        179.9487         estimate D2E/DX2                !
 ! D54   D(13,14,19,47)         -0.3835         estimate D2E/DX2                !
 ! D55   D(15,14,19,18)         -0.3598         estimate D2E/DX2                !
 ! D56   D(15,14,19,47)        179.3079         estimate D2E/DX2                !
 ! D57   D(14,15,16,17)         -0.2219         estimate D2E/DX2                !
 ! D58   D(14,15,16,45)        179.4133         estimate D2E/DX2                !
 ! D59   D(37,15,16,17)       -179.4071         estimate D2E/DX2                !
 ! D60   D(37,15,16,45)          0.2281         estimate D2E/DX2                !
 ! D61   D(14,15,37,66)         64.4089         estimate D2E/DX2                !
 ! D62   D(14,15,37,67)        -55.6998         estimate D2E/DX2                !
 ! D63   D(14,15,37,68)       -175.6149         estimate D2E/DX2                !
 ! D64   D(16,15,37,66)       -116.4619         estimate D2E/DX2                !
 ! D65   D(16,15,37,67)        123.4294         estimate D2E/DX2                !
 ! D66   D(16,15,37,68)          3.5143         estimate D2E/DX2                !
 ! D67   D(15,16,17,18)         -0.6592         estimate D2E/DX2                !
 ! D68   D(15,16,17,46)        179.6956         estimate D2E/DX2                !
 ! D69   D(45,16,17,18)        179.6975         estimate D2E/DX2                !
 ! D70   D(45,16,17,46)          0.0523         estimate D2E/DX2                !
 ! D71   D(16,17,18,19)          1.0209         estimate D2E/DX2                !
 ! D72   D(16,17,18,20)        179.9639         estimate D2E/DX2                !
 ! D73   D(46,17,18,19)       -179.3302         estimate D2E/DX2                !
 ! D74   D(46,17,18,20)         -0.3872         estimate D2E/DX2                !
 ! D75   D(17,18,19,14)         -0.5356         estimate D2E/DX2                !
 ! D76   D(17,18,19,47)        179.8034         estimate D2E/DX2                !
 ! D77   D(20,18,19,14)       -179.5768         estimate D2E/DX2                !
 ! D78   D(20,18,19,47)          0.7622         estimate D2E/DX2                !
 ! D79   D(17,18,20,21)         -8.4613         estimate D2E/DX2                !
 ! D80   D(17,18,20,48)        176.6494         estimate D2E/DX2                !
 ! D81   D(19,18,20,21)        170.5161         estimate D2E/DX2                !
 ! D82   D(19,18,20,48)         -4.3732         estimate D2E/DX2                !
 ! D83   D(18,20,21,22)       -168.6689         estimate D2E/DX2                !
 ! D84   D(18,20,21,36)         12.357          estimate D2E/DX2                !
 ! D85   D(48,20,21,22)          6.2404         estimate D2E/DX2                !
 ! D86   D(48,20,21,36)       -172.7337         estimate D2E/DX2                !
 ! D87   D(20,21,22,23)       -114.2998         estimate D2E/DX2                !
 ! D88   D(20,21,22,27)         64.801          estimate D2E/DX2                !
 ! D89   D(36,21,22,23)         64.7041         estimate D2E/DX2                !
 ! D90   D(36,21,22,27)       -116.1951         estimate D2E/DX2                !
 ! D91   D(21,22,23,24)        179.0932         estimate D2E/DX2                !
 ! D92   D(21,22,23,49)         -1.3103         estimate D2E/DX2                !
 ! D93   D(27,22,23,24)         -0.0254         estimate D2E/DX2                !
 ! D94   D(27,22,23,49)        179.5711         estimate D2E/DX2                !
 ! D95   D(21,22,27,26)       -179.0218         estimate D2E/DX2                !
 ! D96   D(21,22,27,52)          0.6825         estimate D2E/DX2                !
 ! D97   D(23,22,27,26)          0.0809         estimate D2E/DX2                !
 ! D98   D(23,22,27,52)        179.7852         estimate D2E/DX2                !
 ! D99   D(22,23,24,25)         -0.1466         estimate D2E/DX2                !
 ! D100  D(22,23,24,50)        179.4683         estimate D2E/DX2                !
 ! D101  D(49,23,24,25)       -179.7342         estimate D2E/DX2                !
 ! D102  D(49,23,24,50)         -0.1192         estimate D2E/DX2                !
 ! D103  D(23,24,25,26)          0.254          estimate D2E/DX2                !
 ! D104  D(23,24,25,28)        177.7849         estimate D2E/DX2                !
 ! D105  D(50,24,25,26)       -179.356          estimate D2E/DX2                !
 ! D106  D(50,24,25,28)         -1.825          estimate D2E/DX2                !
 ! D107  D(24,25,26,27)         -0.1974         estimate D2E/DX2                !
 ! D108  D(24,25,26,51)        179.1448         estimate D2E/DX2                !
 ! D109  D(28,25,26,27)       -177.7301         estimate D2E/DX2                !
 ! D110  D(28,25,26,51)          1.6121         estimate D2E/DX2                !
 ! D111  D(24,25,28,29)        -83.1033         estimate D2E/DX2                !
 ! D112  D(24,25,28,53)         39.9003         estimate D2E/DX2                !
 ! D113  D(24,25,28,54)        154.6447         estimate D2E/DX2                !
 ! D114  D(26,25,28,29)         94.3403         estimate D2E/DX2                !
 ! D115  D(26,25,28,53)       -142.6561         estimate D2E/DX2                !
 ! D116  D(26,25,28,54)        -27.9117         estimate D2E/DX2                !
 ! D117  D(25,26,27,22)          0.0335         estimate D2E/DX2                !
 ! D118  D(25,26,27,52)       -179.666          estimate D2E/DX2                !
 ! D119  D(51,26,27,22)       -179.3184         estimate D2E/DX2                !
 ! D120  D(51,26,27,52)          0.982          estimate D2E/DX2                !
 ! D121  D(25,28,29,30)         74.711          estimate D2E/DX2                !
 ! D122  D(25,28,29,35)        -64.8022         estimate D2E/DX2                !
 ! D123  D(53,28,29,30)        -48.7535         estimate D2E/DX2                !
 ! D124  D(53,28,29,35)        171.7333         estimate D2E/DX2                !
 ! D125  D(54,28,29,30)       -162.1209         estimate D2E/DX2                !
 ! D126  D(54,28,29,35)         58.3659         estimate D2E/DX2                !
 ! D127  D(28,29,30,31)        -95.4535         estimate D2E/DX2                !
 ! D128  D(28,29,30,55)         33.5545         estimate D2E/DX2                !
 ! D129  D(28,29,30,56)        148.8171         estimate D2E/DX2                !
 ! D130  D(35,29,30,31)         47.1079         estimate D2E/DX2                !
 ! D131  D(35,29,30,55)        176.116          estimate D2E/DX2                !
 ! D132  D(35,29,30,56)        -68.6214         estimate D2E/DX2                !
 ! D133  D(28,29,35,34)         96.6377         estimate D2E/DX2                !
 ! D134  D(28,29,35,64)       -146.5235         estimate D2E/DX2                !
 ! D135  D(28,29,35,65)        -30.6588         estimate D2E/DX2                !
 ! D136  D(30,29,35,34)        -46.0831         estimate D2E/DX2                !
 ! D137  D(30,29,35,64)         70.7558         estimate D2E/DX2                !
 ! D138  D(30,29,35,65)       -173.3795         estimate D2E/DX2                !
 ! D139  D(29,30,31,32)        -53.049          estimate D2E/DX2                !
 ! D140  D(29,30,31,57)       -173.2554         estimate D2E/DX2                !
 ! D141  D(29,30,31,58)         69.0455         estimate D2E/DX2                !
 ! D142  D(55,30,31,32)        178.8608         estimate D2E/DX2                !
 ! D143  D(55,30,31,57)         58.6544         estimate D2E/DX2                !
 ! D144  D(55,30,31,58)        -59.0447         estimate D2E/DX2                !
 ! D145  D(56,30,31,32)         63.5342         estimate D2E/DX2                !
 ! D146  D(56,30,31,57)        -56.6722         estimate D2E/DX2                !
 ! D147  D(56,30,31,58)       -174.3713         estimate D2E/DX2                !
 ! D148  D(30,31,32,33)        -81.6671         estimate D2E/DX2                !
 ! D149  D(30,31,32,34)         52.6522         estimate D2E/DX2                !
 ! D150  D(57,31,32,33)         37.8261         estimate D2E/DX2                !
 ! D151  D(57,31,32,34)        172.1454         estimate D2E/DX2                !
 ! D152  D(58,31,32,33)        154.5838         estimate D2E/DX2                !
 ! D153  D(58,31,32,34)        -71.0969         estimate D2E/DX2                !
 ! D154  D(31,32,33,59)         65.824          estimate D2E/DX2                !
 ! D155  D(31,32,33,60)        -54.8642         estimate D2E/DX2                !
 ! D156  D(31,32,33,61)       -173.6294         estimate D2E/DX2                !
 ! D157  D(34,32,33,59)        -65.0425         estimate D2E/DX2                !
 ! D158  D(34,32,33,60)        174.2694         estimate D2E/DX2                !
 ! D159  D(34,32,33,61)         55.5042         estimate D2E/DX2                !
 ! D160  D(31,32,34,35)        -51.1669         estimate D2E/DX2                !
 ! D161  D(31,32,34,62)       -177.6437         estimate D2E/DX2                !
 ! D162  D(31,32,34,63)         66.5559         estimate D2E/DX2                !
 ! D163  D(33,32,34,35)         83.2389         estimate D2E/DX2                !
 ! D164  D(33,32,34,62)        -43.2378         estimate D2E/DX2                !
 ! D165  D(33,32,34,63)       -159.0382         estimate D2E/DX2                !
 ! D166  D(32,34,35,29)         50.3726         estimate D2E/DX2                !
 ! D167  D(32,34,35,64)        -67.3701         estimate D2E/DX2                !
 ! D168  D(32,34,35,65)        177.2376         estimate D2E/DX2                !
 ! D169  D(62,34,35,29)        175.6013         estimate D2E/DX2                !
 ! D170  D(62,34,35,64)         57.8586         estimate D2E/DX2                !
 ! D171  D(62,34,35,65)        -57.5336         estimate D2E/DX2                !
 ! D172  D(63,34,35,29)        -67.2156         estimate D2E/DX2                !
 ! D173  D(63,34,35,64)        175.0416         estimate D2E/DX2                !
 ! D174  D(63,34,35,65)         59.6494         estimate D2E/DX2                !
 --------------------------------------------------------------------------------
 Trust Radius=3.00D-01 FncErr=1.00D-07 GrdErr=1.00D-06
 Number of steps in this run= 400 maximum allowed number of steps= 408.
 GradGradGradGradGradGradGradGradGradGradGradGradGradGradGradGradGradGrad

 Leave Link  103 at Tue Mar 10 11:30:57 2020, MaxMem= 2684354560 cpu:       0.1
 (Enter /opt/g09gh/gaussian/g09/l202.exe)
 Stoichiometry    C29H31N7O
 Framework group  C1[X(C29H31N7O)]
 Deg. of freedom   198
 Full point group                 C1      NOp   1
 Largest Abelian subgroup         C1      NOp   1
 Largest concise Abelian subgroup C1      NOp   1
                         Standard orientation:                         
 ---------------------------------------------------------------------
 Center     Atomic      Atomic             Coordinates (Angstroms)
 Number     Number       Type             X           Y           Z
 ---------------------------------------------------------------------
      1          6           0        2.458809    5.186895   -0.112859
      2          6           0        3.650474    4.450719   -0.067949
      3          6           0        3.611675    3.042011   -0.102796
      4          6           0        2.321462    2.465473   -0.201943
      5          7           0        1.173242    3.151923   -0.251061
      6          6           0        1.249019    4.489877   -0.201342
      7          6           0        4.844567    2.173382   -0.054911
      8          6           0        6.167271    2.645813   -0.044469
      9          6           0        7.163120    1.664197   -0.023327
     10          7           0        6.927161    0.356347    0.000466
     11          6           0        5.627273   -0.007949    0.008159
     12          7           0        4.601181    0.847416   -0.019670
     13          7           0        5.405990   -1.374960    0.051578
     14          6           0        4.226874   -2.201512    0.004212
     15          6           0        4.370307   -3.590166   -0.298345
     16          6           0        3.197972   -4.361531   -0.344445
     17          6           0        1.918657   -3.848154   -0.108516
     18          6           0        1.794183   -2.490341    0.205233
     19          6           0        2.946772   -1.687516    0.251539
     20          7           0        0.558597   -1.816090    0.472009
     21          6           0       -0.741128   -2.245394    0.341346
     22          6           0       -1.806286   -1.179822    0.462434
     23          6           0       -2.700569   -1.216992    1.542429
     24          6           0       -3.677885   -0.228236    1.677473
     25          6           0       -3.792067    0.823700    0.748075
     26          6           0       -2.886699    0.842596   -0.330779
     27          6           0       -1.906541   -0.141662   -0.475863
     28          6           0       -4.895557    1.875443    0.873101
     29          7           0       -6.238268    1.585637    0.339715
     30          6           0       -7.120539    0.655575    1.079166
     31          6           0       -7.077723   -0.810841    0.577953
     32          7           0       -7.320709   -0.962928   -0.875278
     33          6           0       -8.721932   -0.956145   -1.312577
     34          6           0       -6.393631   -0.070713   -1.612916
     35          6           0       -6.398548    1.400527   -1.121020
     36          8           0       -1.046596   -3.411513    0.157653
     37          6           0        5.705311   -4.256142   -0.586163
     38          1           0        2.465699    6.272314   -0.079018
     39          1           0        4.587423    4.997046    0.006635
     40          1           0        2.212561    1.388271   -0.266050
     41          1           0        0.299499    5.021210   -0.239813
     42          1           0        6.439640    3.693586   -0.073404
     43          1           0        8.215209    1.947940   -0.028025
     44          1           0        6.293255   -1.854955    0.029187
     45          1           0        3.266941   -5.422403   -0.581610
     46          1           0        1.040257   -4.480129   -0.159515
     47          1           0        2.862552   -0.638417    0.489289
     48          1           0        0.652648   -0.844304    0.734395
     49          1           0       -2.621216   -2.028344    2.261446
     50          1           0       -4.365544   -0.285683    2.520903
     51          1           0       -2.948147    1.630627   -1.081138
     52          1           0       -1.209965   -0.113222   -1.310016
     53          1           0       -5.014233    2.123742    1.937874
     54          1           0       -4.554586    2.797321    0.379665
     55          1           0       -6.964867    0.734739    2.111817
     56          1           0       -8.603929    1.136743    0.815614
     57          1           0       -8.141399   -1.564622    1.319420
     58          1           0       -6.010237   -1.322946    0.831433
     59          1           0       -9.185259    0.021099   -1.136049
     60          1           0       -9.290976   -1.720365   -0.771068
     61          1           0       -8.784148   -1.187719   -2.382260
     62          1           0       -6.592027   -0.143044   -2.683820
     63          1           0       -4.988898   -0.610480   -1.374404
     64          1           0       -7.820768    1.961973   -1.501464
     65          1           0       -5.628399    2.032186   -1.690987
     66          1           0        6.364015   -4.229764    0.293179
     67          1           0        6.234125   -3.757935   -1.411006
     68          1           0        5.605334   -5.312333   -0.872163
 ---------------------------------------------------------------------
 Rotational constants (GHZ):      0.1541857      0.0445303      0.0357712
 Leave Link  202 at Tue Mar 10 11:30:57 2020, MaxMem= 2684354560 cpu:       0.1
 (Enter /opt/g09gh/gaussian/g09/l301.exe)
 Standard basis: 6-31G(d) (6D, 7F)
 Ernie: Thresh=  0.10000D-02 Tol=  0.10000D-05 Strict=F.
 There are   617 symmetry adapted basis functions of A   symmetry.
 Integral buffers will be    131072 words long.
 Raffenetti 2 integral format.
 Two-electron integral symmetry is turned on.
   617 basis functions,  1160 primitive gaussians,   617 cartesian basis functions
   131 alpha electrons      131 beta electrons
       nuclear repulsion energy      3653.9108007918 Hartrees.
 IExCor= 4639 DFT=T Ex+Corr=wB97XD ExCW=0 ScaHFX=  1.000000
 ScaDFX=  1.000000  1.000000  1.000000  1.000000 ScalE2=  1.000000  1.000000
 IRadAn=      0 IRanWt=     -1 IRanGd=            0 ICorTp=0
  HFx wShort=  0.000000 wLong=  0.200000 cFull=  0.222036 cShort=  0.000000 cLong=  0.777964
  DFx wShort=  0.000000 wLong=  0.200000 cFull=  0.000000 cShort=  0.000000 cLong=  1.000000
 NAtoms=   68 NActive=   68 NUniq=   68 SFac= 7.50D-01 NAtFMM=   80 NAOKFM=F Big=T
 R6Disp: Dispersion energy =        -0.0560336877 Hartrees.
 Nuclear repulsion after empirical dispersion term =     3653.8547671040 Hartrees.
 Leave Link  301 at Tue Mar 10 11:30:57 2020, MaxMem= 2684354560 cpu:       0.4
 (Enter /opt/g09gh/gaussian/g09/l302.exe)
 NPDir=0 NMtPBC=     1 NCelOv=     1 NCel=       1 NClECP=     1 NCelD=      1
         NCelK=      1 NCelE2=     1 NClLst=     1 CellRange=     0.0.
 One-electron integrals computed using PRISM.
 NBasis=   617 RedAO= T  NBF=   617
 NBsUse=   617 1.00D-06 NBFU=   617
 Precomputing XC quadrature grid using
 IXCGrd= 2 IRadAn=           0 IRanWt=          -1 IRanGd=           0 AccXCQ= 1.00D-10.
 NRdTot=    4404 NPtTot=      563904 NUsed=      595629 NTot=      595661
 NSgBfM=   581   581   581   581   581 NAtAll=    68    68.
 Leave Link  302 at Tue Mar 10 11:30:59 2020, MaxMem= 2684354560 cpu:       7.8
 (Enter /opt/g09gh/gaussian/g09/l303.exe)
 DipDrv:  MaxL=1.
 Leave Link  303 at Tue Mar 10 11:30:59 2020, MaxMem= 2684354560 cpu:       0.8
 (Enter /opt/g09gh/gaussian/g09/l401.exe)
 Harris functional with IExCor= 4639 diagonalized for initial guess.
 ExpMin= 1.61D-01 ExpMax= 5.48D+03 ExpMxC= 8.25D+02 IAcc=1 IRadAn=         1 AccDes= 0.00D+00
 HarFok:  IExCor= 4639 AccDes= 0.00D+00 IRadAn=         1 IDoV= 1
 ScaDFX=  1.000000  1.000000  1.000000  1.000000
 FoFCou: FMM=F IPFlag=           0 FMFlag=      100000 FMFlg1=           1
         NFxFlg=           0 DoJE=T BraDBF=F KetDBF=T FulRan=T
         Omega=  0.000000  0.000000  1.000000  0.000000  0.000000 ICntrl=     500 IOpCl=  0
         NMat0=    1 NMatS0=    1 NMatT0=    0 NMatD0=    1 NMtDS0=    0 NMtDT0=    0
         I1Cent=           4 NGrid=           0.
 Petite list used in FoFCou.
 Harris En= -1512.38884029253    
 Initial guess orbital symmetries:
       Occupied  (A) (A) (A) (A) (A) (A) (A) (A) (A) (A) (A) (A)
                 (A) (A) (A) (A) (A) (A) (A) (A) (A) (A) (A) (A)
                 (A) (A) (A) (A) (A) (A) (A) (A) (A) (A) (A) (A)
                 (A) (A) (A) (A) (A) (A) (A) (A) (A) (A) (A) (A)
                 (A) (A) (A) (A) (A) (A) (A) (A) (A) (A) (A) (A)
                 (A) (A) (A) (A) (A) (A) (A) (A) (A) (A) (A) (A)
                 (A) (A) (A) (A) (A) (A) (A) (A) (A) (A) (A) (A)
                 (A) (A) (A) (A) (A) (A) (A) (A) (A) (A) (A) (A)
                 (A) (A) (A) (A) (A) (A) (A) (A) (A) (A) (A) (A)
                 (A) (A) (A) (A) (A) (A) (A) (A) (A) (A) (A) (A)
                 (A) (A) (A) (A) (A) (A) (A) (A) (A) (A) (A)
       Virtual   (A) (A) (A) (A) (A) (A) (A) (A) (A) (A) (A) (A)
                 (A) (A) (A) (A) (A) (A) (A) (A) (A) (A) (A) (A)
                 (A) (A) (A) (A) (A) (A) (A) (A) (A) (A) (A) (A)
                 (A) (A) (A) (A) (A) (A) (A) (A) (A) (A) (A) (A)
                 (A) (A) (A) (A) (A) (A) (A) (A) (A) (A) (A) (A)
                 (A) (A) (A) (A) (A) (A) (A) (A) (A) (A) (A) (A)
                 (A) (A) (A) (A) (A) (A) (A) (A) (A) (A) (A) (A)
                 (A) (A) (A) (A) (A) (A) (A) (A) (A) (A) (A) (A)
                 (A) (A) (A) (A) (A) (A) (A) (A) (A) (A) (A) (A)
                 (A) (A) (A) (A) (A) (A) (A) (A) (A) (A) (A) (A)
                 (A) (A) (A) (A) (A) (A) (A) (A) (A) (A) (A) (A)
                 (A) (A) (A) (A) (A) (A) (A) (A) (A) (A) (A) (A)
                 (A) (A) (A) (A) (A) (A) (A) (A) (A) (A) (A) (A)
                 (A) (A) (A) (A) (A) (A) (A) (A) (A) (A) (A) (A)
                 (A) (A) (A) (A) (A) (A) (A) (A) (A) (A) (A) (A)
                 (A) (A) (A) (A) (A) (A) (A) (A) (A) (A) (A) (A)
                 (A) (A) (A) (A) (A) (A) (A) (A) (A) (A) (A) (A)
                 (A) (A) (A) (A) (A) (A) (A) (A) (A) (A) (A) (A)
                 (A) (A) (A) (A) (A) (A) (A) (A) (A) (A) (A) (A)
                 (A) (A) (A) (A) (A) (A) (A) (A) (A) (A) (A) (A)
                 (A) (A) (A) (A) (A) (A) (A) (A) (A) (A) (A) (A)
                 (A) (A) (A) (A) (A) (A) (A) (A) (A) (A) (A) (A)
                 (A) (A) (A) (A) (A) (A) (A) (A) (A) (A) (A) (A)
                 (A) (A) (A) (A) (A) (A) (A) (A) (A) (A) (A) (A)
                 (A) (A) (A) (A) (A) (A) (A) (A) (A) (A) (A) (A)
                 (A) (A) (A) (A) (A) (A) (A) (A) (A) (A) (A) (A)
                 (A) (A) (A) (A) (A) (A) (A) (A) (A) (A) (A) (A)
                 (A) (A) (A) (A) (A) (A) (A) (A) (A) (A) (A) (A)
                 (A) (A) (A) (A) (A) (A) (A) (A) (A) (A) (A) (A)
                 (A) (A) (A) (A) (A) (A) (A) (A) (A) (A) (A) (A)
                 (A) (A) (A) (A) (A) (A) (A) (A) (A) (A) (A) (A)
                 (A) (A) (A) (A) (A) (A) (A) (A) (A) (A) (A) (A)
                 (A) (A) (A) (A) (A) (A) (A) (A) (A) (A) (A) (A)
                 (A) (A) (A) (A) (A) (A) (A) (A) (A) (A) (A) (A)
                 (A) (A) (A) (A) (A) (A) (A) (A) (A) (A) (A) (A)
                 (A) (A) (A) (A) (A) (A) (A) (A) (A) (A) (A) (A)
                 (A) (A) (A) (A) (A) (A) (A) (A) (A) (A) (A) (A)
                 (A) (A) (A) (A) (A) (A) (A) (A) (A) (A) (A) (A)
                 (A) (A) (A) (A) (A) (A) (A) (A) (A) (A) (A) (A)
                 (A) (A) (A) (A) (A) (A) (A) (A) (A) (A) (A) (A)
                 (A) (A) (A) (A) (A) (A)
 The electronic state of the initial guess is 1-A.
 Leave Link  401 at Tue Mar 10 11:31:01 2020, MaxMem= 2684354560 cpu:      14.1
 (Enter /opt/g09gh/gaussian/g09/l502.exe)
 Closed shell SCF:
 Requested convergence on RMS density matrix=1.00D-08 within 128 cycles.
 Requested convergence on MAX density matrix=1.00D-06.
 Requested convergence on             energy=1.00D-06.
 No special actions if energy rises.
 Using DIIS extrapolation, IDIIS=  1040.
 Integral symmetry usage will be decided dynamically.
       595004 words used for storage of precomputed grid.
 IEnd=     1763584 IEndB=     1763584 NGot=  2684354560 MDV=  2682988923
 LenX=  2682988923 LenY=  2682607617
 Fock matrices will be formed incrementally for  20 cycles.
 Integral accuracy reduced to 1.0D-05 until final iterations.

 Cycle   1  Pass 0  IDiag  1:
 FoFJK:  IHMeth= 1 ICntrl=     0 DoSepK=T KAlg= 1 I1Cent= 0 FoldK=F
 FoFCou: FMM=T IPFlag=           0 FMFlag=      100000 FMFlg1=           1
         NFxFlg=           0 DoJE=T BraDBF=F KetDBF=F FulRan=T
         Omega=  0.000000  0.000000  1.000000  0.000000  0.000000 ICntrl=     500 IOpCl=  0
         NMat0=    1 NMatS0=    1 NMatT0=    0 NMatD0=    1 NMtDS0=    0 NMtDT0=    0
         I1Cent=           0 NGrid=           0.
 Symmetry not used in FoFCou.
 FMM levels:  10  Number of levels for PrismC:   9
 E= -1581.14643542080    
 DIIS: error= 6.26D-02 at cycle   1 NSaved=   1.
 NSaved= 1 IEnMin= 1 EnMin= -1581.14643542080     IErMin= 1 ErrMin= 6.26D-02
 ErrMax= 6.26D-02 EMaxC= 1.00D-01 BMatC= 1.46D+00 BMatP= 1.46D+00
 IDIUse=3 WtCom= 3.74D-01 WtEn= 6.26D-01
 Coeff-Com:  0.100D+01
 Coeff-En:   0.100D+01
 Coeff:      0.100D+01
 Gap=     0.267 Goal=   None    Shift=    0.000
 GapD=    0.267 DampG=1.000 DampE=0.500 DampFc=0.5000 IDamp=-1.
 Damping current iteration by 5.00D-01
 RMSDP=1.87D-03 MaxDP=8.97D-02              OVMax= 1.71D-01

 Cycle   2  Pass 0  IDiag  1:
 RMSU=  6.60D-04    CP:  1.00D+00
 FoFJK:  IHMeth= 1 ICntrl=     0 DoSepK=T KAlg= 1 I1Cent= 0 FoldK=F
 E= -1581.32269206957     Delta-E=       -0.176256648772 Rises=F Damp=T
 DIIS: error= 3.18D-02 at cycle   2 NSaved=   2.
 NSaved= 2 IEnMin= 2 EnMin= -1581.32269206957     IErMin= 2 ErrMin= 3.18D-02
 ErrMax= 3.18D-02 EMaxC= 1.00D-01 BMatC= 3.22D-01 BMatP= 1.46D+00
 IDIUse=3 WtCom= 6.82D-01 WtEn= 3.18D-01
 Coeff-Com: -0.654D+00 0.165D+01
 Coeff-En:   0.000D+00 0.100D+01
 Coeff:     -0.446D+00 0.145D+01
 Gap=     0.285 Goal=   None    Shift=    0.000
 RMSDP=8.62D-04 MaxDP=3.87D-02 DE=-1.76D-01 OVMax= 1.20D-01

 Cycle   3  Pass 0  IDiag  1:
 RMSU=  5.54D-04    CP:  1.00D+00  1.39D+00
 FoFJK:  IHMeth= 1 ICntrl=     0 DoSepK=T KAlg= 1 I1Cent= 0 FoldK=F
 E= -1581.45648071503     Delta-E=       -0.133788645460 Rises=F Damp=F
 DIIS: error= 7.44D-03 at cycle   3 NSaved=   3.
 NSaved= 3 IEnMin= 3 EnMin= -1581.45648071503     IErMin= 3 ErrMin= 7.44D-03
 ErrMax= 7.44D-03 EMaxC= 1.00D-01 BMatC= 5.78D-02 BMatP= 3.22D-01
 IDIUse=3 WtCom= 9.26D-01 WtEn= 7.44D-02
 Coeff-Com: -0.355D+00 0.734D+00 0.621D+00
 Coeff-En:   0.000D+00 0.000D+00 0.100D+01
 Coeff:     -0.329D+00 0.679D+00 0.649D+00
 Gap=     0.259 Goal=   None    Shift=    0.000
 RMSDP=4.50D-04 MaxDP=3.14D-02 DE=-1.34D-01 OVMax= 6.10D-02

 Cycle   4  Pass 0  IDiag  1:
 RMSU=  1.40D-04    CP:  1.00D+00  1.67D+00  6.08D-01
 FoFJK:  IHMeth= 1 ICntrl=     0 DoSepK=T KAlg= 1 I1Cent= 0 FoldK=F
 E= -1581.50763060912     Delta-E=       -0.051149894093 Rises=F Damp=F
 DIIS: error= 1.90D-03 at cycle   4 NSaved=   4.
 NSaved= 4 IEnMin= 4 EnMin= -1581.50763060912     IErMin= 4 ErrMin= 1.90D-03
 ErrMax= 1.90D-03 EMaxC= 1.00D-01 BMatC= 3.52D-03 BMatP= 5.78D-02
 IDIUse=3 WtCom= 9.81D-01 WtEn= 1.90D-02
 Coeff-Com: -0.158D+00 0.322D+00 0.347D+00 0.489D+00
 Coeff-En:   0.000D+00 0.000D+00 0.000D+00 0.100D+01
 Coeff:     -0.155D+00 0.316D+00 0.340D+00 0.499D+00
 Gap=     0.254 Goal=   None    Shift=    0.000
 RMSDP=9.77D-05 MaxDP=9.08D-03 DE=-5.11D-02 OVMax= 1.03D-02

 Cycle   5  Pass 0  IDiag  1:
 RMSU=  4.42D-05    CP:  1.00D+00  1.65D+00  6.71D-01  7.26D-01
 FoFJK:  IHMeth= 1 ICntrl=     0 DoSepK=T KAlg= 1 I1Cent= 0 FoldK=F
 E= -1581.51067026648     Delta-E=       -0.003039657357 Rises=F Damp=F
 DIIS: error= 5.32D-04 at cycle   5 NSaved=   5.
 NSaved= 5 IEnMin= 5 EnMin= -1581.51067026648     IErMin= 5 ErrMin= 5.32D-04
 ErrMax= 5.32D-04 EMaxC= 1.00D-01 BMatC= 8.61D-05 BMatP= 3.52D-03
 IDIUse=3 WtCom= 9.95D-01 WtEn= 5.32D-03
 Coeff-Com: -0.150D-01 0.296D-01 0.540D-01 0.157D+00 0.775D+00
 Coeff-En:   0.000D+00 0.000D+00 0.000D+00 0.000D+00 0.100D+01
 Coeff:     -0.149D-01 0.295D-01 0.537D-01 0.156D+00 0.776D+00
 Gap=     0.252 Goal=   None    Shift=    0.000
 RMSDP=2.34D-05 MaxDP=2.55D-03 DE=-3.04D-03 OVMax= 2.72D-03

 Cycle   6  Pass 0  IDiag  1:
 RMSU=  1.29D-05    CP:  1.00D+00  1.66D+00  6.78D-01  7.89D-01  9.99D-01
 FoFJK:  IHMeth= 1 ICntrl=     0 DoSepK=T KAlg= 1 I1Cent= 0 FoldK=F
 E= -1581.51075363553     Delta-E=       -0.000083369051 Rises=F Damp=F
 DIIS: error= 2.13D-04 at cycle   6 NSaved=   6.
 NSaved= 6 IEnMin= 6 EnMin= -1581.51075363553     IErMin= 6 ErrMin= 2.13D-04
 ErrMax= 2.13D-04 EMaxC= 1.00D-01 BMatC= 2.65D-05 BMatP= 8.61D-05
 IDIUse=3 WtCom= 9.98D-01 WtEn= 2.13D-03
 Coeff-Com:  0.228D-01-0.471D-01-0.369D-01-0.168D-01 0.397D+00 0.681D+00
 Coeff-En:   0.000D+00 0.000D+00 0.000D+00 0.000D+00 0.000D+00 0.100D+01
 Coeff:      0.227D-01-0.470D-01-0.368D-01-0.167D-01 0.396D+00 0.682D+00
 Gap=     0.253 Goal=   None    Shift=    0.000
 RMSDP=1.28D-05 MaxDP=8.82D-04 DE=-8.34D-05 OVMax= 1.61D-03

 Cycle   7  Pass 0  IDiag  1:
 RMSU=  5.62D-06    CP:  1.00D+00  1.66D+00  6.82D-01  8.17D-01  1.12D+00
                    CP:  8.85D-01
 FoFJK:  IHMeth= 1 ICntrl=     0 DoSepK=T KAlg= 1 I1Cent= 0 FoldK=F
 E= -1581.51078322909     Delta-E=       -0.000029593559 Rises=F Damp=F
 DIIS: error= 6.81D-05 at cycle   7 NSaved=   7.
 NSaved= 7 IEnMin= 7 EnMin= -1581.51078322909     IErMin= 7 ErrMin= 6.81D-05
 ErrMax= 6.81D-05 EMaxC= 1.00D-01 BMatC= 1.65D-06 BMatP= 2.65D-05
 IDIUse=1 WtCom= 1.00D+00 WtEn= 0.00D+00
 Coeff-Com:  0.941D-02-0.192D-01-0.172D-01-0.205D-01 0.653D-01 0.236D+00
 Coeff-Com:  0.746D+00
 Coeff:      0.941D-02-0.192D-01-0.172D-01-0.205D-01 0.653D-01 0.236D+00
 Coeff:      0.746D+00
 Gap=     0.253 Goal=   None    Shift=    0.000
 RMSDP=4.02D-06 MaxDP=2.55D-04 DE=-2.96D-05 OVMax= 6.18D-04

 Initial convergence to 1.0D-05 achieved.  Increase integral accuracy.
 Cycle   8  Pass 1  IDiag  1:
 FoFJK:  IHMeth= 1 ICntrl=     0 DoSepK=T KAlg= 1 I1Cent= 0 FoldK=F
 E= -1581.50933729706     Delta-E=        0.001445932035 Rises=F Damp=F
 DIIS: error= 9.25D-05 at cycle   1 NSaved=   1.
 NSaved= 1 IEnMin= 1 EnMin= -1581.50933729706     IErMin= 1 ErrMin= 9.25D-05
 ErrMax= 9.25D-05 EMaxC= 1.00D-01 BMatC= 1.46D-05 BMatP= 1.46D-05
 IDIUse=1 WtCom= 1.00D+00 WtEn= 0.00D+00
 Coeff-Com:  0.100D+01
 Coeff:      0.100D+01
 Gap=     0.253 Goal=   None    Shift=    0.000
 RMSDP=4.02D-06 MaxDP=2.55D-04 DE= 1.45D-03 OVMax= 4.31D-04

 Cycle   9  Pass 1  IDiag  1:
 RMSU=  1.72D-05    CP:  1.00D+00
 FoFJK:  IHMeth= 1 ICntrl=     0 DoSepK=T KAlg= 1 I1Cent= 0 FoldK=F
 E= -1581.50934903264     Delta-E=       -0.000011735587 Rises=F Damp=F
 DIIS: error= 3.47D-05 at cycle   2 NSaved=   2.
 NSaved= 2 IEnMin= 2 EnMin= -1581.50934903264     IErMin= 2 ErrMin= 3.47D-05
 ErrMax= 3.47D-05 EMaxC= 1.00D-01 BMatC= 7.19D-07 BMatP= 1.46D-05
 IDIUse=1 WtCom= 1.00D+00 WtEn= 0.00D+00
 Coeff-Com:  0.155D-01 0.984D+00
 Coeff:      0.155D-01 0.984D+00
 Gap=     0.253 Goal=   None    Shift=    0.000
 RMSDP=2.94D-06 MaxDP=1.97D-04 DE=-1.17D-05 OVMax= 3.05D-04

 Cycle  10  Pass 1  IDiag  1:
 RMSU=  1.92D-06    CP:  1.00D+00  1.05D+00
 FoFJK:  IHMeth= 1 ICntrl=     0 DoSepK=T KAlg= 1 I1Cent= 0 FoldK=F
 E= -1581.50934914873     Delta-E=       -0.000000116083 Rises=F Damp=F
 DIIS: error= 4.03D-05 at cycle   3 NSaved=   3.
 NSaved= 3 IEnMin= 3 EnMin= -1581.50934914873     IErMin= 2 ErrMin= 3.47D-05
 ErrMax= 4.03D-05 EMaxC= 1.00D-01 BMatC= 8.34D-07 BMatP= 7.19D-07
 IDIUse=1 WtCom= 1.00D+00 WtEn= 0.00D+00
 Coeff-Com: -0.416D-01 0.538D+00 0.504D+00
 Coeff:     -0.416D-01 0.538D+00 0.504D+00
 Gap=     0.253 Goal=   None    Shift=    0.000
 RMSDP=1.49D-06 MaxDP=1.45D-04 DE=-1.16D-07 OVMax= 1.50D-04

 Cycle  11  Pass 1  IDiag  1:
 RMSU=  6.33D-07    CP:  1.00D+00  1.06D+00  5.72D-01
 FoFJK:  IHMeth= 1 ICntrl=     0 DoSepK=T KAlg= 1 I1Cent= 0 FoldK=F
 E= -1581.50934987279     Delta-E=       -0.000000724061 Rises=F Damp=F
 DIIS: error= 8.17D-06 at cycle   4 NSaved=   4.
 NSaved= 4 IEnMin= 4 EnMin= -1581.50934987279     IErMin= 4 ErrMin= 8.17D-06
 ErrMax= 8.17D-06 EMaxC= 1.00D-01 BMatC= 2.66D-08 BMatP= 7.19D-07
 IDIUse=1 WtCom= 1.00D+00 WtEn= 0.00D+00
 Coeff-Com: -0.179D-01 0.136D+00 0.191D+00 0.691D+00
 Coeff:     -0.179D-01 0.136D+00 0.191D+00 0.691D+00
 Gap=     0.253 Goal=   None    Shift=    0.000
 RMSDP=3.45D-07 MaxDP=3.72D-05 DE=-7.24D-07 OVMax= 4.25D-05

 Cycle  12  Pass 1  IDiag  1:
 RMSU=  2.19D-07    CP:  1.00D+00  1.06D+00  6.27D-01  1.03D+00
 FoFJK:  IHMeth= 1 ICntrl=     0 DoSepK=T KAlg= 1 I1Cent= 0 FoldK=F
 E= -1581.50934989775     Delta-E=       -0.000000024961 Rises=F Damp=F
 DIIS: error= 3.13D-06 at cycle   5 NSaved=   5.
 NSaved= 5 IEnMin= 5 EnMin= -1581.50934989775     IErMin= 5 ErrMin= 3.13D-06
 ErrMax= 3.13D-06 EMaxC= 1.00D-01 BMatC= 4.88D-09 BMatP= 2.66D-08
 IDIUse=1 WtCom= 1.00D+00 WtEn= 0.00D+00
 Coeff-Com:  0.448D-03-0.402D-01-0.110D-01 0.293D+00 0.758D+00
 Coeff:      0.448D-03-0.402D-01-0.110D-01 0.293D+00 0.758D+00
 Gap=     0.253 Goal=   None    Shift=    0.000
 RMSDP=1.91D-07 MaxDP=1.34D-05 DE=-2.50D-08 OVMax= 2.78D-05

 Cycle  13  Pass 1  IDiag  1:
 RMSU=  9.12D-08    CP:  1.00D+00  1.06D+00  6.48D-01  1.17D+00  9.39D-01
 FoFJK:  IHMeth= 1 ICntrl=     0 DoSepK=T KAlg= 1 I1Cent= 0 FoldK=F
 E= -1581.50934990477     Delta-E=       -0.000000007019 Rises=F Damp=F
 DIIS: error= 7.55D-07 at cycle   6 NSaved=   6.
 NSaved= 6 IEnMin= 6 EnMin= -1581.50934990477     IErMin= 6 ErrMin= 7.55D-07
 ErrMax= 7.55D-07 EMaxC= 1.00D-01 BMatC= 5.73D-10 BMatP= 4.88D-09
 IDIUse=1 WtCom= 1.00D+00 WtEn= 0.00D+00
 Coeff-Com:  0.220D-02-0.297D-01-0.269D-01 0.196D-01 0.279D+00 0.756D+00
 Coeff:      0.220D-02-0.297D-01-0.269D-01 0.196D-01 0.279D+00 0.756D+00
 Gap=     0.253 Goal=   None    Shift=    0.000
 RMSDP=7.99D-08 MaxDP=3.75D-06 DE=-7.02D-09 OVMax= 1.84D-05

 Cycle  14  Pass 1  IDiag  1:
 RMSU=  3.50D-08    CP:  1.00D+00  1.06D+00  6.52D-01  1.22D+00  1.07D+00
                    CP:  1.05D+00
 FoFJK:  IHMeth= 1 ICntrl=     0 DoSepK=T KAlg= 1 I1Cent= 0 FoldK=F
 E= -1581.50934990584     Delta-E=       -0.000000001073 Rises=F Damp=F
 DIIS: error= 4.17D-07 at cycle   7 NSaved=   7.
 NSaved= 7 IEnMin= 7 EnMin= -1581.50934990584     IErMin= 7 ErrMin= 4.17D-07
 ErrMax= 4.17D-07 EMaxC= 1.00D-01 BMatC= 1.05D-10 BMatP= 5.73D-10
 IDIUse=1 WtCom= 1.00D+00 WtEn= 0.00D+00
 Coeff-Com:  0.743D-03-0.386D-02-0.909D-02-0.520D-01-0.346D-01 0.283D+00
 Coeff-Com:  0.816D+00
 Coeff:      0.743D-03-0.386D-02-0.909D-02-0.520D-01-0.346D-01 0.283D+00
 Coeff:      0.816D+00
 Gap=     0.253 Goal=   None    Shift=    0.000
 RMSDP=4.27D-08 MaxDP=1.82D-06 DE=-1.07D-09 OVMax= 8.96D-06

 Cycle  15  Pass 1  IDiag  1:
 RMSU=  1.46D-08    CP:  1.00D+00  1.06D+00  6.57D-01  1.24D+00  1.12D+00
                    CP:  1.24D+00  1.07D+00
 FoFJK:  IHMeth= 1 ICntrl=     0 DoSepK=T KAlg= 1 I1Cent= 0 FoldK=F
 E= -1581.50934990624     Delta-E=       -0.000000000399 Rises=F Damp=F
 DIIS: error= 1.45D-07 at cycle   8 NSaved=   8.
 NSaved= 8 IEnMin= 8 EnMin= -1581.50934990624     IErMin= 8 ErrMin= 1.45D-07
 ErrMax= 1.45D-07 EMaxC= 1.00D-01 BMatC= 1.68D-11 BMatP= 1.05D-10
 IDIUse=1 WtCom= 1.00D+00 WtEn= 0.00D+00
 Coeff-Com: -0.103D-03 0.369D-02 0.137D-02-0.207D-01-0.564D-01-0.257D-01
 Coeff-Com:  0.287D+00 0.811D+00
 Coeff:     -0.103D-03 0.369D-02 0.137D-02-0.207D-01-0.564D-01-0.257D-01
 Coeff:      0.287D+00 0.811D+00
 Gap=     0.253 Goal=   None    Shift=    0.000
 RMSDP=1.72D-08 MaxDP=8.71D-07 DE=-3.99D-10 OVMax= 4.87D-06

 Cycle  16  Pass 1  IDiag  1:
 RMSU=  6.07D-09    CP:  1.00D+00  1.06D+00  6.57D-01  1.25D+00  1.14D+00
                    CP:  1.30D+00  1.27D+00  1.09D+00
 FoFJK:  IHMeth= 1 ICntrl=     0 DoSepK=T KAlg= 1 I1Cent= 0 FoldK=F
 E= -1581.50934990626     Delta-E=       -0.000000000024 Rises=F Damp=F
 DIIS: error= 6.53D-08 at cycle   9 NSaved=   9.
 NSaved= 9 IEnMin= 9 EnMin= -1581.50934990626     IErMin= 9 ErrMin= 6.53D-08
 ErrMax= 6.53D-08 EMaxC= 1.00D-01 BMatC= 3.42D-12 BMatP= 1.68D-11
 IDIUse=1 WtCom= 1.00D+00 WtEn= 0.00D+00
 Coeff-Com: -0.180D-03 0.224D-02 0.231D-02 0.130D-02-0.179D-01-0.672D-01
 Coeff-Com: -0.432D-01 0.319D+00 0.804D+00
 Coeff:     -0.180D-03 0.224D-02 0.231D-02 0.130D-02-0.179D-01-0.672D-01
 Coeff:     -0.432D-01 0.319D+00 0.804D+00
 Gap=     0.253 Goal=   None    Shift=    0.000
 RMSDP=7.79D-09 MaxDP=4.19D-07 DE=-2.36D-11 OVMax= 2.09D-06

 SCF Done:  E(RwB97XD) =  -1581.50934991     A.U. after   16 cycles
             Convg  =    0.7793D-08             -V/T =  2.0110
 KE= 1.564364810226D+03 PE=-1.097620531576D+04 EE= 4.176476388522D+03
 Leave Link  502 at Tue Mar 10 11:33:30 2020, MaxMem= 2684354560 cpu:     887.8
 (Enter /opt/g09gh/gaussian/g09/l601.exe)
 Copying SCF densities to generalized density rwf, IOpCl= 0 IROHF=0.

 **********************************************************************

            Population analysis using the SCF density.

 **********************************************************************

 Orbital symmetries:
       Occupied  (A) (A) (A) (A) (A) (A) (A) (A) (A) (A) (A) (A)
                 (A) (A) (A) (A) (A) (A) (A) (A) (A) (A) (A) (A)
                 (A) (A) (A) (A) (A) (A) (A) (A) (A) (A) (A) (A)
                 (A) (A) (A) (A) (A) (A) (A) (A) (A) (A) (A) (A)
                 (A) (A) (A) (A) (A) (A) (A) (A) (A) (A) (A) (A)
                 (A) (A) (A) (A) (A) (A) (A) (A) (A) (A) (A) (A)
                 (A) (A) (A) (A) (A) (A) (A) (A) (A) (A) (A) (A)
                 (A) (A) (A) (A) (A) (A) (A) (A) (A) (A) (A) (A)
                 (A) (A) (A) (A) (A) (A) (A) (A) (A) (A) (A) (A)
                 (A) (A) (A) (A) (A) (A) (A) (A) (A) (A) (A) (A)
                 (A) (A) (A) (A) (A) (A) (A) (A) (A) (A) (A)
       Virtual   (A) (A) (A) (A) (A) (A) (A) (A) (A) (A) (A) (A)
                 (A) (A) (A) (A) (A) (A) (A) (A) (A) (A) (A) (A)
                 (A) (A) (A) (A) (A) (A) (A) (A) (A) (A) (A) (A)
                 (A) (A) (A) (A) (A) (A) (A) (A) (A) (A) (A) (A)
                 (A) (A) (A) (A) (A) (A) (A) (A) (A) (A) (A) (A)
                 (A) (A) (A) (A) (A) (A) (A) (A) (A) (A) (A) (A)
                 (A) (A) (A) (A) (A) (A) (A) (A) (A) (A) (A) (A)
                 (A) (A) (A) (A) (A) (A) (A) (A) (A) (A) (A) (A)
                 (A) (A) (A) (A) (A) (A) (A) (A) (A) (A) (A) (A)
                 (A) (A) (A) (A) (A) (A) (A) (A) (A) (A) (A) (A)
                 (A) (A) (A) (A) (A) (A) (A) (A) (A) (A) (A) (A)
                 (A) (A) (A) (A) (A) (A) (A) (A) (A) (A) (A) (A)
                 (A) (A) (A) (A) (A) (A) (A) (A) (A) (A) (A) (A)
                 (A) (A) (A) (A) (A) (A) (A) (A) (A) (A) (A) (A)
                 (A) (A) (A) (A) (A) (A) (A) (A) (A) (A) (A) (A)
                 (A) (A) (A) (A) (A) (A) (A) (A) (A) (A) (A) (A)
                 (A) (A) (A) (A) (A) (A) (A) (A) (A) (A) (A) (A)
                 (A) (A) (A) (A) (A) (A) (A) (A) (A) (A) (A) (A)
                 (A) (A) (A) (A) (A) (A) (A) (A) (A) (A) (A) (A)
                 (A) (A) (A) (A) (A) (A) (A) (A) (A) (A) (A) (A)
                 (A) (A) (A) (A) (A) (A) (A) (A) (A) (A) (A) (A)
                 (A) (A) (A) (A) (A) (A) (A) (A) (A) (A) (A) (A)
                 (A) (A) (A) (A) (A) (A) (A) (A) (A) (A) (A) (A)
                 (A) (A) (A) (A) (A) (A) (A) (A) (A) (A) (A) (A)
                 (A) (A) (A) (A) (A) (A) (A) (A) (A) (A) (A) (A)
                 (A) (A) (A) (A) (A) (A) (A) (A) (A) (A) (A) (A)
                 (A) (A) (A) (A) (A) (A) (A) (A) (A) (A) (A) (A)
                 (A) (A) (A) (A) (A) (A) (A) (A) (A) (A) (A) (A)
                 (A) (A) (A) (A) (A) (A) (A) (A) (A) (A) (A) (A)
                 (A) (A) (A) (A) (A) (A) (A) (A) (A) (A) (A) (A)
                 (A) (A) (A) (A) (A) (A) (A) (A) (A) (A) (A) (A)
                 (A) (A) (A) (A) (A) (A) (A) (A) (A) (A) (A) (A)
                 (A) (A) (A) (A) (A) (A) (A) (A) (A) (A) (A) (A)
                 (A) (A) (A) (A) (A) (A) (A) (A) (A) (A) (A) (A)
                 (A) (A) (A) (A) (A) (A) (A) (A) (A) (A) (A) (A)
                 (A) (A) (A) (A) (A) (A) (A) (A) (A) (A) (A) (A)
                 (A) (A) (A) (A) (A) (A) (A) (A) (A) (A) (A) (A)
                 (A) (A) (A) (A) (A) (A) (A) (A) (A) (A) (A) (A)
                 (A) (A) (A) (A) (A) (A) (A) (A) (A) (A) (A) (A)
                 (A) (A) (A) (A) (A) (A) (A) (A) (A) (A) (A) (A)
                 (A) (A) (A) (A) (A) (A)
 The electronic state is 1-A.
 Alpha  occ. eigenvalues --  -19.23828 -14.49479 -14.49199 -14.46478 -14.46182
 Alpha  occ. eigenvalues --  -14.46109 -14.45857 -14.44429 -10.42076 -10.40741
 Alpha  occ. eigenvalues --  -10.38211 -10.36666 -10.36388 -10.36102 -10.35906
 Alpha  occ. eigenvalues --  -10.35610 -10.35339 -10.35139 -10.35048 -10.34904
 Alpha  occ. eigenvalues --  -10.34174 -10.34147 -10.34020 -10.32731 -10.32167
 Alpha  occ. eigenvalues --  -10.31945 -10.31860 -10.31464 -10.31426 -10.31343
 Alpha  occ. eigenvalues --  -10.31162 -10.31143 -10.30703 -10.30420 -10.30224
 Alpha  occ. eigenvalues --  -10.29956 -10.29187  -1.13868  -1.11585  -1.05349
 Alpha  occ. eigenvalues --   -1.03826  -1.03284  -1.03196  -1.00096  -0.99315
 Alpha  occ. eigenvalues --   -0.96241  -0.94636  -0.92349  -0.89337  -0.88161
 Alpha  occ. eigenvalues --   -0.87026  -0.86484  -0.85112  -0.83907  -0.83470
 Alpha  occ. eigenvalues --   -0.81845  -0.79526  -0.77831  -0.77774  -0.75991
 Alpha  occ. eigenvalues --   -0.73289  -0.72839  -0.72331  -0.71706  -0.70922
 Alpha  occ. eigenvalues --   -0.70276  -0.69606  -0.68192  -0.66482  -0.64690
 Alpha  occ. eigenvalues --   -0.63198  -0.62515  -0.61589  -0.60603  -0.60027
 Alpha  occ. eigenvalues --   -0.58554  -0.58284  -0.56861  -0.56796  -0.56147
 Alpha  occ. eigenvalues --   -0.55832  -0.55593  -0.54754  -0.54428  -0.53991
 Alpha  occ. eigenvalues --   -0.53524  -0.52614  -0.52350  -0.52129  -0.51749
 Alpha  occ. eigenvalues --   -0.51398  -0.51301  -0.51082  -0.50664  -0.50549
 Alpha  occ. eigenvalues --   -0.49991  -0.49946  -0.49507  -0.49467  -0.48350
 Alpha  occ. eigenvalues --   -0.47568  -0.46579  -0.46373  -0.46103  -0.46010
 Alpha  occ. eigenvalues --   -0.45450  -0.44786  -0.44139  -0.43938  -0.43535
 Alpha  occ. eigenvalues --   -0.43433  -0.43172  -0.42305  -0.41440  -0.40206
 Alpha  occ. eigenvalues --   -0.40191  -0.38119  -0.37577  -0.37220  -0.35364
 Alpha  occ. eigenvalues --   -0.35321  -0.35171  -0.34200  -0.33563  -0.33216
 Alpha  occ. eigenvalues --   -0.33180  -0.31736  -0.31033  -0.29610  -0.27550
 Alpha  occ. eigenvalues --   -0.25885
 Alpha virt. eigenvalues --   -0.00563   0.03045   0.04016   0.04642   0.05753
 Alpha virt. eigenvalues --    0.06740   0.07454   0.08089   0.09804   0.10208
 Alpha virt. eigenvalues --    0.12512   0.12900   0.13663   0.14753   0.15836
 Alpha virt. eigenvalues --    0.16017   0.17169   0.18709   0.18836   0.19258
 Alpha virt. eigenvalues --    0.19515   0.19973   0.20361   0.21164   0.21673
 Alpha virt. eigenvalues --    0.22744   0.22898   0.23253   0.23414   0.23949
 Alpha virt. eigenvalues --    0.24039   0.24318   0.24524   0.25172   0.25306
 Alpha virt. eigenvalues --    0.25434   0.25831   0.26388   0.26426   0.26697
 Alpha virt. eigenvalues --    0.27425   0.27799   0.28039   0.28442   0.28585
 Alpha virt. eigenvalues --    0.28991   0.29545   0.29609   0.30140   0.30834
 Alpha virt. eigenvalues --    0.31886   0.31992   0.32481   0.33219   0.33570
 Alpha virt. eigenvalues --    0.33940   0.34532   0.35574   0.36509   0.37244
 Alpha virt. eigenvalues --    0.37871   0.38300   0.38627   0.38922   0.39952
 Alpha virt. eigenvalues --    0.40148   0.40472   0.40907   0.41120   0.42038
 Alpha virt. eigenvalues --    0.43411   0.45066   0.45181   0.46198   0.46944
 Alpha virt. eigenvalues --    0.47879   0.49595   0.51001   0.52255   0.53784
 Alpha virt. eigenvalues --    0.55151   0.55574   0.56430   0.57233   0.58050
 Alpha virt. eigenvalues --    0.58441   0.58840   0.59260   0.59654   0.59877
 Alpha virt. eigenvalues --    0.59940   0.60715   0.61181   0.61536   0.62169
 Alpha virt. eigenvalues --    0.62214   0.63007   0.63084   0.63574   0.63807
 Alpha virt. eigenvalues --    0.64429   0.64730   0.64916   0.65184   0.65433
 Alpha virt. eigenvalues --    0.65441   0.65813   0.65972   0.66224   0.66575
 Alpha virt. eigenvalues --    0.66748   0.66977   0.67116   0.68219   0.68381
 Alpha virt. eigenvalues --    0.68604   0.69146   0.69577   0.69799   0.70125
 Alpha virt. eigenvalues --    0.70449   0.71023   0.71107   0.71236   0.71708
 Alpha virt. eigenvalues --    0.72046   0.72340   0.72673   0.72920   0.73238
 Alpha virt. eigenvalues --    0.74045   0.74532   0.74694   0.75792   0.76138
 Alpha virt. eigenvalues --    0.76804   0.77480   0.77838   0.79205   0.80389
 Alpha virt. eigenvalues --    0.81109   0.81333   0.81846   0.82052   0.82723
 Alpha virt. eigenvalues --    0.83112   0.83547   0.83768   0.84894   0.85382
 Alpha virt. eigenvalues --    0.86296   0.87054   0.87604   0.87807   0.88161
 Alpha virt. eigenvalues --    0.88670   0.89141   0.89491   0.90320   0.90947
 Alpha virt. eigenvalues --    0.91382   0.91471   0.91752   0.92112   0.92453
 Alpha virt. eigenvalues --    0.92715   0.92932   0.93569   0.93981   0.94073
 Alpha virt. eigenvalues --    0.94250   0.94628   0.94774   0.94914   0.95299
 Alpha virt. eigenvalues --    0.95974   0.96561   0.97063   0.97947   0.98068
 Alpha virt. eigenvalues --    0.98102   0.98443   0.99261   0.99622   1.00116
 Alpha virt. eigenvalues --    1.00364   1.00992   1.01321   1.01469   1.02001
 Alpha virt. eigenvalues --    1.02238   1.03032   1.03358   1.04136   1.05066
 Alpha virt. eigenvalues --    1.06121   1.06386   1.07397   1.07802   1.08250
[...]
                 (A) (A) (A) (A) (A) (A) (A) (A) (A) (A) (A) (A)
                 (A) (A) (A) (A) (A) (A) (A) (A) (A) (A) (A) (A)
                 (A) (A) (A) (A) (A) (A) (A) (A) (A) (A) (A) (A)
                 (A) (A) (A) (A) (A) (A) (A) (A) (A) (A) (A) (A)
                 (A) (A) (A) (A) (A) (A) (A) (A) (A) (A) (A) (A)
                 (A) (A) (A) (A) (A) (A) (A) (A) (A) (A) (A) (A)
                 (A) (A) (A) (A) (A) (A) (A) (A) (A) (A) (A) (A)
                 (A) (A) (A) (A) (A) (A) (A) (A) (A) (A) (A) (A)
                 (A) (A) (A) (A) (A) (A) (A) (A) (A) (A) (A) (A)
                 (A) (A) (A) (A) (A) (A) (A) (A) (A) (A) (A) (A)
                 (A) (A) (A) (A) (A) (A) (A) (A) (A) (A) (A) (A)
                 (A) (A) (A) (A) (A) (A) (A) (A) (A) (A) (A) (A)
                 (A) (A) (A) (A) (A) (A) (A) (A) (A) (A) (A) (A)
                 (A) (A) (A) (A) (A) (A) (A) (A) (A) (A) (A) (A)
                 (A) (A) (A) (A) (A) (A) (A) (A) (A) (A) (A) (A)
                 (A) (A) (A) (A) (A) (A) (A) (A) (A) (A) (A) (A)
                 (A) (A) (A) (A) (A) (A) (A) (A) (A) (A) (A) (A)
                 (A) (A) (A) (A) (A) (A) (A) (A) (A) (A) (A) (A)
                 (A) (A) (A) (A) (A) (A) (A) (A) (A) (A) (A) (A)
                 (A) (A) (A) (A) (A) (A) (A) (A) (A) (A) (A) (A)
                 (A) (A) (A) (A) (A) (A) (A) (A) (A) (A) (A) (A)
                 (A) (A) (A) (A) (A) (A) (A) (A) (A) (A) (A) (A)
                 (A) (A) (A) (A) (A) (A) (A) (A) (A) (A) (A) (A)
                 (A) (A) (A) (A) (A) (A) (A) (A) (A) (A) (A) (A)
                 (A) (A) (A) (A) (A) (A) (A) (A) (A) (A) (A) (A)
                 (A) (A) (A) (A) (A) (A) (A) (A) (A) (A) (A) (A)
                 (A) (A) (A) (A) (A) (A) (A) (A) (A) (A) (A) (A)
                 (A) (A) (A) (A) (A) (A) (A) (A) (A) (A) (A) (A)
                 (A) (A) (A) (A) (A) (A) (A) (A) (A) (A) (A) (A)
                 (A) (A) (A) (A) (A) (A) (A) (A) (A) (A) (A) (A)
                 (A) (A) (A) (A) (A) (A) (A) (A) (A) (A) (A) (A)
                 (A) (A) (A) (A) (A) (A)
 The electronic state is 1-A.
 Alpha  occ. eigenvalues --  -19.23347 -14.49257 -14.48457 -14.46728 -14.46087
 Alpha  occ. eigenvalues --  -14.45740 -14.43379 -14.42722 -10.41748 -10.40127
 Alpha  occ. eigenvalues --  -10.37599 -10.36338 -10.35289 -10.35028 -10.34637
 Alpha  occ. eigenvalues --  -10.34135 -10.34067 -10.33598 -10.32848 -10.32292
 Alpha  occ. eigenvalues --  -10.31856 -10.31037 -10.30995 -10.30955 -10.30710
 Alpha  occ. eigenvalues --  -10.30699 -10.30369 -10.30280 -10.30256 -10.30234
 Alpha  occ. eigenvalues --  -10.30232 -10.30117 -10.30111 -10.30032 -10.29533
 Alpha  occ. eigenvalues --  -10.28845 -10.28335  -1.13492  -1.12301  -1.06306
 Alpha  occ. eigenvalues --   -1.04558  -1.03603  -1.03554  -1.00718  -0.99258
 Alpha  occ. eigenvalues --   -0.96019  -0.94682  -0.93091  -0.89763  -0.88060
 Alpha  occ. eigenvalues --   -0.87362  -0.86238  -0.85108  -0.84471  -0.83761
 Alpha  occ. eigenvalues --   -0.81666  -0.79492  -0.78258  -0.77659  -0.76307
 Alpha  occ. eigenvalues --   -0.73858  -0.72955  -0.72947  -0.72599  -0.70813
 Alpha  occ. eigenvalues --   -0.70267  -0.69519  -0.67961  -0.66410  -0.65194
 Alpha  occ. eigenvalues --   -0.63616  -0.63256  -0.62260  -0.61800  -0.60198
 Alpha  occ. eigenvalues --   -0.58814  -0.57958  -0.57454  -0.56468  -0.56069
 Alpha  occ. eigenvalues --   -0.55802  -0.55145  -0.54950  -0.54631  -0.54225
 Alpha  occ. eigenvalues --   -0.53567  -0.53187  -0.52973  -0.52335  -0.52179
 Alpha  occ. eigenvalues --   -0.51854  -0.51496  -0.51333  -0.50900  -0.50593
 Alpha  occ. eigenvalues --   -0.50459  -0.50178  -0.49951  -0.49426  -0.48310
 Alpha  occ. eigenvalues --   -0.47275  -0.46728  -0.46452  -0.46285  -0.45988
 Alpha  occ. eigenvalues --   -0.45575  -0.44874  -0.44524  -0.43927  -0.43717
 Alpha  occ. eigenvalues --   -0.43438  -0.43047  -0.42064  -0.41691  -0.41204
 Alpha  occ. eigenvalues --   -0.40647  -0.40591  -0.39935  -0.38201  -0.37598
 Alpha  occ. eigenvalues --   -0.35782  -0.35283  -0.33996  -0.33446  -0.33339
 Alpha  occ. eigenvalues --   -0.32836  -0.31833  -0.30557  -0.29156  -0.27088
 Alpha  occ. eigenvalues --   -0.24671
 Alpha virt. eigenvalues --   -0.00298   0.02899   0.03362   0.04521   0.06516
 Alpha virt. eigenvalues --    0.07281   0.08338   0.10418   0.14541   0.14890
 Alpha virt. eigenvalues --    0.15956   0.16292   0.17361   0.17725   0.18683
 Alpha virt. eigenvalues --    0.19361   0.19722   0.20156   0.20582   0.21504
 Alpha virt. eigenvalues --    0.21981   0.22366   0.22424   0.22916   0.23321
 Alpha virt. eigenvalues --    0.23655   0.23831   0.24087   0.24517   0.24671
 Alpha virt. eigenvalues --    0.25003   0.25240   0.25956   0.26192   0.27003
 Alpha virt. eigenvalues --    0.27071   0.27384   0.27956   0.28075   0.28539
 Alpha virt. eigenvalues --    0.28747   0.29090   0.29468   0.29705   0.30182
 Alpha virt. eigenvalues --    0.31182   0.31221   0.32104   0.32261   0.32526
 Alpha virt. eigenvalues --    0.32740   0.33256   0.33638   0.34025   0.34343
 Alpha virt. eigenvalues --    0.34949   0.35070   0.36567   0.37936   0.38516
 Alpha virt. eigenvalues --    0.38574   0.38652   0.39486   0.40165   0.41058
 Alpha virt. eigenvalues --    0.41398   0.41619   0.41978   0.42175   0.42842
 Alpha virt. eigenvalues --    0.43579   0.44976   0.46059   0.47111   0.47485
 Alpha virt. eigenvalues --    0.48314   0.49566   0.52101   0.52920   0.54243
 Alpha virt. eigenvalues --    0.55850   0.56626   0.57569   0.58262   0.58623
 Alpha virt. eigenvalues --    0.59265   0.59418   0.60000   0.60795   0.61111
 Alpha virt. eigenvalues --    0.61378   0.61761   0.62111   0.62413   0.62714
 Alpha virt. eigenvalues --    0.63358   0.63395   0.64117   0.64238   0.64772
 Alpha virt. eigenvalues --    0.65030   0.65312   0.65434   0.65636   0.65835
 Alpha virt. eigenvalues --    0.65949   0.66463   0.66871   0.66957   0.67199
 Alpha virt. eigenvalues --    0.67415   0.67951   0.68579   0.68677   0.69554
 Alpha virt. eigenvalues --    0.69852   0.70554   0.70734   0.70832   0.71089
 Alpha virt. eigenvalues --    0.71452   0.71543   0.72518   0.72850   0.72998
 Alpha virt. eigenvalues --    0.73227   0.73280   0.73561   0.74928   0.75469
 Alpha virt. eigenvalues --    0.75659   0.75863   0.76052   0.76680   0.77316
 Alpha virt. eigenvalues --    0.77630   0.79202   0.80261   0.80550   0.81746
 Alpha virt. eigenvalues --    0.81927   0.82294   0.83167   0.83679   0.84191
 Alpha virt. eigenvalues --    0.84411   0.85430   0.86098   0.86921   0.87597
 Alpha virt. eigenvalues --    0.88178   0.88822   0.89606   0.90402   0.90696
 Alpha virt. eigenvalues --    0.90998   0.91225   0.91610   0.92237   0.92319
 Alpha virt. eigenvalues --    0.92624   0.92764   0.92887   0.93588   0.93940
 Alpha virt. eigenvalues --    0.94069   0.94412   0.94462   0.95021   0.95349
 Alpha virt. eigenvalues --    0.95613   0.96586   0.97178   0.97916   0.98147
 Alpha virt. eigenvalues --    0.98396   0.98535   0.98762   0.99154   0.99538
 Alpha virt. eigenvalues --    0.99934   1.00540   1.01065   1.01319   1.01668
 Alpha virt. eigenvalues --    1.02499   1.02774   1.03312   1.04210   1.04605
 Alpha virt. eigenvalues --    1.05440   1.05635   1.06791   1.06984   1.07423
 Alpha virt. eigenvalues --    1.07705   1.08223   1.08627   1.08869   1.09080
 Alpha virt. eigenvalues --    1.09215   1.09915   1.10383   1.11499   1.11950
 Alpha virt. eigenvalues --    1.12207   1.12491   1.14112   1.14765   1.16011
 Alpha virt. eigenvalues --    1.16480   1.17092   1.17197   1.17667   1.19104
 Alpha virt. eigenvalues --    1.19857   1.21707   1.22482   1.23652   1.24342
 Alpha virt. eigenvalues --    1.24562   1.25417   1.25926   1.27345   1.27614
 Alpha virt. eigenvalues --    1.28783   1.29186   1.29675   1.30352   1.31122
 Alpha virt. eigenvalues --    1.31617   1.32977   1.33716   1.33998   1.34625
 Alpha virt. eigenvalues --    1.35734   1.36885   1.37302   1.37962   1.38186
 Alpha virt. eigenvalues --    1.39348   1.42560   1.43129   1.43539   1.44552
 Alpha virt. eigenvalues --    1.46023   1.47076   1.47630   1.48384   1.48808
 Alpha virt. eigenvalues --    1.48977   1.49016   1.49258   1.50552   1.50978
 Alpha virt. eigenvalues --    1.52359   1.52680   1.53556   1.54128   1.54884
 Alpha virt. eigenvalues --    1.55089   1.55533   1.56265   1.56625   1.56638
 Alpha virt. eigenvalues --    1.57528   1.57693   1.58123   1.59017   1.59601
 Alpha virt. eigenvalues --    1.59846   1.59906   1.61345   1.61646   1.63046
 Alpha virt. eigenvalues --    1.63413   1.64701   1.65266   1.65469   1.67099
 Alpha virt. eigenvalues --    1.68298   1.69666   1.71862   1.74779   1.76086
 Alpha virt. eigenvalues --    1.78526   1.80470   1.81625   1.82640   1.84559
 Alpha virt. eigenvalues --    1.84903   1.85721   1.86498   1.86601   1.87572
 Alpha virt. eigenvalues --    1.87734   1.88758   1.89523   1.90477   1.90788
 Alpha virt. eigenvalues --    1.91317   1.92224   1.92662   1.93531   1.94460
 Alpha virt. eigenvalues --    1.94846   1.95022   1.95519   1.96786   1.97928
 Alpha virt. eigenvalues --    1.99197   1.99881   2.00408   2.00663   2.01003
 Alpha virt. eigenvalues --    2.01302   2.01752   2.01951   2.02955   2.03625
 Alpha virt. eigenvalues --    2.05086   2.06292   2.06995   2.07213   2.08259
 Alpha virt. eigenvalues --    2.08766   2.09002   2.09937   2.10705   2.11441
 Alpha virt. eigenvalues --    2.12251   2.12752   2.13634   2.13923   2.14844
 Alpha virt. eigenvalues --    2.15771   2.16387   2.17840   2.19562   2.20405
 Alpha virt. eigenvalues --    2.20884   2.21345   2.21786   2.22325   2.22678
 Alpha virt. eigenvalues --    2.23203   2.23792   2.24136   2.24438   2.25225
 Alpha virt. eigenvalues --    2.26006   2.26154   2.26832   2.27199   2.27942
 Alpha virt. eigenvalues --    2.28258   2.29279   2.29633   2.31533   2.32539
 Alpha virt. eigenvalues --    2.33944   2.34980   2.35974   2.36982   2.37398
 Alpha virt. eigenvalues --    2.37761   2.38001   2.38521   2.39797   2.39951
 Alpha virt. eigenvalues --    2.40400   2.41079   2.42072   2.42288   2.43354
 Alpha virt. eigenvalues --    2.43799   2.44241   2.44487   2.44897   2.45555
 Alpha virt. eigenvalues --    2.46250   2.47928   2.48844   2.48979   2.49700
 Alpha virt. eigenvalues --    2.50388   2.50581   2.52253   2.53801   2.56554
 Alpha virt. eigenvalues --    2.58601   2.60150   2.61244   2.61823   2.62615
 Alpha virt. eigenvalues --    2.64461   2.64761   2.65799   2.66356   2.67907
 Alpha virt. eigenvalues --    2.69191   2.69978   2.71578   2.72018   2.72457
 Alpha virt. eigenvalues --    2.73965   2.74491   2.75285   2.75929   2.76331
 Alpha virt. eigenvalues --    2.76969   2.77849   2.79371   2.81344   2.81694
 Alpha virt. eigenvalues --    2.82750   2.83168   2.83784   2.84510   2.85877
 Alpha virt. eigenvalues --    2.86146   2.86689   2.87456   2.88625   2.88939
 Alpha virt. eigenvalues --    2.89727   2.91761   2.92841   2.93523   2.94453
 Alpha virt. eigenvalues --    2.94825   2.96231   2.97923   3.01893   3.02916
 Alpha virt. eigenvalues --    3.04393   3.06708   3.08983   3.10052   3.11848
 Alpha virt. eigenvalues --    3.18881   3.27332   3.29296   3.39162   3.41493
 Alpha virt. eigenvalues --    3.44895   3.53696   3.56419   3.57639   4.12861
 Alpha virt. eigenvalues --    4.13479   4.15046   4.17320   4.18144   4.18498
 Alpha virt. eigenvalues --    4.19447   4.20645   4.22065   4.22906   4.25468
 Alpha virt. eigenvalues --    4.26204   4.27344   4.27636   4.30667   4.31823
 Alpha virt. eigenvalues --    4.33510   4.34300   4.36697   4.40199   4.40510
 Alpha virt. eigenvalues --    4.41729   4.44404   4.46300   4.48225   4.49277
 Alpha virt. eigenvalues --    4.49823   4.52910   4.56908   4.60657   4.61895
 Alpha virt. eigenvalues --    4.64068   4.68058   4.68792   4.79008   4.84810
 Alpha virt. eigenvalues --    4.89596
          Condensed to atoms (all electrons):
 Mulliken atomic charges:
              1
     1  C   -0.197808
     2  C   -0.155250
     3  C    0.035159
     4  C    0.006879
     5  N   -0.435291
     6  C    0.031074
     7  C    0.295675
     8  C   -0.255118
     9  C    0.048868
    10  N   -0.492956
    11  C    0.712320
    12  N   -0.567634
    13  N   -0.800114
    14  C    0.290132
    15  C    0.119868
    16  C   -0.240172
    17  C   -0.189964
    18  C    0.357191
    19  C   -0.267522
    20  N   -0.767312
    21  C    0.599500
    22  C    0.016441
    23  C   -0.176860
    24  C   -0.223304
    25  C    0.159716
    26  C   -0.228604
    27  C   -0.208139
    28  C   -0.262970
    29  N   -0.380698
    30  C   -0.186279
    31  C   -0.183433
    32  N   -0.383584
    33  C   -0.349531
    34  C   -0.182814
    35  C   -0.184782
    36  O   -0.516496
    37  C   -0.608196
    38  H    0.186486
    39  H    0.186328
    40  H    0.201314
    41  H    0.181245
    42  H    0.180748
    43  H    0.189376
    44  H    0.369159
    45  H    0.160911
    46  H    0.215625
    47  H    0.195945
    48  H    0.359671
    49  H    0.198342
    50  H    0.163886
    51  H    0.166906
    52  H    0.188296
    53  H    0.168950
    54  H    0.166644
    55  H    0.152161
    56  H    0.159075
    57  H    0.153100
    58  H    0.173789
    59  H    0.133788
    60  H    0.167294
    61  H    0.166562
    62  H    0.152231
    63  H    0.173954
    64  H    0.158556
    65  H    0.149558
    66  H    0.177714
    67  H    0.183638
    68  H    0.190757
 Sum of Mulliken atomic charges =   0.00000
 Mulliken charges with hydrogens summed into heavy atoms:
              1
     1  C   -0.011322
     2  C    0.031078
     3  C    0.035159
     4  C    0.208193
     5  N   -0.435291
     6  C    0.212319
     7  C    0.295675
     8  C   -0.074370
     9  C    0.238244
    10  N   -0.492956
    11  C    0.712320
    12  N   -0.567634
    13  N   -0.430955
    14  C    0.290132
    15  C    0.119868
    16  C   -0.079261
    17  C    0.025661
    18  C    0.357191
    19  C   -0.071576
    20  N   -0.407641
    21  C    0.599500
    22  C    0.016441
    23  C    0.021482
    24  C   -0.059418
    25  C    0.159716
    26  C   -0.061699
    27  C   -0.019843
    28  C    0.072624
    29  N   -0.380698
    30  C    0.124957
    31  C    0.143455
    32  N   -0.383584
    33  C    0.118114
    34  C    0.143370
    35  C    0.123332
    36  O   -0.516496
    37  C   -0.056087
 Sum of Mulliken charges with hydrogens summed into heavy atoms =   0.00000
 Electronic spatial extent (au):  <R**2>=          25099.7210
 Charge=              0.0000 electrons
 Dipole moment (field-independent basis, Debye):
    X=             -2.5383    Y=              6.1220    Z=             -1.0837  Tot=              6.7153
 Quadrupole moment (field-independent basis, Debye-Ang):
   XX=           -189.8083   YY=           -196.2273   ZZ=           -219.0774
   XY=             -6.1418   XZ=             -5.5385   YZ=             -1.6496
 Traceless Quadrupole moment (field-independent basis, Debye-Ang):
   XX=             11.8960   YY=              5.4771   ZZ=            -17.3731
   XY=             -6.1418   XZ=             -5.5385   YZ=             -1.6496
 Octapole moment (field-independent basis, Debye-Ang**2):
  XXX=            -41.9016  YYY=            146.4449  ZZZ=              3.1496  XYY=            -99.7098
  XXY=            -12.1212  XXZ=             27.3080  XZZ=             15.7410  YZZ=              0.4039
  YYZ=             -8.9970  XYZ=             35.9656
 Hexadecapole moment (field-independent basis, Debye-Ang**3):
 XXXX=         -23943.7385 YYYY=          -7062.4889 ZZZZ=          -1498.5869 XXXY=           -370.4976
 XXXZ=             36.4577 YYYX=           -144.6626 YYYZ=           -178.3616 ZZZX=              7.6131
 ZZZY=             26.0646 XXYY=          -4801.6819 XXZZ=          -4421.3376 YYZZ=          -1555.3810
 XXYZ=             90.3268 YYXZ=            -59.0599 ZZXY=             14.1767
 N-N= 3.775493268776D+03 E-N=-1.122277225972D+04  KE= 1.567147471973D+03
 No NMR shielding tensors so no spin-rotation constants.
 Leave Link  601 at Tue Mar 10 12:47:29 2020, MaxMem= 2684354560 cpu:       3.1
 (Enter /opt/g09gh/gaussian/g09/l9999.exe)
 1\1\GINC-NODE46\FOpt\RwB97XD\6-31G(d)\C29H31N7O1\BDW2292\10-Mar-2020\0
 \\#P opt=(,maxcycle=400) wB97XD/6-31G* MaxDisk=100GB\\MOLECULE0 Rotata
 ble Bond Optimization on g2-node38.bme.utexas.edu\\0,1\C,-4.9063867933
 ,-7.6423420481,-3.4914760661\C,-3.8431230149,-8.536802675,-3.507074201
 7\C,-2.7175841257,-8.2626172874,-2.7321165138\C,-2.7320394119,-7.08959
 91176,-1.9655903147\N,-3.7389263145,-6.2182803684,-1.9486551867\C,-4.8
 030734434,-6.4983916863,-2.7073115125\C,-1.5097213601,-9.1250326574,-2
 .723732541\C,-1.5158105852,-10.478462174,-3.0494754382\C,-0.2790200974
 ,-11.1216118656,-3.0155077381\N,0.8561742043,-10.5220109309,-2.6830292
 384\C,0.7462633323,-9.2164638883,-2.3634307447\N,-0.3788411634,-8.5032
 055048,-2.38192218\N,1.9190566414,-8.6149660575,-1.9988421824\C,2.1597
 697088,-7.3156415543,-1.5135802133\C,3.3803793101,-7.070418327,-0.8528
 397689\C,3.6006617199,-5.7889203145,-0.3571640966\C,2.6743768295,-4.75
 46791314,-0.4697495269\C,1.4785808264,-5.0184429514,-1.1326644369\C,1.
 2404937519,-6.2839161747,-1.6698065462\N,0.4363475413,-4.0896407724,-1
 .3032924159\C,0.2868423667,-2.8418086019,-0.7570662152\C,-1.0560040373
 ,-2.2177946987,-1.0175024463\C,-1.1279430155,-0.8238912134,-1.03185664
 64\C,-2.335889461,-0.1872711223,-1.2813469331\C,-3.5064869743,-0.92019
 12785,-1.4955866972\C,-3.4276482489,-2.3127558547,-1.4702435982\C,-2.2
 218541813,-2.9597699936,-1.2286946924\C,-4.8360638912,-0.2175366654,-1
 .7299586031\N,-5.6600964761,0.1047747228,-0.5777625371\C,-5.1832658408
 ,1.1517665305,0.3185075913\C,-4.3751744229,0.62383692,1.5162469503\N,-
 5.0689446519,-0.4290717779,2.2532562523\C,-6.1607284181,0.0541150523,3
 .0795870709\C,-5.448901972,-1.5031385385,1.3398917588\C,-6.2733982674,
 -1.0066585386,0.140053056\O,1.1584353053,-2.2617652609,-0.1298322913\C
 ,4.4089816841,-8.1583911027,-0.6758006263\H,-5.7935433591,-7.818233443
 4,-4.0902656421\H,-3.8804870804,-9.4204234424,-4.1377958166\H,-1.87906
 05619,-6.8598536945,-1.3325074304\H,-5.6097912917,-5.7693583017,-2.686
 8736474\H,-2.4208193344,-11.01806535,-3.299766894\H,-0.2012362345,-12.
 177751532,-3.2656277006\H,2.694431208,-9.2605417749,-1.985519488\H,4.5
 383706336,-5.587541336,0.1546237652\H,2.867118279,-3.7758878576,-0.054
 3128488\H,0.3151178778,-6.4812025111,-2.1898236712\H,-0.325368006,-4.4
 15727474,-1.87880306\H,-0.2215776514,-0.2549475451,-0.851827378\H,-2.3
 736935748,0.8994623869,-1.3095913482\H,-4.3204359543,-2.9121195154,-1.
 632400797\H,-2.2298341305,-4.0459536402,-1.1829191356\H,-4.6450600527,
 0.7219248559,-2.2636878849\H,-5.4456160604,-0.8386597942,-2.398601184\
 H,-4.5851664623,1.8665906381,-0.2581587348\H,-6.0599888002,1.702372953
 7,0.6912967289\H,-4.1465098971,1.4453931937,2.2058540672\H,-3.42188277
 42,0.2108307675,1.1663847687\H,-6.9993559979,0.522394008,2.5344880924\
 H,-5.7714939209,0.793580532,3.7879520787\H,-6.5675391936,-0.7820494998
 ,3.6589262262\H,-6.0157843382,-2.2584656966,1.8976349386\H,-4.52713812
 18,-1.9782084011,0.9849016308\H,-7.2602953617,-0.6751056376,0.49605500
 68\H,-6.4517656407,-1.8271786499,-0.564348562\H,4.7833364377,-8.537761
 8619,-1.6365550298\H,4.0093561232,-9.0125242277,-0.1139082642\H,5.2742
 791878,-7.7824892402,-0.124053316\\Version=EM64L-G09RevA.02\State=1-A\
 HF=-1581.7616341\RMSD=6.428e-09\RMSF=9.571e-06\Dipole=-1.3994111,-1.78
 21109,-1.3586661\Quadrupole=0.249253,10.3541702,-10.6034232,-1.8382487
 ,4.6362137,5.9502585\PG=C01 [X(C29H31N7O1)]\\@


 IT IS DOUBTED WHETHER A MAN EVER BRINGS HIS FACULTIES TO BEAR WITH THEIR FULL FORCE
 ON A SUBJECT UNTIL HE WRITES UPON IT.

                          -- CICERO
 Job cpu time:  0 days  7 hours 34 minutes 32.7 seconds.
 File lengths (MBytes):  RWF=    244 Int=      0 D2E=      0 Chk=     25 Scr=      1
 Normal termination of Gaussian 09 at Tue Mar 10 12:47:29 2020.
