
    -----------------------------------------------------------------------
          Psi4: An Open-Source Ab Initio Electronic Structure Package
                               Psi4 1.3.2 release

                         Git: Rev {HEAD} ecbda83 


    R. M. Parrish, L. A. Burns, D. G. A. Smith, A. C. Simmonett,
    A. E. DePrince III, E. G. Hohenstein, U. Bozkaya, A. Yu. Sokolov,
    R. Di Remigio, R. M. Richard, J. F. Gonthier, A. M. James,
    H. R. McAlexander, A. Kumar, M. Saitow, X. Wang, B. P. Pritchard,
    P. Verma, H. F. Schaefer III, K. Patkowski, R. A. King, E. F. Valeev,
    F. A. Evangelista, J. M. Turney, T. D. Crawford, and C. D. Sherrill,
    J. Chem. Theory Comput. 13(7) pp 3185--3197 (2017).
    (doi: 10.1021/acs.jctc.7b00174)


                         Additional Contributions by
    P. Kraus, H. Kruse, M. H. Lechner, M. C. Schieber, R. A. Shaw,
    A. Alenaizan, R. Galvelis, Z. L. Glick, S. Lehtola, and J. P. Misiewicz

    -----------------------------------------------------------------------


    Psi4 started on: Wednesday, 18 March 2020 02:07PM

    Process ID: 99147
    Host:       node46.bme.utexas.edu
    PSIDATADIR: /home/bdw2292/miniconda3/envs/p4env/share/psi4
    Memory:     500.0 MiB
    Threads:    1
    
  ==> Input File <==

--------------------------------------------------------------------------
molecule { 
0 1
 C    1.833202    5.233294   -0.924352
 C    3.102259    4.639751   -0.887768
 C    3.230745    3.263188   -0.612244
 C    2.018438    2.571490   -0.369689
 N    0.797918    3.121385   -0.393414
 C    0.715378    4.430625   -0.672342
 C    4.558735    2.548582   -0.544353
 C    5.814185    3.164174   -0.676081
 C    6.921930    2.323067   -0.531618
 N    6.846985    1.017131   -0.296140
 C    5.601445    0.503771   -0.208415
 N    4.478764    1.220273   -0.324137
 N    5.552122   -0.861732    0.032058
 C    4.485485   -1.812841    0.229243
 C    4.807685   -3.139160    0.651605
 C    3.738337   -4.028914    0.848103
 C    2.395929   -3.692503    0.642537
 C    2.097015   -2.397369    0.207216
 C    3.142404   -1.478998    0.013646
 N    0.786695   -1.899746   -0.081587
 C   -0.457111   -2.420759    0.187105
 C   -1.633263   -1.540808   -0.176231
 C   -1.749706   -0.224330    0.296368
 C   -2.822340    0.574405   -0.105890
 C   -3.815304    0.085766   -0.976752
 C   -3.697040   -1.245985   -1.419472
 C   -2.625433   -2.051317   -1.026966
 C   -4.996112    0.958862   -1.404030
 N   -6.229448    0.961473   -0.597654
 C   -6.192695    1.551832    0.760334
 C   -5.983892    0.540913    1.917513
 N   -6.909643   -0.615055    1.900353
 C   -8.241777   -0.396878    2.476343
 C   -6.865310   -1.232007    0.555345
 C   -7.092957   -0.241607   -0.615587
 O   -0.629855   -3.521771    0.682541
 C    6.226106   -3.618049    0.911792
 H    1.712420    6.291004   -1.139026
 H    3.966949    5.268404   -1.085152
 H    2.036768    1.517155   -0.119275
 H   -0.288673    4.851662   -0.686684
 H    5.957768    4.223913   -0.846736
 H    7.931575    2.726951   -0.602881
 H    6.492807   -1.216061    0.119008
 H    3.946125   -5.045996    1.178691
 H    1.601809   -4.411863    0.801153
 H    2.920463   -0.479854   -0.324951
 H    0.773126   -1.000733   -0.543641
 H   -0.982604    0.173466    0.956153
 H   -2.878725    1.597100    0.266769
 H   -4.449709   -1.667662   -2.085667
 H   -2.535997   -3.075552   -1.380030
 H   -4.650342    2.001688   -1.455440
 H   -5.286273    0.669970   -2.424892
 H   -5.476752    2.372585    0.802433
 H   -7.618085    2.183598    1.019062
 H   -6.087714    1.156927    3.066218
 H   -4.628482    0.006038    1.812876
 H   -8.811529    0.332128    1.888978
 H   -8.152667   -0.028032    3.504545
 H   -8.799617   -1.339895    2.506451
 H   -7.835447   -2.244678    0.484854
 H   -5.583913   -1.830910    0.406243
 H   -8.575125    0.263463   -0.444726
 H   -7.046051   -0.727738   -1.571404
 H    6.721207   -3.010473    1.682591
 H    6.840847   -3.563707    0.002407
 H    6.270830   -4.659814    1.258285
}
memory 20GB
set_num_threads(6)
psi4_io.set_default_path("/scratch/bdw2292")
set freeze_core True
E, wfn = energy('mp2/6-311++G**',return_wfn=True)
oeprop(wfn,"WIBERG_LOWDIN_INDICES")
clean()
--------------------------------------------------------------------------

  Memory set to  18.626 GiB by Python driver.
  Threads set to 6 by Python driver.
    SCF Algorithm Type (re)set to DF.

*** tstart() called on node46.bme.utexas.edu
*** at Wed Mar 18 14:07:09 2020

   => Loading Basis Set <=

    Name: 6-311++G**
    Role: ORBITAL
    Keyword: BASIS
    atoms 1-4, 6-9, 11, 14-19, 21-28, 30-31, 33-35, 37 entry C          line   119 file /home/bdw2292/miniconda3/envs/p4env/share/psi4/basis/6-311ppgss.gbs 
    atoms 5, 10, 12-13, 20, 29, 32                     entry N          line   140 file /home/bdw2292/miniconda3/envs/p4env/share/psi4/basis/6-311ppgss.gbs 
    atoms 36                                           entry O          line   161 file /home/bdw2292/miniconda3/envs/p4env/share/psi4/basis/6-311ppgss.gbs 
    atoms 38-68                                        entry H          line    42 file /home/bdw2292/miniconda3/envs/p4env/share/psi4/basis/6-311ppgss.gbs 


         ---------------------------------------------------------
                                   SCF
               by Justin Turney, Rob Parrish, Andy Simmonett
                          and Daniel G. A. Smith
                              RHF Reference
                        6 Threads,  19073 MiB Core
         ---------------------------------------------------------

  ==> Geometry <==

    Molecular point group: c1
    Full point group: C1

    Geometry (in Angstrom), charge = 0, multiplicity = 1:

       Center              X                  Y                   Z               Mass       
    ------------   -----------------  -----------------  -----------------  -----------------
         C            1.679494208505     5.191424143303    -0.932291634038    12.000000000000
         C            2.948551208505     4.597881143303    -0.895707634038    12.000000000000
         C            3.077037208505     3.221318143303    -0.620183634038    12.000000000000
         C            1.864730208505     2.529620143303    -0.377628634038    12.000000000000
         N            0.644210208505     3.079515143303    -0.401353634038    14.003074004430
         C            0.561670208505     4.388755143303    -0.680281634038    12.000000000000
         C            4.405027208505     2.506712143303    -0.552292634038    12.000000000000
         C            5.660477208505     3.122304143303    -0.684020634038    12.000000000000
         C            6.768222208505     2.281197143303    -0.539557634038    12.000000000000
         N            6.693277208505     0.975261143303    -0.304079634038    14.003074004430
         C            5.447737208505     0.461901143303    -0.216354634038    12.000000000000
         N            4.325056208505     1.178403143303    -0.332076634038    14.003074004430
         N            5.398414208505    -0.903601856697     0.024118365962    14.003074004430
         C            4.331777208505    -1.854710856697     0.221303365962    12.000000000000
         C            4.653977208505    -3.181029856697     0.643665365962    12.000000000000
         C            3.584629208505    -4.070783856697     0.840163365962    12.000000000000
         C            2.242221208505    -3.734372856697     0.634597365962    12.000000000000
         C            1.943307208505    -2.439238856697     0.199276365962    12.000000000000
         C            2.988696208505    -1.520867856697     0.005706365962    12.000000000000
         N            0.632987208505    -1.941615856697    -0.089526634038    14.003074004430
         C           -0.610818791495    -2.462628856697     0.179165365962    12.000000000000
         C           -1.786970791495    -1.582677856697    -0.184170634038    12.000000000000
         C           -1.903413791495    -0.266199856697     0.288428365962    12.000000000000
         C           -2.976047791495     0.532535143303    -0.113829634038    12.000000000000
         C           -3.969011791495     0.043896143303    -0.984691634038    12.000000000000
         C           -3.850747791495    -1.287854856697    -1.427411634038    12.000000000000
         C           -2.779140791495    -2.093186856697    -1.034905634038    12.000000000000
         C           -5.149819791495     0.916992143303    -1.411969634038    12.000000000000
         N           -6.383155791495     0.919603143303    -0.605593634038    14.003074004430
         C           -6.346402791495     1.509962143303     0.752394365962    12.000000000000
         C           -6.137599791495     0.499043143303     1.909573365962    12.000000000000
         N           -7.063350791495    -0.656924856697     1.892413365962    14.003074004430
         C           -8.395484791495    -0.438747856697     2.468403365962    12.000000000000
         C           -7.019017791495    -1.273876856697     0.547405365962    12.000000000000
         C           -7.246664791495    -0.283476856697    -0.623526634038    12.000000000000
         O           -0.783562791495    -3.563640856697     0.674601365962    15.994914619570
         C            6.072398208505    -3.659918856697     0.903852365962    12.000000000000
         H            1.558712208505     6.249134143303    -1.146965634038     1.007825032230
         H            3.813241208505     5.226534143303    -1.093091634038     1.007825032230
         H            1.883060208505     1.475285143303    -0.127214634038     1.007825032230
         H           -0.442380791495     4.809792143303    -0.694623634038     1.007825032230
         H            5.804060208505     4.182043143303    -0.854675634038     1.007825032230
         H            7.777867208505     2.685081143303    -0.610820634038     1.007825032230
         H            6.339099208505    -1.257930856697     0.111068365962     1.007825032230
         H            3.792417208505    -5.087865856697     1.170751365962     1.007825032230
         H            1.448101208505    -4.453732856697     0.793213365962     1.007825032230
         H            2.766755208505    -0.521723856697    -0.332890634038     1.007825032230
         H            0.619418208505    -1.042602856697    -0.551580634038     1.007825032230
         H           -1.136311791495     0.131596143303     0.948213365962     1.007825032230
         H           -3.032432791495     1.555230143303     0.258829365962     1.007825032230
         H           -4.603416791495    -1.709531856697    -2.093606634038     1.007825032230
         H           -2.689704791495    -3.117421856697    -1.387969634038     1.007825032230
         H           -4.804049791495     1.959818143303    -1.463379634038     1.007825032230
         H           -5.439980791495     0.628100143303    -2.432831634038     1.007825032230
         H           -5.630459791495     2.330715143303     0.794493365962     1.007825032230
         H           -7.771792791495     2.141728143303     1.011122365962     1.007825032230
         H           -6.241421791495     1.115057143303     3.058278365962     1.007825032230
         H           -4.782189791495    -0.035831856697     1.804936365962     1.007825032230
         H           -8.965236791495     0.290258143303     1.881038365962     1.007825032230
         H           -8.306374791495    -0.069901856697     3.496605365962     1.007825032230
         H           -8.953324791495    -1.381764856697     2.498511365962     1.007825032230
         H           -7.989154791495    -2.286547856697     0.476914365962     1.007825032230
         H           -5.737620791495    -1.872779856697     0.398303365962     1.007825032230
         H           -8.728832791495     0.221593143303    -0.452665634038     1.007825032230
         H           -7.199758791495    -0.769607856697    -1.579343634038     1.007825032230
         H            6.567499208505    -3.052342856697     1.674651365962     1.007825032230
         H            6.687139208505    -3.605576856697    -0.005532634038     1.007825032230
         H            6.117122208505    -4.701683856697     1.250345365962     1.007825032230

  Running in c1 symmetry.

  Rotational constants: A =      0.00499  B =      0.00153  C =      0.00122 [cm^-1]
  Rotational constants: A =    149.71231  B =     45.75941  C =     36.64181 [MHz]
  Nuclear repulsion = 3661.416317418397284

  Charge       = 0
  Multiplicity = 1
  Electrons    = 262
  Nalpha       = 131
  Nbeta        = 131

  ==> Algorithm <==

  SCF Algorithm Type is DF.
  DIIS enabled.
  MOM disabled.
  Fractional occupation disabled.
  Guess Type is SAD.
  Energy threshold   = 1.00e-08
  Density threshold  = 1.00e-08
  Integral threshold = 0.00e+00

  ==> Primary Basis <==

  Basis Set: 6-311++G**
    Blend: 6-311++G**
    Number of shells: 525
    Number of basis function: 1031
    Number of Cartesian functions: 1068
    Spherical Harmonics?: true
    Max angular momentum: 2

   => Loading Basis Set <=

    Name: (6-311++G** AUX)
    Role: JKFIT
    Keyword: DF_BASIS_SCF
    atoms 1-4, 6-9, 11, 14-19, 21-28, 30-31, 33-35, 37 entry C          line   162 file /home/bdw2292/miniconda3/envs/p4env/share/psi4/basis/aug-cc-pvtz-jkfit.gbs 
    atoms 5, 10, 12-13, 20, 29, 32                     entry N          line   224 file /home/bdw2292/miniconda3/envs/p4env/share/psi4/basis/aug-cc-pvtz-jkfit.gbs 
    atoms 36                                           entry O          line   286 file /home/bdw2292/miniconda3/envs/p4env/share/psi4/basis/aug-cc-pvtz-jkfit.gbs 
    atoms 38-68                                        entry H          line    70 file /home/bdw2292/miniconda3/envs/p4env/share/psi4/basis/aug-cc-pvtz-jkfit.gbs 

  ==> Pre-Iterations <==

   -------------------------------------------------------
    Irrep   Nso     Nmo     Nalpha   Nbeta   Ndocc  Nsocc
   -------------------------------------------------------
     A       1031    1031       0       0       0       0
   -------------------------------------------------------
    Total    1031    1031     131     131     131       0
   -------------------------------------------------------

  ==> Integral Setup <==

  ==> DiskDFJK: Density-Fitted J/K Matrices <==

    J tasked:                  Yes
    K tasked:                  Yes
    wK tasked:                  No
    OpenMP threads:              6
    Integrals threads:           6
    Memory [MiB]:            14305
    Algorithm:                Core
    Integral Cache:           NONE
    Schwarz Cutoff:          1E-12
    Fitting Condition:       1E-10

   => Auxiliary Basis Set <=

  Basis Set: (6-311++G** AUX)
    Blend: AUG-CC-PVTZ-JKFIT
    Number of shells: 1544
    Number of basis function: 5274
    Number of Cartesian functions: 6552
    Spherical Harmonics?: true
    Max angular momentum: 4

  Minimum eigenvalue in the overlap matrix is 1.1802862287E-07.
  Using Symmetric Orthogonalization.

  SCF Guess: Superposition of Atomic Densities via on-the-fly atomic UHF.

  ==> Iterations <==

                           Total Energy        Delta E     RMS |[F,P]|

   @DF-RHF iter SAD: -1571.09443793855189   -1.57109e+03   0.00000e+00 
   @DF-RHF iter   1: -1571.30997909072835   -2.15541e-01   1.21446e-03 DIIS
   @DF-RHF iter   2: -1572.07531506580926   -7.65336e-01   6.49085e-04 DIIS
   @DF-RHF iter   3: -1572.27407331784298   -1.98758e-01   1.68581e-04 DIIS
   @DF-RHF iter   4: -1572.29192965392076   -1.78563e-02   6.73815e-05 DIIS
   @DF-RHF iter   5: -1572.29468548630075   -2.75583e-03   1.37802e-05 DIIS
   @DF-RHF iter   6: -1572.29484801824037   -1.62532e-04   6.09157e-06 DIIS
   @DF-RHF iter   7: -1572.29488565534734   -3.76371e-05   2.02182e-06 DIIS
   @DF-RHF iter   8: -1572.29489150937889   -5.85403e-06   7.90817e-07 DIIS
   @DF-RHF iter   9: -1572.29489245317677   -9.43798e-07   3.17885e-07 DIIS
   @DF-RHF iter  10: -1572.29489263629239   -1.83116e-07   1.45813e-07 DIIS
   @DF-RHF iter  11: -1572.29489267372242   -3.74300e-08   6.80246e-08 DIIS
   @DF-RHF iter  12: -1572.29489268376346   -1.00410e-08   2.79017e-08 DIIS
   @DF-RHF iter  13: -1572.29489268565590   -1.89243e-09   1.15604e-08 DIIS
   @DF-RHF iter  14: -1572.29489268599741   -3.41515e-10   5.54559e-09 DIIS
  Energy and wave function converged.


  ==> Post-Iterations <==

    Orbital Energies [Eh]
    ---------------------

    Doubly Occupied:                                                      

       1A    -20.524579     2A    -15.604736     3A    -15.603970  
       4A    -15.585402     5A    -15.574385     6A    -15.572745  
       7A    -15.570904     8A    -15.556555     9A    -11.376492  
      10A    -11.365167    11A    -11.335187    12A    -11.317348  
      13A    -11.314172    14A    -11.313434    15A    -11.308804  
      16A    -11.306062    17A    -11.303363    18A    -11.300112  
      19A    -11.299706    20A    -11.293471    21A    -11.288701  
      22A    -11.280607    23A    -11.279961    24A    -11.264770  
      25A    -11.259223    26A    -11.257121    27A    -11.254268  
      28A    -11.252483    29A    -11.252365    30A    -11.248723  
      31A    -11.248620    32A    -11.248081    33A    -11.243396  
      34A    -11.240672    35A    -11.236280    36A    -11.232234  
      37A    -11.225526    38A     -1.389006    39A     -1.344796  
      40A     -1.277334    41A     -1.252980    42A     -1.246160  
      43A     -1.242376    44A     -1.209918    45A     -1.200659  
      46A     -1.164094    47A     -1.140660    48A     -1.115410  
      49A     -1.075613    50A     -1.061724    51A     -1.048331  
      52A     -1.038658    53A     -1.026284    54A     -1.008813  
      55A     -0.995264    56A     -0.977440    57A     -0.946880  
      58A     -0.927028    59A     -0.926129    60A     -0.901314  
      61A     -0.872362    62A     -0.867817    63A     -0.857678  
      64A     -0.843985    65A     -0.837522    66A     -0.829354  
      67A     -0.825720    68A     -0.806739    69A     -0.779791  
      70A     -0.754340    71A     -0.738701    72A     -0.732505  
      73A     -0.721957    74A     -0.699955    75A     -0.696800  
      76A     -0.683470    77A     -0.678749    78A     -0.667477  
      79A     -0.661138    80A     -0.657884    81A     -0.652756  
      82A     -0.647726    83A     -0.640130    84A     -0.629716  
      85A     -0.624078    86A     -0.620164    87A     -0.614013  
      88A     -0.607154    89A     -0.602683    90A     -0.601783  
      91A     -0.598107    92A     -0.596757    93A     -0.592545  
      94A     -0.587726    95A     -0.584437    96A     -0.581729  
      97A     -0.580157    98A     -0.570619    99A     -0.563154  
     100A     -0.560737   101A     -0.548984   102A     -0.543758  
     103A     -0.537744   104A     -0.527008   105A     -0.525118  
     106A     -0.521601   107A     -0.514040   108A     -0.511333  
     109A     -0.507560   110A     -0.500893   111A     -0.498545  
     112A     -0.492847   113A     -0.485527   114A     -0.481967  
     115A     -0.452262   116A     -0.451662   117A     -0.441000  
     118A     -0.430890   119A     -0.426888   120A     -0.422541  
     121A     -0.415076   122A     -0.399701   123A     -0.386836  
     124A     -0.379748   125A     -0.374393   126A     -0.346240  
     127A     -0.345946   128A     -0.343414   129A     -0.316313  
     130A     -0.309985   131A     -0.290631  

    Virtual:                                                              

     132A      0.026346   133A      0.034123   134A      0.040478  
     135A      0.041633   136A      0.044066   137A      0.046002  
     138A      0.050128   139A      0.053873   140A      0.057225  
     141A      0.061952   142A      0.063332   143A      0.065132  
     144A      0.067696   145A      0.068544   146A      0.071373  
     147A      0.074943   148A      0.077966   149A      0.080474  
     150A      0.082308   151A      0.086702   152A      0.087126  
     153A      0.089783   154A      0.092253   155A      0.094733  
     156A      0.097504   157A      0.098758   158A      0.101191  
     159A      0.102246   160A      0.106908   161A      0.109238  
     162A      0.111001   163A      0.112002   164A      0.113024  
     165A      0.115134   166A      0.116134   167A      0.119331  
     168A      0.121176   169A      0.124003   170A      0.126574  
     171A      0.131106   172A      0.136689   173A      0.140789  
     174A      0.143142   175A      0.145677   176A      0.147164  
     177A      0.147615   178A      0.148974   179A      0.151990  
     180A      0.154452   181A      0.157349   182A      0.158753  
     183A      0.159033   184A      0.162591   185A      0.164871  
     186A      0.166630   187A      0.166951   188A      0.167936  
     189A      0.170754   190A      0.172438   191A      0.174945  
     192A      0.177638   193A      0.178927   194A      0.180652  
     195A      0.181073   196A      0.182779   197A      0.184430  
     198A      0.185386   199A      0.188583   200A      0.191509  
     201A      0.192206   202A      0.194970   203A      0.196554  
     204A      0.198453   205A      0.199712   206A      0.201023  
     207A      0.201802   208A      0.204127   209A      0.207911  
     210A      0.208731   211A      0.209307   212A      0.209881  
     213A      0.211524   214A      0.214860   215A      0.216533  
     216A      0.217619   217A      0.219226   218A      0.221330  
     219A      0.222403   220A      0.225063   221A      0.225469  
     222A      0.228202   223A      0.230035   224A      0.233479  
     225A      0.233608   226A      0.236436   227A      0.237410  
     228A      0.239292   229A      0.240634   230A      0.243573  
     231A      0.245334   232A      0.249073   233A      0.249846  
     234A      0.252873   235A      0.253537   236A      0.256857  
     237A      0.259602   238A      0.260577   239A      0.262223  
     240A      0.265840   241A      0.267865   242A      0.269490  
     243A      0.273584   244A      0.275389   245A      0.277673  
     246A      0.280666   247A      0.281866   248A      0.283126  
     249A      0.283637   250A      0.287503   251A      0.289801  
     252A      0.292844   253A      0.294988   254A      0.296783  
     255A      0.299247   256A      0.299958   257A      0.307223  
     258A      0.308203   259A      0.310235   260A      0.314377  
     261A      0.315973   262A      0.318745   263A      0.318977  
     264A      0.322333   265A      0.324025   266A      0.326519  
     267A      0.329162   268A      0.330762   269A      0.335523  
     270A      0.336636   271A      0.337303   272A      0.338129  
     273A      0.342147   274A      0.344009   275A      0.344987  
     276A      0.348197   277A      0.348927   278A      0.350531  
     279A      0.353233   280A      0.355222   281A      0.357136  
     282A      0.361663   283A      0.363451   284A      0.365298  
     285A      0.367208   286A      0.368242   287A      0.369854  
     288A      0.371792   289A      0.372471   290A      0.372678  
     291A      0.374931   292A      0.376704   293A      0.378327  
     294A      0.381138   295A      0.381970   296A      0.384882  
     297A      0.386263   298A      0.388533   299A      0.391663  
     300A      0.393647   301A      0.394337   302A      0.395167  
     303A      0.396765   304A      0.397800   305A      0.400055  
     306A      0.403111   307A      0.406052   308A      0.406768  
     309A      0.408708   310A      0.411515   311A      0.414034  
     312A      0.415422   313A      0.416412   314A      0.418539  
     315A      0.420373   316A      0.421321   317A      0.422679  
     318A      0.424839   319A      0.426929   320A      0.429317  
     321A      0.431952   322A      0.434573   323A      0.436938  
     324A      0.438556   325A      0.441657   326A      0.443195  
     327A      0.446079   328A      0.448021   329A      0.449972  
     330A      0.451518   331A      0.452937   332A      0.457723  
     333A      0.458400   334A      0.460231   335A      0.460923  
     336A      0.466746   337A      0.467743   338A      0.470201  
     339A      0.472436   340A      0.474109   341A      0.476973  
     342A      0.480610   343A      0.484219   344A      0.487368  
     345A      0.489962   346A      0.492145   347A      0.493140  
     348A      0.495262   349A      0.499933   350A      0.501179  
     351A      0.504542   352A      0.505972   353A      0.507443  
     354A      0.515022   355A      0.517301   356A      0.518551  
     357A      0.520247   358A      0.522681   359A      0.526314  
     360A      0.529140   361A      0.534016   362A      0.534727  
     363A      0.537709   364A      0.540554   365A      0.543577  
     366A      0.544458   367A      0.549888   368A      0.557086  
     369A      0.562693   370A      0.566895   371A      0.571911  
     372A      0.573758   373A      0.581397   374A      0.585302  
     375A      0.589577   376A      0.597060   377A      0.603681  
     378A      0.605631   379A      0.610046   380A      0.613020  
     381A      0.615501   382A      0.620111   383A      0.625100  
     384A      0.626028   385A      0.635070   386A      0.642464  
     387A      0.654049   388A      0.657997   389A      0.666994  
     390A      0.687395   391A      0.688188   392A      0.694887  
     393A      0.702084   394A      0.703952   395A      0.709902  
     396A      0.714270   397A      0.720516   398A      0.723344  
     399A      0.727819   400A      0.732891   401A      0.739350  
     402A      0.739547   403A      0.744986   404A      0.748427  
     405A      0.750656   406A      0.753696   407A      0.757288  
     408A      0.763936   409A      0.765765   410A      0.768259  
     411A      0.769868   412A      0.772254   413A      0.782497  
     414A      0.784683   415A      0.789716   416A      0.791442  
     417A      0.794853   418A      0.796479   419A      0.802592  
     420A      0.806886   421A      0.807401   422A      0.813380  
     423A      0.813616   424A      0.815790   425A      0.820955  
     426A      0.824984   427A      0.825891   428A      0.828183  
     429A      0.836308   430A      0.843477   431A      0.844651  
     432A      0.846153   433A      0.852202   434A      0.855953  
     435A      0.860140   436A      0.864819   437A      0.867273  
     438A      0.869549   439A      0.870798   440A      0.873285  
     441A      0.877823   442A      0.882579   443A      0.885790  
     444A      0.889805   445A      0.890222   446A      0.894447  
     447A      0.896091   448A      0.897072   449A      0.899926  
     450A      0.911024   451A      0.912824   452A      0.913999  
     453A      0.916165   454A      0.920474   455A      0.926632  
     456A      0.928899   457A      0.929642   458A      0.933694  
     459A      0.935875   460A      0.938900   461A      0.940569  
     462A      0.942990   463A      0.946278   464A      0.952175  
     465A      0.955405   466A      0.958373   467A      0.963489  
     468A      0.966802   469A      0.969650   470A      0.972343  
     471A      0.975464   472A      0.978256   473A      0.981611  
     474A      0.986241   475A      0.988717   476A      0.992716  
     477A      0.995792   478A      0.996524   479A      1.004277  
     480A      1.008792   481A      1.013527   482A      1.016243  
     483A      1.020610   484A      1.027020   485A      1.030855  
     486A      1.036024   487A      1.039794   488A      1.040588  
     489A      1.047936   490A      1.051505   491A      1.057072  
     492A      1.059516   493A      1.063106   494A      1.070400  
     495A      1.071037   496A      1.076769   497A      1.080720  
     498A      1.087366   499A      1.088921   500A      1.094719  
     501A      1.098081   502A      1.100466   503A      1.105241  
     504A      1.110703   505A      1.114890   506A      1.119368  
     507A      1.132875   508A      1.133499   509A      1.138747  
     510A      1.138950   511A      1.142842   512A      1.150323  
     513A      1.152881   514A      1.156484   515A      1.161577  
     516A      1.162021   517A      1.164927   518A      1.171195  
     519A      1.173628   520A      1.177427   521A      1.184639  
     522A      1.186041   523A      1.187672   524A      1.192332  
     525A      1.196256   526A      1.197916   527A      1.203529  
     528A      1.210735   529A      1.213552   530A      1.220566  
     531A      1.224309   532A      1.227221   533A      1.231065  
     534A      1.236408   535A      1.238367   536A      1.241000  
     537A      1.246698   538A      1.250317   539A      1.253223  
     540A      1.255785   541A      1.257699   542A      1.261985  
     543A      1.263154   544A      1.268909   545A      1.276026  
     546A      1.277290   547A      1.279327   548A      1.287066  
     549A      1.287788   550A      1.293280   551A      1.299176  
     552A      1.305716   553A      1.317514   554A      1.321421  
     555A      1.325390   556A      1.331784   557A      1.335075  
     558A      1.339621   559A      1.339969   560A      1.347944  
     561A      1.356775   562A      1.361978   563A      1.372290  
     564A      1.378242   565A      1.381999   566A      1.392229  
     567A      1.397592   568A      1.406319   569A      1.409474  
     570A      1.412237   571A      1.414164   572A      1.428901  
     573A      1.441335   574A      1.449865   575A      1.453580  
     576A      1.455289   577A      1.457481   578A      1.467415  
     579A      1.469953   580A      1.479776   581A      1.490201  
     582A      1.494401   583A      1.503718   584A      1.510541  
     585A      1.520742   586A      1.530797   587A      1.538496  
     588A      1.542241   589A      1.548159   590A      1.561740  
     591A      1.570532   592A      1.576945   593A      1.587691  
     594A      1.596013   595A      1.602065   596A      1.607917  
     597A      1.618294   598A      1.625213   599A      1.630463  
     600A      1.635736   601A      1.649149   602A      1.663928  
     603A      1.676636   604A      1.683338   605A      1.687947  
     606A      1.694747   607A      1.705003   608A      1.709780  
     609A      1.720667   610A      1.724475   611A      1.732143  
     612A      1.741646   613A      1.750360   614A      1.750836  
     615A      1.757625   616A      1.763978   617A      1.769773  
     618A      1.778478   619A      1.783388   620A      1.788820  
     621A      1.789751   622A      1.793786   623A      1.796495  
     624A      1.803513   625A      1.804998   626A      1.811126  
     627A      1.815744   628A      1.820350   629A      1.821014  
     630A      1.825262   631A      1.830235   632A      1.832914  
     633A      1.838422   634A      1.840142   635A      1.845160  
     636A      1.847369   637A      1.851691   638A      1.852982  
     639A      1.856349   640A      1.863030   641A      1.864766  
     642A      1.866658   643A      1.872419   644A      1.877124  
     645A      1.881770   646A      1.895628   647A      1.898650  
     648A      1.904577   649A      1.909975   650A      1.921324  
     651A      1.922462   652A      1.929552   653A      1.932580  
     654A      1.938255   655A      1.946310   656A      1.949026  
     657A      1.952427   658A      1.959767   659A      1.962441  
     660A      1.963427   661A      1.967674   662A      1.970111  
     663A      1.977642   664A      1.986720   665A      1.987879  
     666A      1.992544   667A      1.994069   668A      1.997457  
     669A      2.003736   670A      2.006116   671A      2.009298  
     672A      2.011603   673A      2.024435   674A      2.024782  
     675A      2.028632   676A      2.037299   677A      2.043843  
     678A      2.047407   679A      2.049401   680A      2.055144  
     681A      2.059772   682A      2.065997   683A      2.068224  
     684A      2.072098   685A      2.080677   686A      2.083281  
     687A      2.091474   688A      2.093168   689A      2.104542  
     690A      2.107174   691A      2.112278   692A      2.120562  
     693A      2.122566   694A      2.139575   695A      2.146374  
     696A      2.149635   697A      2.158812   698A      2.164678  
     699A      2.170575   700A      2.173936   701A      2.180312  
     702A      2.182982   703A      2.188659   704A      2.193785  
     705A      2.199062   706A      2.201814   707A      2.215729  
     708A      2.226416   709A      2.227602   710A      2.235035  
     711A      2.239357   712A      2.244253   713A      2.245201  
     714A      2.252774   715A      2.252959   716A      2.258260  
     717A      2.263090   718A      2.268941   719A      2.270505  
     720A      2.274794   721A      2.278771   722A      2.284321  
     723A      2.291637   724A      2.293833   725A      2.298664  
     726A      2.305820   727A      2.307395   728A      2.312756  
     729A      2.319739   730A      2.329809   731A      2.334244  
     732A      2.340284   733A      2.340942   734A      2.348298  
     735A      2.355277   736A      2.365524   737A      2.374436  
     738A      2.381754   739A      2.389011   740A      2.391366  
     741A      2.403025   742A      2.405751   743A      2.412417  
     744A      2.422607   745A      2.425426   746A      2.431470  
     747A      2.438635   748A      2.444035   749A      2.449254  
     750A      2.453184   751A      2.459471   752A      2.476950  
     753A      2.490764   754A      2.493609   755A      2.508557  
     756A      2.516372   757A      2.523002   758A      2.532046  
     759A      2.535113   760A      2.544898   761A      2.549719  
     762A      2.567219   763A      2.567984   764A      2.572731  
     765A      2.576908   766A      2.586624   767A      2.598500  
     768A      2.618516   769A      2.629383   770A      2.638395  
     771A      2.649612   772A      2.651679   773A      2.657119  
     774A      2.663970   775A      2.677178   776A      2.696268  
     777A      2.698328   778A      2.705402   779A      2.720080  
     780A      2.723759   781A      2.731727   782A      2.744663  
     783A      2.752449   784A      2.774899   785A      2.776639  
     786A      2.790162   787A      2.798334   788A      2.810921  
     789A      2.814180   790A      2.818692   791A      2.825977  
     792A      2.829520   793A      2.830689   794A      2.846857  
     795A      2.847982   796A      2.859284   797A      2.865715  
     798A      2.873468   799A      2.881745   800A      2.891771  
     801A      2.895023   802A      2.904513   803A      2.909068  
     804A      2.913691   805A      2.937450   806A      2.939290  
     807A      2.943624   808A      2.944108   809A      2.956096  
     810A      2.966437   811A      2.970218   812A      2.973366  
     813A      2.975508   814A      2.979915   815A      2.991432  
     816A      2.996345   817A      3.001120   818A      3.004098  
     819A      3.009815   820A      3.018133   821A      3.022318  
     822A      3.031975   823A      3.040644   824A      3.045110  
     825A      3.049130   826A      3.052939   827A      3.054324  
     828A      3.061159   829A      3.072007   830A      3.073035  
     831A      3.078201   832A      3.081658   833A      3.088126  
     834A      3.091523   835A      3.095965   836A      3.104517  
     837A      3.107511   838A      3.109375   839A      3.117396  
     840A      3.123864   841A      3.124710   842A      3.128864  
     843A      3.131866   844A      3.133051   845A      3.142798  
     846A      3.154090   847A      3.161331   848A      3.172244  
     849A      3.178017   850A      3.186624   851A      3.193422  
     852A      3.197971   853A      3.203377   854A      3.209656  
     855A      3.215904   856A      3.222155   857A      3.231893  
     858A      3.236863   859A      3.240869   860A      3.246093  
     861A      3.248516   862A      3.265343   863A      3.274849  
     864A      3.276639   865A      3.284620   866A      3.295247  
     867A      3.295577   868A      3.299664   869A      3.307910  
     870A      3.309805   871A      3.318726   872A      3.321456  
     873A      3.323420   874A      3.329825   875A      3.332219  
     876A      3.335044   877A      3.342507   878A      3.351183  
     879A      3.353806   880A      3.359142   881A      3.361310  
     882A      3.364423   883A      3.374881   884A      3.380838  
     885A      3.385581   886A      3.394365   887A      3.398469  
     888A      3.408327   889A      3.417506   890A      3.422639  
     891A      3.433898   892A      3.458245   893A      3.471580  
     894A      3.509669   895A      3.515582   896A      3.525885  
     897A      3.556625   898A      3.579560   899A      3.599009  
     900A      3.609163   901A      3.614006   902A      3.629448  
     903A      3.633941   904A      3.651981   905A      3.656919  
     906A      3.671636   907A      3.678529   908A      3.682578  
     909A      3.716450   910A      3.763327   911A      3.774177  
     912A      3.776789   913A      3.784330   914A      3.801949  
     915A      3.812604   916A      3.817126   917A      3.829471  
     918A      3.859269   919A      3.866350   920A      3.875998  
     921A      3.887078   922A      3.895085   923A      3.904493  
     924A      3.923222   925A      3.926338   926A      3.936809  
     927A      3.955120   928A      3.961309   929A      3.976113  
     930A      3.991349   931A      4.008616   932A      4.010007  
     933A      4.052553   934A      4.059980   935A      4.073479  
     936A      4.085665   937A      4.089417   938A      4.100148  
     939A      4.127356   940A      4.129561   941A      4.143702  
     942A      4.165394   943A      4.182455   944A      4.185592  
     945A      4.191523   946A      4.199365   947A      4.204945  
     948A      4.207395   949A      4.258113   950A      4.305449  
     951A      4.354331   952A      4.362569   953A      4.385707  
     954A      4.402377   955A      4.410873   956A      4.415002  
     957A      4.417931   958A      4.423472   959A      4.428119  
     960A      4.440671   961A      4.449830   962A      4.452547  
     963A      4.519741   964A      4.543690   965A      4.552897  
     966A      4.576710   967A      4.581288   968A      4.600715  
     969A      4.625728   970A      4.659033   971A      4.706001  
     972A      4.765623   973A      4.770439   974A      4.782397  
     975A      4.908276   976A      4.937625   977A      5.010165  
     978A      5.043963   979A      5.221122   980A      5.247626  
     981A      5.265747   982A      5.280887   983A      5.295401  
     984A      5.333265   985A      5.346998   986A      5.380710  
     987A      5.419113   988A      5.594814   989A      5.690212  
     990A      5.705417   991A      5.802371   992A      5.858414  
     993A      5.877746   994A      6.385846   995A     24.749860  
     996A     24.775717   997A     24.819576   998A     24.822971  
     999A     24.842065  1000A     24.928059  1001A     24.936578  
    1002A     25.002057  1003A     25.013811  1004A     25.021747  
    1005A     25.041684  1006A     25.069085  1007A     25.069765  
    1008A     25.093176  1009A     25.102051  1010A     25.120467  
    1011A     25.121440  1012A     25.130434  1013A     25.137544  
    1014A     25.154617  1015A     25.171709  1016A     25.204068  
    1017A     25.210996  1018A     25.236942  1019A     25.242324  
    1020A     25.247836  1021A     25.252290  1022A     25.321117  
    1023A     25.328475  1024A     36.945554  1025A     36.981356  
    1026A     37.024583  1027A     37.064897  1028A     37.075855  
    1029A     37.131436  1030A     37.153406  1031A     51.755315  

    Final Occupation by Irrep:
              A 
    DOCC [   131 ]

  @DF-RHF Final Energy: -1572.29489268599741

   => Energetics <=

    Nuclear Repulsion Energy =           3661.4163174183972842
    One-Electron Energy =               -9420.9082854341031634
    Two-Electron Energy =                4187.1970753297082410
    Total Energy =                      -1572.2948926859971834

Computation Completed


Properties will be evaluated at   0.000000,   0.000000,   0.000000 [a0]

Properties computed using the SCF density matrix

  Nuclear Dipole Moment: [e a0]
     X:   -44.3396      Y:     0.0081      Z:     6.3776

  Electronic Dipole Moment: [e a0]
     X:    45.8560      Y:     2.4496      Z:    -7.3656

  Dipole Moment: [e a0]
     X:     1.5164      Y:     2.4577      Z:    -0.9880     Total:     3.0522

  Dipole Moment: [D]
     X:     3.8543      Y:     6.2469      Z:    -2.5113     Total:     7.7580


*** tstop() called on node46.bme.utexas.edu at Wed Mar 18 14:56:08 2020
Module time:
	user time   =    4686.82 seconds =      78.11 minutes
	system time =     103.54 seconds =       1.73 minutes
	total time  =       2939 seconds =      48.98 minutes
Total time:
	user time   =    4686.82 seconds =      78.11 minutes
	system time =     103.54 seconds =       1.73 minutes
	total time  =       2939 seconds =      48.98 minutes

*** tstart() called on node46.bme.utexas.edu
*** at Wed Mar 18 14:56:08 2020


  //>>>>>>>>>>>>>>>>>>>>>>>>>>>>>>>>>>>//
  //               DFMP2               //
  //<<<<<<<<<<<<<<<<<<<<<<<<<<<<<<<<<<<//

   => Loading Basis Set <=

    Name: (6-311++G** AUX)
    Role: RIFIT
    Keyword: DF_BASIS_MP2
    atoms 1-4, 6-9, 11, 14-19, 21-28, 30-31, 33-35, 37 entry C          line   148 file /home/bdw2292/miniconda3/envs/p4env/share/psi4/basis/aug-cc-pvtz-ri.gbs 
    atoms 5, 10, 12-13, 20, 29, 32                     entry N          line   206 file /home/bdw2292/miniconda3/envs/p4env/share/psi4/basis/aug-cc-pvtz-ri.gbs 
    atoms 36                                           entry O          line   264 file /home/bdw2292/miniconda3/envs/p4env/share/psi4/basis/aug-cc-pvtz-ri.gbs 
    atoms 38-68                                        entry H          line    30 file /home/bdw2292/miniconda3/envs/p4env/share/psi4/basis/aug-cc-pvtz-ri.gbs 

	 --------------------------------------------------------
	                          DF-MP2                         
	      2nd-Order Density-Fitted Moller-Plesset Theory     
	              RMP2 Wavefunction,   6 Threads             
	                                                         
	        Rob Parrish, Justin Turney, Andy Simmonett,      
	           Ed Hohenstein, and C. David Sherrill          
	 --------------------------------------------------------

   => Auxiliary Basis Set <=

  Basis Set: (6-311++G** AUX)
    Blend: AUG-CC-PVTZ-RI
    Number of shells: 1470
    Number of basis function: 5348
    Number of Cartesian functions: 6737
    Spherical Harmonics?: true
    Max angular momentum: 4

	 --------------------------------------------------------
	                 NBF =  1031, NAUX =  5348
	 --------------------------------------------------------
	   CLASS    FOCC     OCC    AOCC    AVIR     VIR    FVIR
	   PAIRS      37     131      94     900     900       0
	 --------------------------------------------------------

	-----------------------------------------------------------
	 ==================> DF-MP2 Energies <==================== 
	-----------------------------------------------------------
	 Reference Energy          =   -1572.2948926859974108 [Eh]
	 Singles Energy            =      -0.0000000000000000 [Eh]
	 Same-Spin Energy          =      -1.4710638990689513 [Eh]
	 Opposite-Spin Energy      =      -4.0516306065399164 [Eh]
	 Correlation Energy        =      -5.5226945056088681 [Eh]
	 Total Energy              =   -1577.8175871916062079 [Eh]
	-----------------------------------------------------------
	 ================> DF-SCS-MP2 Energies <================== 
	-----------------------------------------------------------
	 SCS Same-Spin Scale       =       0.3333333333333333 [-]
	 SCS Opposite-Spin Scale   =       1.2000000000000000 [-]
	 SCS Same-Spin Energy      =      -0.4903546330229838 [Eh]
	 SCS Opposite-Spin Energy  =      -4.8619567278478995 [Eh]
	 SCS Correlation Energy    =      -5.3523113608708837 [Eh]
	 SCS Total Energy          =   -1577.6472040468681826 [Eh]
	-----------------------------------------------------------


*** tstop() called on node46.bme.utexas.edu at Wed Mar 18 15:22:30 2020
Module time:
	user time   =    2751.51 seconds =      45.86 minutes
	system time =      26.53 seconds =       0.44 minutes
	total time  =       1582 seconds =      26.37 minutes
Total time:
	user time   =    7438.33 seconds =     123.97 minutes
	system time =     130.07 seconds =       2.17 minutes
	total time  =       4521 seconds =      75.35 minutes


Properties will be evaluated at   0.000000,   0.000000,   0.000000 [a0]
OEProp: No title given, name of density matrix used for the following properties is 'SCF density'


  Wiberg Bond Indices using Orthogonal Lowdin Orbitals:

  Irrep: 1 Size: 68 x 68

                 1                   2                   3                   4                   5

    1     0.00000000000000     1.46619146188278     0.12478625848959     0.14050062463333     0.12421163992180
    2     1.46619146188278     0.00000000000000     1.39984995523281     0.12848521986247     0.12211459972370
    3     0.12478625848959     1.39984995523281     0.00000000000000     1.36282268509612     0.11922152172981
    4     0.14050062463333     0.12848521986247     1.36282268509612     0.00000000000000     1.66558721836732
    5     0.12421163992180     0.12211459972370     0.11922152172981     1.66558721836732     0.00000000000000
    6     1.46510556109297     0.13820496570644     0.13567683344781     0.15382649205693     1.63177595577282
    7     0.01462452651273     0.10304573307466     1.02090750051125     0.10333471762361     0.01389183476290
    8     0.00363908520157     0.04215312129174     0.09831221576522     0.02396945993904     0.00219827938118
    9     0.00037048231829     0.00480694381539     0.01483448618793     0.00413252569053     0.00069395735340
   10     0.00040868434574     0.00539032263753     0.00576177949996     0.00607290975759     0.00032360635814
   11     0.00088358053222     0.00334725106621     0.01805336509036     0.00672598869229     0.00041964252249
   12     0.00276968165632     0.02196049158260     0.11876707765810     0.06107727237679     0.00396528737051
   13     0.00017013970568     0.00047754256897     0.00161788745720     0.00090383955747     0.00008623144780
   14     0.00003042102586     0.00009067624412     0.00051718095644     0.00106778699073     0.00009313788953
   15     0.00001074308224     0.00002248389764     0.00006137918101     0.00013971220810     0.00001434233681
   16     0.00000195469718     0.00000445794719     0.00003184630027     0.00017845497437     0.00001001677161
   17     0.00001214131885     0.00001831804790     0.00004747311813     0.00025403562869     0.00003006952200
   18     0.00001854922803     0.00004491938707     0.00024039519648     0.00137039781727     0.00015543177803
   19     0.00013158223957     0.00023573172202     0.00178149205095     0.00985556576062     0.00053862866739
   20     0.00003104027738     0.00005501294876     0.00025261505833     0.00231152012298     0.00035024734386
   21     0.00000865351950     0.00000982139406     0.00003761819629     0.00028842397340     0.00008578307789
   22     0.00003772272786     0.00002415049455     0.00002493943820     0.00039120871913     0.00064437814972
   23     0.00024541677269     0.00014056193201     0.00016866676202     0.00273358695826     0.00870485603949
   24     0.00012827867503     0.00009899718554     0.00015075447139     0.00100943031595     0.00715056501785
   25     0.00001466307935     0.00001502635224     0.00001679817414     0.00007057304693     0.00035797010394
   26     0.00000668873397     0.00000385415793     0.00001299033011     0.00028325176248     0.00057469551834
   27     0.00000784039606     0.00000516313709     0.00001222800593     0.00017841853285     0.00053882959678
   28     0.00000497234191     0.00000327909936     0.00000279012702     0.00000997657165     0.00003998599889
   29     0.00000108663886     0.00000042410924     0.00000071015855     0.00000454544448     0.00001585904390
   30     0.00000141379902     0.00000042156094     0.00000086623838     0.00000366989596     0.00001487839534
   31     0.00000164968256     0.00000077262024     0.00000221528352     0.00001934404116     0.00004254096273
   32     0.00000106043099     0.00000037714030     0.00000063582002     0.00000546598315     0.00001069861994
   33     0.00000017115557     0.00000004493073     0.00000013320101     0.00000090799060     0.00000207168442
   34     0.00000072740336     0.00000034751074     0.00000047139140     0.00000473819362     0.00001075499004
   35     0.00000043628860     0.00000018816139     0.00000028083233     0.00000272320036     0.00000514740887
   36     0.00000152455853     0.00000243148720     0.00000996188482     0.00009480041227     0.00002373891185
   37     0.00000194746683     0.00000728003702     0.00003169736294     0.00003631595543     0.00000289632181
   38     0.88621361794512     0.07933910432749     0.01174917201787     0.00637453696356     0.01075243304275
   39     0.07784320582324     0.87045038750849     0.07246285835714     0.01174676917006     0.00395718162512
   40     0.00569648357414     0.01067209236686     0.06983557042445     0.85249435760270     0.08709900017371
   41     0.07741235955734     0.01185333442575     0.00605182561682     0.01586794252811     0.08766032658060
   42     0.00112732549889     0.01459483957426     0.01438574929606     0.00136880373139     0.00029582180614
   43     0.00004458072937     0.00028656315878     0.00144624188646     0.00031524440276     0.00007892093207
   44     0.00002467294918     0.00008310067365     0.00034922796296     0.00008572170310     0.00000755821851
   45     0.00000031964147     0.00000086201814     0.00000606820332     0.00001723258507     0.00000128979837
   46     0.00000083036437     0.00000144166465     0.00000681647860     0.00002636773953     0.00000694358424
   47     0.00009373784993     0.00021079316074     0.00196499167826     0.00811712250392     0.00062669056610
   48     0.00007922046252     0.00006632867311     0.00016374253590     0.00190576908341     0.00044931042280
   49     0.00010215984387     0.00005917911031     0.00005076482552     0.00123829008410     0.00253862828912
   50     0.00002570498472     0.00002799594455     0.00004816048573     0.00011222702210     0.00121789694950
   51     0.00000039396387     0.00000019882015     0.00000057794448     0.00000963286910     0.00001655246581
   52     0.00000049638991     0.00000028633041     0.00000061354965     0.00000617538373     0.00001654640676
   53     0.00000605667317     0.00000406739895     0.00000351632177     0.00000283930906     0.00001695283801
   54     0.00000042003970     0.00000021079745     0.00000015809471     0.00000227520171     0.00000460313171
   55     0.00000132054034     0.00000060435675     0.00000042353667     0.00000077382159     0.00000365833074
   56     0.00000039441275     0.00000008975429     0.00000015010287     0.00000187014708     0.00000669871330
   57     0.00000014790791     0.00000008405809     0.00000016879187     0.00000084618922     0.00000165076578
   58     0.00000156772499     0.00000093823219     0.00000155217099     0.00001172632114     0.00003508566109
   59     0.00000002576950     0.00000001386848     0.00000002123877     0.00000019292448     0.00000050407296
   60     0.00000002589702     0.00000000728293     0.00000002444844     0.00000018828169     0.00000030757728
   61     0.00000001804183     0.00000000757591     0.00000001582872     0.00000005942821     0.00000020988609
   62     0.00000006444687     0.00000002065997     0.00000006308970     0.00000021037494     0.00000083114857
   63     0.00000049817143     0.00000035736470     0.00000043902166     0.00000695597058     0.00001317061051
   64     0.00000006868997     0.00000007455164     0.00000006731382     0.00000069639177     0.00000096644289
   65     0.00000006357766     0.00000005055706     0.00000005324636     0.00000063153458     0.00000121798026
   66     0.00000111406178     0.00000254717565     0.00001028453669     0.00000877607978     0.00000070946438
   67     0.00000079771789     0.00000197377372     0.00001110799602     0.00000848815198     0.00000051541757
   68     0.00000019180195     0.00000079918578     0.00000391058139     0.00000761994818     0.00000043836254

                 6                   7                   8                   9                  10

    1     1.46510556109297     0.01462452651273     0.00363908520157     0.00037048231829     0.00040868434574
    2     0.13820496570644     0.10304573307466     0.04215312129174     0.00480694381539     0.00539032263753
    3     0.13567683344781     1.02090750051125     0.09831221576522     0.01483448618793     0.00576177949996
    4     0.15382649205693     0.10333471762361     0.02396945993904     0.00413252569053     0.00607290975759
    5     1.63177595577282     0.01389183476290     0.00219827938118     0.00069395735340     0.00032360635814
    6     0.00000000000000     0.00972105650432     0.00689391441487     0.00123833171263     0.00338467729643
    7     0.00972105650432     0.00000000000000     1.38965018722068     0.14697707205228     0.11241111197212
    8     0.00689391441487     1.38965018722068     0.00000000000000     1.43172736976967     0.13115287423836
    9     0.00123833171263     0.14697707205228     1.43172736976967     0.00000000000000     1.66468825188233
   10     0.00338467729643     0.11241111197212     0.13115287423836     1.66468825188233     0.00000000000000
   11     0.00083940079716     0.14197453364098     0.11310665595747     0.15226371883010     1.50387088620010
   12     0.00596554255825     1.52838607142304     0.12545203289373     0.11029803362147     0.10957057929669
   13     0.00006775530102     0.01909261606591     0.02038022197371     0.02456447132611     0.16114875183988
   14     0.00003945482666     0.00267925608486     0.00247195824281     0.00328546803174     0.01705837447225
   15     0.00000520349035     0.00049040585185     0.00147382583362     0.00095283406552     0.00317379784076
   16     0.00000317609473     0.00014585914457     0.00020099336760     0.00016489070923     0.00048604651377
   17     0.00000636307052     0.00024426593640     0.00136074787957     0.00046126660178     0.00131334512792
   18     0.00003257745106     0.00049928334504     0.00025744411985     0.00013764118028     0.00040371071289
   19     0.00017919938158     0.00533140868455     0.00315115063232     0.00150735287190     0.00428820247696
   20     0.00005027635110     0.00011914522811     0.00002661005853     0.00001712372313     0.00005787859994
   21     0.00001280779009     0.00001908399371     0.00000811812390     0.00000496129983     0.00001585414801
   22     0.00007123212505     0.00000504641781     0.00000181074229     0.00000107205479     0.00000340675431
   23     0.00078517324858     0.00003121217824     0.00000983105518     0.00000221914682     0.00000270705580
   24     0.00088074645154     0.00002022751719     0.00000989675598     0.00000146500423     0.00000101923160
   25     0.00011128746788     0.00000266237969     0.00000180264632     0.00000027642517     0.00000052591004
   26     0.00009438221486     0.00000255959012     0.00000088735641     0.00000025470174     0.00000026181361
   27     0.00014186776772     0.00000241714155     0.00000103475162     0.00000049350632     0.00000111917818
   28     0.00002660228178     0.00000056545894     0.00000025108926     0.00000005395004     0.00000007394216
   29     0.00000990471379     0.00000017304750     0.00000005688812     0.00000001261373     0.00000002337159
   30     0.00001448441082     0.00000018485488     0.00000005679967     0.00000001235797     0.00000002079569
   31     0.00001084177042     0.00000031609203     0.00000008903610     0.00000002652848     0.00000003337163
   32     0.00000461417195     0.00000015175374     0.00000007825443     0.00000001228276     0.00000001575131
   33     0.00000107581109     0.00000003218330     0.00000001034181     0.00000000318209     0.00000000288408
   34     0.00000690368596     0.00000010411784     0.00000003376508     0.00000001047547     0.00000001208136
   35     0.00000357975490     0.00000006905351     0.00000002516472     0.00000000898217     0.00000001047862
   36     0.00000515064107     0.00000938864967     0.00000954119648     0.00000432945600     0.00001278576110
   37     0.00000177181577     0.00014183399528     0.00013144089523     0.00013896203625     0.00077727134632
   38     0.08236500809897     0.00128554845437     0.00025097365546     0.00003884569396     0.00002529179196
   39     0.01170804335755     0.01610980983488     0.01520297842094     0.00118664521626     0.00040312216077
   40     0.01478704675378     0.01563194889652     0.00165877707886     0.00039271011993     0.00060631737241
   41     0.87965380100990     0.00054457237179     0.00026885879234     0.00005341816335     0.00010421341599
   42     0.00049368032658     0.07547512795900     0.87576233855155     0.08064122285022     0.01044745537278
   43     0.00004424673796     0.01178342183871     0.07632024974769     0.87508471916623     0.08908528957664
   44     0.00001122289539     0.00204326622387     0.00201317253911     0.00377009792961     0.03228923523324
   45     0.00000036368301     0.00001777916247     0.00000639720036     0.00002294901905     0.00005068586135
   46     0.00000109186504     0.00002277507664     0.00004256474328     0.00001678513924     0.00005345836742
   47     0.00020853739083     0.00407412346467     0.00092702128813     0.00037985975552     0.00075408161004
   48     0.00006266773242     0.00007451698921     0.00002394431999     0.00000904842915     0.00001854346528
   49     0.00020636885668     0.00001316632574     0.00000370454871     0.00000102538412     0.00000107450094
   50     0.00020769548263     0.00000542069864     0.00000227267242     0.00000037153759     0.00000018029078
   51     0.00000327446015     0.00000009746012     0.00000004630247     0.00000001466716     0.00000002638814
   52     0.00000520120230     0.00000021911992     0.00000014848047     0.00000006461919     0.00000022237164
   53     0.00001586596036     0.00000039632943     0.00000028545475     0.00000003448269     0.00000016697020
   54     0.00000293021673     0.00000003717589     0.00000002291051     0.00000000761373     0.00000000681986
   55     0.00000827894471     0.00000009044394     0.00000002847462     0.00000001037204     0.00000001879034
   56     0.00000608710400     0.00000002864360     0.00000001188594     0.00000000325485     0.00000000833832
   57     0.00000034201330     0.00000002940513     0.00000000985229     0.00000000247433     0.00000000329457
   58     0.00000846800471     0.00000018355028     0.00000008923901     0.00000001711809     0.00000003783818
   59     0.00000024363427     0.00000000698042     0.00000000158813     0.00000000091203     0.00000000110387
   60     0.00000010254430     0.00000000290822     0.00000000107525     0.00000000043795     0.00000000040313
   61     0.00000021786652     0.00000000604780     0.00000000135949     0.00000000081705     0.00000000048666
   62     0.00000057078417     0.00000002263284     0.00000000368335     0.00000000175752     0.00000000170110
   63     0.00000924018078     0.00000007511160     0.00000003050760     0.00000000622818     0.00000000892255
   64     0.00000098332050     0.00000002317874     0.00000000304485     0.00000000138381     0.00000000198465
   65     0.00000126176711     0.00000001294064     0.00000000960318     0.00000000265848     0.00000000437708
   66     0.00000126597759     0.00004529810884     0.00010572939741     0.00004368980559     0.00031888541757
   67     0.00000052603132     0.00004317012275     0.00008429993470     0.00004409590812     0.00027548087623
   68     0.00000016359951     0.00001410930057     0.00000411927484     0.00000415384687     0.00003231459987

                11                  12                  13                  14                  15

    1     0.00088358053222     0.00276968165632     0.00017013970568     0.00003042102586     0.00001074308224
    2     0.00334725106621     0.02196049158260     0.00047754256897     0.00009067624412     0.00002248389764
    3     0.01805336509036     0.11876707765810     0.00161788745720     0.00051718095644     0.00006137918101
    4     0.00672598869229     0.06107727237679     0.00090383955747     0.00106778699073     0.00013971220810
    5     0.00041964252249     0.00396528737051     0.00008623144780     0.00009313788953     0.00001434233681
    6     0.00083940079716     0.00596554255825     0.00006775530102     0.00003945482666     0.00000520349035
    7     0.14197453364098     1.52838607142304     0.01909261606591     0.00267925608486     0.00049040585185
    8     0.11310665595747     0.12545203289373     0.02038022197371     0.00247195824281     0.00147382583362
    9     0.15226371883010     0.11029803362147     0.02456447132611     0.00328546803174     0.00095283406552
   10     1.50387088620010     0.10957057929669     0.16114875183988     0.01705837447225     0.00317379784076
   11     0.00000000000000     1.53628376218686     1.26873128802122     0.08191993717485     0.01777891039678
   12     1.53628376218686     0.00000000000000     0.14105189677612     0.02788646368340     0.00333285195983
   13     1.26873128802122     0.14105189677612     0.00000000000000     1.12815726931877     0.10623200762219
   14     0.08191993717485     0.02788646368340     1.12815726931877     0.00000000000000     1.31384578677081
   15     0.01777891039678     0.00333285195983     0.10623200762219     1.31384578677081     0.00000000000000
   16     0.00239624408300     0.00103884014645     0.01450241083369     0.12558259829524     1.44365949155540
   17     0.00411922367749     0.00251287050118     0.01211982892943     0.11914278847382     0.12450448933912
   18     0.00234380089922     0.00440101094861     0.01325104195702     0.12308009882755     0.12049265906747
   19     0.02784555046338     0.05349424983329     0.11069946139529     1.40413485677649     0.11882257818054
   20     0.00032819608429     0.00107660142588     0.00132339797824     0.01501213647159     0.01104826649230
   21     0.00006060158325     0.00012297490530     0.00030902047916     0.00278600019249     0.00577983711772
   22     0.00001252883268     0.00002801671499     0.00005655662147     0.00036184442885     0.00036205389423
   23     0.00001019674166     0.00008156665483     0.00001493235115     0.00011269204111     0.00031733857454
   24     0.00000179297993     0.00000752943430     0.00000233928385     0.00001436375768     0.00004173083009
   25     0.00000084031229     0.00000240271207     0.00000237406657     0.00001947315809     0.00007958264461
   26     0.00000072286999     0.00000265234806     0.00000196854725     0.00001579499321     0.00003985097319
   27     0.00000314210138     0.00000434642277     0.00001354729120     0.00009214306567     0.00023302204049
   28     0.00000010105891     0.00000037792950     0.00000025456415     0.00000185125536     0.00000618445416
   29     0.00000005036390     0.00000013953196     0.00000011923399     0.00000102061557     0.00000526144315
   30     0.00000004484664     0.00000011538849     0.00000005231703     0.00000030328903     0.00000062323726
   31     0.00000005946688     0.00000021137600     0.00000003902862     0.00000025317611     0.00000071294145
   32     0.00000003885519     0.00000013486079     0.00000002222464     0.00000009140125     0.00000011213787
   33     0.00000001470113     0.00000001967935     0.00000000580368     0.00000002877212     0.00000007800131
   34     0.00000003995714     0.00000010344220     0.00000003051152     0.00000025839429     0.00000057793070
   35     0.00000003519905     0.00000005911714     0.00000003955200     0.00000023317163     0.00000076267887
   36     0.00004020672163     0.00005189290003     0.00016267789797     0.00108147819046     0.00344079256268
   37     0.00351811811120     0.00077017170244     0.03805717297593     0.09608009724646     1.06054510439761
   38     0.00009013986282     0.00031279882244     0.00001608575273     0.00000657747957     0.00000071632741
   39     0.00028748992895     0.00108375672215     0.00006601406035     0.00002563595089     0.00000391569230
   40     0.00270610603611     0.02497532116212     0.00038422662771     0.00104631498574     0.00015633692380
   41     0.00004317012293     0.00024942708791     0.00000529466783     0.00000378554941     0.00000052338099
   42     0.00573096902331     0.01062816517838     0.00103216431202     0.00011719416049     0.00006656951155
   43     0.01582010216252     0.00397261074592     0.00135342210779     0.00038401079300     0.00006201135466
   44     0.07363398825024     0.01138330714428     0.93327286703708     0.05973632627943     0.01518428727862
   45     0.00037082477867     0.00005719555695     0.00115693167162     0.01143323985001     0.07475529534535
   46     0.00014676832023     0.00015558500080     0.00052351261537     0.00524760295366     0.01054493371346
   47     0.00963205339839     0.03772414016365     0.01582702893002     0.07384837444958     0.00969423742380
   48     0.00011011857421     0.00058964996411     0.00017200209965     0.00201759741529     0.00114535161845
   49     0.00000367500368     0.00001760347903     0.00000402143212     0.00002724303165     0.00010288790872
   50     0.00000036532892     0.00000136618891     0.00000032090482     0.00000156676049     0.00000250931193
   51     0.00000008000134     0.00000013229868     0.00000041032043     0.00000251940476     0.00000465595926
   52     0.00000068574756     0.00000068275923     0.00000290821389     0.00001501980129     0.00001381367100
   53     0.00000003898856     0.00000015793866     0.00000009421458     0.00000029483781     0.00000100818827
   54     0.00000001345789     0.00000005505255     0.00000004222587     0.00000026702821     0.00000020736058
   55     0.00000001161441     0.00000003619523     0.00000001018142     0.00000003135984     0.00000004149252
   56     0.00000001481888     0.00000002848701     0.00000001411251     0.00000006493410     0.00000028967195
   57     0.00000001409696     0.00000002025364     0.00000000469954     0.00000002441277     0.00000006256332
   58     0.00000005591041     0.00000030218180     0.00000012551600     0.00000037418042     0.00000132695368
   59     0.00000000352675     0.00000000834723     0.00000000222360     0.00000000996822     0.00000002352829
   60     0.00000000307616     0.00000000537975     0.00000000149009     0.00000000626153     0.00000001023759
   61     0.00000000099513     0.00000000243162     0.00000000082630     0.00000000405101     0.00000001448074
   62     0.00000000320005     0.00000000756771     0.00000000299299     0.00000004025854     0.00000006454217
   63     0.00000002562407     0.00000007709246     0.00000005490594     0.00000031966058     0.00000073666986
   64     0.00000001502820     0.00000001248848     0.00000001531848     0.00000010765102     0.00000021883198
   65     0.00000000617804     0.00000001332152     0.00000000841907     0.00000003776974     0.00000007578459
   66     0.00088251600053     0.00028931848362     0.01021368976281     0.01647535365677     0.05820945982730
   67     0.00076833651898     0.00026590432881     0.00939247820805     0.01642676625878     0.05829474716789
   68     0.00023100197064     0.00006093864198     0.00202835609348     0.00889946923782     0.05934694998917

                16                  17                  18                  19                  20

    1     0.00000195469718     0.00001214131885     0.00001854922803     0.00013158223957     0.00003104027738
    2     0.00000445794719     0.00001831804790     0.00004491938707     0.00023573172202     0.00005501294876
    3     0.00003184630027     0.00004747311813     0.00024039519648     0.00178149205095     0.00025261505833
    4     0.00017845497437     0.00025403562869     0.00137039781727     0.00985556576062     0.00231152012298
    5     0.00001001677161     0.00003006952200     0.00015543177803     0.00053862866739     0.00035024734386
    6     0.00000317609473     0.00000636307052     0.00003257745106     0.00017919938158     0.00005027635110
    7     0.00014585914457     0.00024426593640     0.00049928334504     0.00533140868455     0.00011914522811
    8     0.00020099336760     0.00136074787957     0.00025744411985     0.00315115063232     0.00002661005853
    9     0.00016489070923     0.00046126660178     0.00013764118028     0.00150735287190     0.00001712372313
   10     0.00048604651377     0.00131334512792     0.00040371071289     0.00428820247696     0.00005787859994
   11     0.00239624408300     0.00411922367749     0.00234380089922     0.02784555046338     0.00032819608429
   12     0.00103884014645     0.00251287050118     0.00440101094861     0.05349424983329     0.00107660142588
   13     0.01450241083369     0.01211982892943     0.01325104195702     0.11069946139529     0.00132339797824
   14     0.12558259829524     0.11914278847382     0.12308009882755     1.40413485677649     0.01501213647159
   15     1.44365949155540     0.12450448933912     0.12049265906747     0.11882257818054     0.01104826649230
   16     0.00000000000000     1.44369922093323     0.13310201815705     0.12514641663194     0.01372826592960
   17     1.44369922093323     0.00000000000000     1.40098103300522     0.12133733050902     0.10448205927180
   18     0.13310201815705     1.40098103300522     0.00000000000000     1.36221521921858     1.12602109773169
   19     0.12514641663194     0.12133733050902     1.36221521921858     0.00000000000000     0.12381237976683
   20     0.01372826592960     0.10448205927180     1.12602109773169     0.12381237976683     0.00000000000000
   21     0.00281729414900     0.03165605428061     0.08677311241581     0.02252559510358     1.31771617654749
   22     0.00035454755684     0.00336905928134     0.01486657884536     0.00217709841117     0.10982363742936
   23     0.00014050671653     0.00112551693672     0.00383671378379     0.00101536008955     0.04013298415649
   24     0.00002251926245     0.00017149082499     0.00044553599461     0.00012941478434     0.00376609124257
   25     0.00002043085686     0.00019200773432     0.00054798336197     0.00014448896885     0.00331149293742
   26     0.00002163532021     0.00014723664780     0.00046457553071     0.00011552149082     0.00261028376078
   27     0.00009875700801     0.00081580209258     0.00246557933649     0.00058346157667     0.01967801935031
   28     0.00000203086268     0.00001654332460     0.00004400125695     0.00001211802099     0.00024908932543
   29     0.00000108247921     0.00001014442237     0.00002471364710     0.00000759314662     0.00013124545934
   30     0.00000043630011     0.00000276215895     0.00000577548696     0.00000195092335     0.00002434741200
   31     0.00000037287491     0.00000356343881     0.00000738723277     0.00000393939012     0.00003019948488
   32     0.00000010735525     0.00000080608765     0.00000327841610     0.00000117656885     0.00000685165486
   33     0.00000006726564     0.00000024106351     0.00000097979390     0.00000029416431     0.00000144350672
   34     0.00000037348509     0.00000306944646     0.00000708925285     0.00000241718398     0.00002458655392
   35     0.00000030137627     0.00000200909684     0.00000571319453     0.00000206395141     0.00002825591875
   36     0.00352844402698     0.04926800899902     0.03199163346519     0.00534319747354     0.19428276332786
   37     0.11597194699698     0.01441446764261     0.00737603116010     0.01390594441290     0.00070149136645
   38     0.00000025204824     0.00000058101961     0.00000384760930     0.00002158142888     0.00000392119726
   39     0.00000108585013     0.00000150046077     0.00000531075040     0.00003579465930     0.00000562308442
   40     0.00012944503332     0.00019988117022     0.00146466712317     0.00825319484049     0.00172670814461
   41     0.00000030101363     0.00000055348148     0.00000235869639     0.00001298516837     0.00000495177231
   42     0.00000948287045     0.00004880942615     0.00002846674826     0.00019804703423     0.00000633493973
   43     0.00001553065681     0.00001068712222     0.00001447552420     0.00009982369001     0.00000154978134
   44     0.00156524674679     0.00104492907765     0.00129923809551     0.01034508282802     0.00024298846986
   45     0.87126431083948     0.07901843558018     0.01174330574513     0.00562405352931     0.00103675556382
   46     0.07727931268019     0.85951421071345     0.07542704441666     0.01120865737113     0.01479487859930
   47     0.00564443592986     0.01019833989714     0.07137251058408     0.83842092660490     0.02371541359932
   48     0.00138494103551     0.01029357615192     0.06211416047849     0.02100088378702     0.93499828038147
   49     0.00004711948910     0.00029613619828     0.00117028678251     0.00039530198374     0.01153471756565
   50     0.00000213362013     0.00001536264384     0.00003437038553     0.00000966143889     0.00021121607110
   51     0.00000313887598     0.00002066024176     0.00005897352990     0.00001716696663     0.00027909230192
   52     0.00001742239893     0.00010225686661     0.00022814956990     0.00006270550407     0.00196431890877
   53     0.00000042450276     0.00000291929186     0.00000782015423     0.00000239856772     0.00004636804847
   54     0.00000038448164     0.00000195456755     0.00001102649319     0.00000177260126     0.00005707566510
   55     0.00000006950083     0.00000037676902     0.00000076490408     0.00000024051436     0.00000559968111
   56     0.00000009007815     0.00000063806214     0.00000148915635     0.00000066063145     0.00000721910074
   57     0.00000001818175     0.00000021475255     0.00000042363822     0.00000024300048     0.00000216205955
   58     0.00000057101094     0.00000389636414     0.00000786049103     0.00000530873396     0.00005042096331
   59     0.00000001741473     0.00000007184439     0.00000025619694     0.00000007516644     0.00000046759831
   60     0.00000000371287     0.00000002844622     0.00000005049941     0.00000005377449     0.00000029806017
   61     0.00000001690070     0.00000002661624     0.00000013826906     0.00000003001214     0.00000027340551
   62     0.00000003793945     0.00000018016580     0.00000065383874     0.00000019028075     0.00000212147825
   63     0.00000067171305     0.00000454919157     0.00000759273119     0.00000367744961     0.00002468622977
   64     0.00000007753690     0.00000049920331     0.00000273119335     0.00000081219860     0.00000637154580
   65     0.00000006439687     0.00000031804731     0.00000092534408     0.00000036855610     0.00000661901786
   66     0.01500341739641     0.00126003138837     0.00283586500298     0.00123174295675     0.00032636587465
   67     0.01530855585280     0.00127580662278     0.00293562234319     0.00119993043735     0.00035069169392
   68     0.02391962283674     0.00190832996693     0.00055130790416     0.00108128003339     0.00008425417495

                21                  22                  23                  24                  25

    1     0.00000865351950     0.00003772272786     0.00024541677269     0.00012827867503     0.00001466307935
    2     0.00000982139406     0.00002415049455     0.00014056193201     0.00009899718554     0.00001502635224
    3     0.00003761819629     0.00002493943820     0.00016866676202     0.00015075447139     0.00001679817414
    4     0.00028842397340     0.00039120871913     0.00273358695826     0.00100943031595     0.00007057304693
    5     0.00008578307789     0.00064437814972     0.00870485603949     0.00715056501785     0.00035797010394
    6     0.00001280779009     0.00007123212505     0.00078517324858     0.00088074645154     0.00011128746788
    7     0.00001908399371     0.00000504641781     0.00003121217824     0.00002022751719     0.00000266237969
    8     0.00000811812390     0.00000181074229     0.00000983105518     0.00000989675598     0.00000180264632
    9     0.00000496129983     0.00000107205479     0.00000221914682     0.00000146500423     0.00000027642517
   10     0.00001585414801     0.00000340675431     0.00000270705580     0.00000101923160     0.00000052591004
   11     0.00006060158325     0.00001252883268     0.00001019674166     0.00000179297993     0.00000084031229
   12     0.00012297490530     0.00002801671499     0.00008156665483     0.00000752943430     0.00000240271207
   13     0.00030902047916     0.00005655662147     0.00001493235115     0.00000233928385     0.00000237406657
   14     0.00278600019249     0.00036184442885     0.00011269204111     0.00001436375768     0.00001947315809
   15     0.00577983711772     0.00036205389423     0.00031733857454     0.00004173083009     0.00007958264461
   16     0.00281729414900     0.00035454755684     0.00014050671653     0.00002251926245     0.00002043085686
   17     0.03165605428061     0.00336905928134     0.00112551693672     0.00017149082499     0.00019200773432
   18     0.08677311241581     0.01486657884536     0.00383671378379     0.00044553599461     0.00054798336197
   19     0.02252559510358     0.00217709841117     0.00101536008955     0.00012941478434     0.00014448896885
   20     1.31771617654749     0.10982363742936     0.04013298415649     0.00376609124257     0.00331149293742
   21     0.00000000000000     0.96630301985747     0.10691849402530     0.01445857498487     0.01037751982333
   22     0.96630301985747     0.00000000000000     1.40406143516986     0.12826169439268     0.12470106168527
   23     0.10691849402530     1.40406143516986     0.00000000000000     1.45467888132914     0.12641180158598
   24     0.01445857498487     0.12826169439268     1.45467888132914     0.00000000000000     1.40554992022084
   25     0.01037751982333     0.12470106168527     0.12641180158598     1.40554992022084     0.00000000000000
   26     0.01463082712840     0.12792622384469     0.13023711252511     0.12553526892407     1.39667990838869
   27     0.11109422713949     1.39086631534303     0.12395681944986     0.13206263823480     0.12609129418262
   28     0.00071633604877     0.00921592697691     0.01453836663360     0.10963736874362     1.01781457683358
   29     0.00035280730122     0.00441509304286     0.00197352223432     0.02162818978580     0.08689207357037
   30     0.00009106145875     0.00106505900763     0.00202366230455     0.01544671121227     0.02107048383538
   31     0.00007251495748     0.00179799956758     0.00977031822972     0.02375794296646     0.02020761517672
   32     0.00005414849537     0.00070634984365     0.00117839575925     0.00267602280513     0.00409250133600
   33     0.00000829376597     0.00011331276680     0.00026888663014     0.00070580008036     0.00114783695535
   34     0.00006420040557     0.00145818045897     0.00196643149095     0.00455428584044     0.01886251594997
   35     0.00008691147053     0.00102627364100     0.00092785867996     0.00451979130196     0.02006137955119
   36     2.19318719921998     0.13895897335909     0.02482922249856     0.00279714036053     0.00489293849677
[...]
   15     0.00000028967195     0.00000006256332     0.00000132695368     0.00000002352829     0.00000001023759
   16     0.00000009007815     0.00000001818175     0.00000057101094     0.00000001741473     0.00000000371287
   17     0.00000063806214     0.00000021475255     0.00000389636414     0.00000007184439     0.00000002844622
   18     0.00000148915635     0.00000042363822     0.00000786049103     0.00000025619694     0.00000005049941
   19     0.00000066063145     0.00000024300048     0.00000530873396     0.00000007516644     0.00000005377449
   20     0.00000721910074     0.00000216205955     0.00005042096331     0.00000046759831     0.00000029806017
   21     0.00002948303361     0.00000681385099     0.00008834602464     0.00000193904503     0.00000085370817
   22     0.00027046817994     0.00010851032468     0.00213471541999     0.00001233357579     0.00001174840779
   23     0.00042624953483     0.00027565675863     0.00890879588023     0.00002575191087     0.00003677035777
   24     0.00096821993258     0.00077468757651     0.02204067744156     0.00009188988018     0.00007313674894
   25     0.00146731271802     0.00069729746593     0.01352636712554     0.00018234229829     0.00010037876077
   26     0.00057410058154     0.00023948551735     0.00449575590587     0.00008967761181     0.00004517083035
   27     0.00018866742217     0.00010727476657     0.00215210231557     0.00002462048877     0.00002486478795
   28     0.01222510079773     0.00107233451744     0.00646009865554     0.00070154322029     0.00012264422606
   29     0.06600862539806     0.01169260093254     0.01189173329688     0.00339124207844     0.00070616330897
   30     0.76994702661278     0.05780255132541     0.04407350426486     0.01286499809653     0.00404679916905
   31     0.05001412761221     0.85288996058320     0.77615152901096     0.01641642653383     0.01998545236068
   32     0.01400703337321     0.05345225297383     0.05882807052618     0.06736453805944     0.06264925589936
   33     0.01624441081285     0.02164316177932     0.01235603426020     0.91071585887130     0.91956018186977
   34     0.00836366355314     0.01460271576794     0.02038315046435     0.01669082058107     0.01287054290507
   35     0.02273508433499     0.00211764723315     0.00738384553587     0.01312250434258     0.00183900697565
   36     0.00001106860434     0.00000297816709     0.00003451975902     0.00000043330572     0.00000043361035
   37     0.00000001874135     0.00000000533042     0.00000011115831     0.00000000659591     0.00000000092617
   38     0.00000001904211     0.00000000846711     0.00000014385363     0.00000000335342     0.00000000222940
   39     0.00000001373051     0.00000000373193     0.00000007863457     0.00000000085424     0.00000000117919
   40     0.00000026280744     0.00000008806518     0.00000345734121     0.00000004060606     0.00000001329427
   41     0.00000071645202     0.00000008743396     0.00000063206004     0.00000004089353     0.00000001973199
   42     0.00000000120403     0.00000000027337     0.00000000716604     0.00000000014411     0.00000000020049
   43     0.00000000025147     0.00000000036417     0.00000000164985     0.00000000011202     0.00000000005508
   44     0.00000000396252     0.00000000131232     0.00000001060986     0.00000000025077     0.00000000016900
   45     0.00000001018587     0.00000000368867     0.00000013407141     0.00000000265729     0.00000000061062
   46     0.00000023412266     0.00000005415931     0.00000151743797     0.00000001085301     0.00000000568097
   47     0.00000027829082     0.00000012282832     0.00000129657527     0.00000004024715     0.00000003402296
   48     0.00000244061805     0.00000120701212     0.00002976091743     0.00000036956910     0.00000032017909
   49     0.00004964228656     0.00002542815163     0.00064836395438     0.00000210663300     0.00000268525501
   50     0.00010592309028     0.00014664621974     0.00358832210827     0.00003649736529     0.00001752938407
   51     0.00013750308971     0.00001909927451     0.00032300104520     0.00003813446146     0.00000920392475
   52     0.00001501550265     0.00000401866863     0.00006282369336     0.00000250715860     0.00000118091939
   53     0.00120333488108     0.00010628076504     0.00088599230722     0.00006791985437     0.00002175836060
   54     0.00052792230658     0.00034302271140     0.00038195116727     0.00006794019518     0.00002163140390
   55     0.02399349410606     0.00579793284818     0.00856698423804     0.00056441346401     0.00015657913409
   56     0.00000000000000     0.01004823280137     0.02382866718699     0.00827176334894     0.00181427033121
   57     0.01004823280137     0.00000000000000     0.01856225275747     0.00303414284600     0.00687382480744
   58     0.02382866718699     0.01856225275747     0.00000000000000     0.00100850183428     0.00106330322333
   59     0.00827176334894     0.00303414284600     0.00100850183428     0.00000000000000     0.03495184470346
   60     0.00181427033121     0.00687382480744     0.00106330322333     0.03495184470346     0.00000000000000
   61     0.00069212902162     0.00112264413998     0.00066523842548     0.03487240831187     0.03777888750627
   62     0.00042620310783     0.00140533409008     0.00106560111767     0.00327809408332     0.00116752318824
   63     0.00092685481715     0.00094941207480     0.00527610453129     0.00098283843116     0.00068017187295
   64     0.00599329194283     0.00043914930230     0.00090558903261     0.00844027771376     0.00071740687468
   65     0.00089545899642     0.00035236221786     0.00049157031700     0.00059850924006     0.00022192829009
   66     0.00000001307819     0.00000000229255     0.00000009307341     0.00000000074882     0.00000000031997
   67     0.00000001220811     0.00000000165780     0.00000004238474     0.00000000062403     0.00000000029014
   68     0.00000000120723     0.00000000024679     0.00000000874413     0.00000000056749     0.00000000018330

                61                  62                  63                  64                  65

    1     0.00000001804183     0.00000006444687     0.00000049817143     0.00000006868997     0.00000006357766
    2     0.00000000757591     0.00000002065997     0.00000035736470     0.00000007455164     0.00000005055706
    3     0.00000001582872     0.00000006308970     0.00000043902166     0.00000006731382     0.00000005324636
    4     0.00000005942821     0.00000021037494     0.00000695597058     0.00000069639177     0.00000063153458
    5     0.00000020988609     0.00000083114857     0.00001317061051     0.00000096644289     0.00000121798026
    6     0.00000021786652     0.00000057078417     0.00000924018078     0.00000098332050     0.00000126176711
    7     0.00000000604780     0.00000002263284     0.00000007511160     0.00000002317874     0.00000001294064
    8     0.00000000135949     0.00000000368335     0.00000003050760     0.00000000304485     0.00000000960318
    9     0.00000000081705     0.00000000175752     0.00000000622818     0.00000000138381     0.00000000265848
   10     0.00000000048666     0.00000000170110     0.00000000892255     0.00000000198465     0.00000000437708
   11     0.00000000099513     0.00000000320005     0.00000002562407     0.00000001502820     0.00000000617804
   12     0.00000000243162     0.00000000756771     0.00000007709246     0.00000001248848     0.00000001332152
   13     0.00000000082630     0.00000000299299     0.00000005490594     0.00000001531848     0.00000000841907
   14     0.00000000405101     0.00000004025854     0.00000031966058     0.00000010765102     0.00000003776974
   15     0.00000001448074     0.00000006454217     0.00000073666986     0.00000021883198     0.00000007578459
   16     0.00000001690070     0.00000003793945     0.00000067171305     0.00000007753690     0.00000006439687
   17     0.00000002661624     0.00000018016580     0.00000454919157     0.00000049920331     0.00000031804731
   18     0.00000013826906     0.00000065383874     0.00000759273119     0.00000273119335     0.00000092534408
   19     0.00000003001214     0.00000019028075     0.00000367744961     0.00000081219860     0.00000036855610
   20     0.00000027340551     0.00000212147825     0.00002468622977     0.00000637154580     0.00000661901786
   21     0.00000094448873     0.00000678748488     0.00007202638941     0.00002844683624     0.00001859922433
   22     0.00001122878635     0.00009664321463     0.00163547981788     0.00025554528761     0.00017425620356
   23     0.00002531365615     0.00010225811295     0.00187576721935     0.00015407706938     0.00016071448246
   24     0.00004359265265     0.00021754235903     0.00370627629253     0.00055826879363     0.00050159498565
   25     0.00010062357937     0.00062689950288     0.01220086677112     0.00149284497484     0.00519387609855
   26     0.00007324441072     0.00071349511642     0.02135707644269     0.00090127929543     0.00516143473981
   27     0.00003475517815     0.00025688492667     0.00795538539385     0.00040139633511     0.00039738093955
   28     0.00012313510158     0.00104618677110     0.00620394331394     0.01224862520644     0.01966683919119
   29     0.00073039084629     0.01276933093437     0.01184601064529     0.06594908142278     0.05984249740636
   30     0.00181795025254     0.00196401318506     0.00737619667435     0.02279415906545     0.01205962092623
   31     0.01269379319913     0.01536751252389     0.02042600822959     0.00835977707129     0.00275495248127
   32     0.06253021491972     0.05258373373751     0.05883786929449     0.01407102309000     0.01015623031661
   33     0.91965005653975     0.02303856449257     0.01212778603230     0.01633165788278     0.00179545927800
   34     0.02079065378205     0.83569239432727     0.78813918566489     0.05032975240381     0.06252533540816
   35     0.00407558006144     0.05821038523075     0.04442383663421     0.77118844896261     0.89836562337560
   36     0.00000060505323     0.00000254144708     0.00003424279087     0.00000908283883     0.00000953119964
   37     0.00000000882351     0.00000002533892     0.00000007851862     0.00000004265896     0.00000001671249
   38     0.00000000284682     0.00000000545671     0.00000009197255     0.00000000471128     0.00000001286526
   39     0.00000000062613     0.00000000869766     0.00000006101380     0.00000000137959     0.00000000629436
   40     0.00000002232168     0.00000006551052     0.00000238526986     0.00000039990785     0.00000024636612
   41     0.00000004164013     0.00000006664481     0.00000377918213     0.00000071859978     0.00000051768938
   42     0.00000000007704     0.00000000016164     0.00000000623489     0.00000000019548     0.00000000064220
   43     0.00000000005658     0.00000000019900     0.00000000142072     0.00000000030117     0.00000000024569
   44     0.00000000015006     0.00000000047446     0.00000000848959     0.00000000270067     0.00000000174156
   45     0.00000000123766     0.00000000887148     0.00000007283578     0.00000002642850     0.00000000891468
   46     0.00000000476711     0.00000002698685     0.00000232321176     0.00000013587642     0.00000010949512
   47     0.00000001146252     0.00000014823761     0.00000107893306     0.00000027215742     0.00000009696244
   48     0.00000010998407     0.00000117496756     0.00001930724149     0.00000247962442     0.00000318494598
   49     0.00000116487227     0.00000336182993     0.00005558205424     0.00001219825581     0.00001910463823
   50     0.00000755376559     0.00001880773570     0.00022693136251     0.00013620015774     0.00007711909225
   51     0.00001848156962     0.00015930142466     0.00388323959296     0.00010269759189     0.00227671689834
   52     0.00000294198813     0.00002751798178     0.00064747588567     0.00005430980167     0.00002671387594
   53     0.00002341081211     0.00039179992406     0.00035665406361     0.00049592856897     0.00110584309819
   54     0.00002094697273     0.00009691465354     0.00092045486869     0.00121244757250     0.00595354747763
   55     0.00022381940793     0.00039486125266     0.00047548000884     0.00089365468794     0.00112885928058
   56     0.00069212902162     0.00042620310783     0.00092685481715     0.00599329194283     0.00089545899642
   57     0.00112264413998     0.00140533409008     0.00094941207480     0.00043914930230     0.00035236221786
   58     0.00066523842548     0.00106560111767     0.00527610453129     0.00090558903261     0.00049157031700
   59     0.03487240831187     0.00327809408332     0.00098283843116     0.00844027771376     0.00059850924006
   60     0.03777888750627     0.00116752318824     0.00068017187295     0.00071740687468     0.00022192829009
   61     0.00000000000000     0.00738819487946     0.00106390956387     0.00176686651892     0.00016772340879
   62     0.00738819487946     0.00000000000000     0.01800524501819     0.01015522406371     0.00591226395520
   63     0.00106390956387     0.01800524501819     0.00000000000000     0.02221491048838     0.00829338599134
   64     0.00176686651892     0.01015522406371     0.02221491048838     0.00000000000000     0.02451601029900
   65     0.00016772340879     0.00591226395520     0.00829338599134     0.02451601029900     0.00000000000000
   66     0.00000000025237     0.00000000150802     0.00000006105730     0.00000000881880     0.00000000195634
   67     0.00000000036240     0.00000000152903     0.00000002331217     0.00000000940316     0.00000000438359
   68     0.00000000013520     0.00000000023669     0.00000000873862     0.00000000059099     0.00000000082627

                66                  67                  68

    1     0.00000111406178     0.00000079771789     0.00000019180195
    2     0.00000254717565     0.00000197377372     0.00000079918578
    3     0.00001028453669     0.00001110799602     0.00000391058139
    4     0.00000877607978     0.00000848815198     0.00000761994818
    5     0.00000070946438     0.00000051541757     0.00000043836254
    6     0.00000126597759     0.00000052603132     0.00000016359951
    7     0.00004529810884     0.00004317012275     0.00001410930057
    8     0.00010572939741     0.00008429993470     0.00000411927484
    9     0.00004368980559     0.00004409590812     0.00000415384687
   10     0.00031888541757     0.00027548087623     0.00003231459987
   11     0.00088251600053     0.00076833651898     0.00023100197064
   12     0.00028931848362     0.00026590432881     0.00006093864198
   13     0.01021368976281     0.00939247820805     0.00202835609348
   14     0.01647535365677     0.01642676625878     0.00889946923782
   15     0.05820945982730     0.05829474716789     0.05934694998917
   16     0.01500341739641     0.01530855585280     0.02391962283674
   17     0.00126003138837     0.00127580662278     0.00190832996693
   18     0.00283586500298     0.00293562234319     0.00055130790416
   19     0.00123174295675     0.00119993043735     0.00108128003339
   20     0.00032636587465     0.00035069169392     0.00008425417495
   21     0.00020331791382     0.00021346946748     0.00003078598323
   22     0.00001459570882     0.00001311911169     0.00000658849919
   23     0.00001169340615     0.00001282510806     0.00000249179753
   24     0.00000163211234     0.00000170546334     0.00000037918942
   25     0.00000313356554     0.00000332245325     0.00000026058422
   26     0.00000169128500     0.00000143461346     0.00000025721598
   27     0.00000920535949     0.00000839124795     0.00000148981196
   28     0.00000024188116     0.00000027405114     0.00000004182065
   29     0.00000019993141     0.00000023182393     0.00000001303799
   30     0.00000001625783     0.00000002506089     0.00000000778525
   31     0.00000002222338     0.00000002189472     0.00000000717114
   32     0.00000000574755     0.00000000281601     0.00000000163109
   33     0.00000000222846     0.00000000205626     0.00000000090478
   34     0.00000001587483     0.00000001852777     0.00000000440723
   35     0.00000001897408     0.00000004025313     0.00000000619275
   36     0.00012951567771     0.00012310882666     0.00001602644580
   37     0.91870804619406     0.91911709091978     0.91989502821411
   38     0.00000009241001     0.00000008918845     0.00000003997053
   39     0.00000028820360     0.00000026289375     0.00000009604986
   40     0.00000692839688     0.00000687455851     0.00000830365132
   41     0.00000007063707     0.00000005523843     0.00000003997889
   42     0.00000426286800     0.00000354894981     0.00000040905540
   43     0.00000308557227     0.00000287341887     0.00000061068546
   44     0.00466873837372     0.00490655853030     0.00111496973089
   45     0.00122412362107     0.00126783975326     0.00773147915998
   46     0.00021347310426     0.00021498360025     0.00012794130236
   47     0.00018183400796     0.00018290084773     0.00034936371940
   48     0.00004565492938     0.00003798650588     0.00003746506491
   49     0.00000378854801     0.00000427693911     0.00000079917474
   50     0.00000015446412     0.00000008250761     0.00000005255573
   51     0.00000018329791     0.00000026513606     0.00000007621030
   52     0.00000064217938     0.00000047797576     0.00000035360497
   53     0.00000003973644     0.00000005124478     0.00000000779612
   54     0.00000000765318     0.00000001277434     0.00000000736833
   55     0.00000000142553     0.00000000276519     0.00000000119667
   56     0.00000001307819     0.00000001220811     0.00000000120723
   57     0.00000000229255     0.00000000165780     0.00000000024679
   58     0.00000009307341     0.00000004238474     0.00000000874413
   59     0.00000000074882     0.00000000062403     0.00000000056749
   60     0.00000000031997     0.00000000029014     0.00000000018330
   61     0.00000000025237     0.00000000036240     0.00000000013520
   62     0.00000000150802     0.00000000152903     0.00000000023669
   63     0.00000006105730     0.00000002331217     0.00000000873862
   64     0.00000000881880     0.00000000940316     0.00000000059099
   65     0.00000000195634     0.00000000438359     0.00000000082627
   66     0.00000000000000     0.03487734307504     0.03848926336296
   67     0.03487734307504     0.00000000000000     0.03842288670254
   68     0.03848926336296     0.03842288670254     0.00000000000000



  Atomic Valences: 

 #  #
 Irrep: 1
      1:  4.3930403
      2:  4.4244707
      3:  4.6025720
      4:  4.5774942
      5:  3.8987199
      6:  4.5450140
      7:  4.7409479
      8:  4.3704312
      9:  4.5249662
     10:  3.8662471
     11:  4.9973391
     12:  3.9521320
     13:  4.0386513
     14:  4.6623798
     15:  4.6245087
     16:  4.4386623
     17:  4.4030714
     18:  4.6692467
     19:  4.4197146
     20:  4.0841206
     21:  5.0180335
     22:  4.6346966
     23:  4.4522076
     24:  4.4850920
     25:  4.7202576
     26:  4.4768850
     27:  4.4347048
     28:  4.4986808
     29:  4.2535351
     30:  4.5604673
     31:  4.5736458
     32:  4.2360208
     33:  4.2934544
     34:  4.5766211
     35:  4.5659443
     36:  2.7602135
     37:  4.1510710
     38:  1.0981862
     39:  1.1021919
     40:  1.1135858
     41:  1.0913284
     42:  1.1099703
     43:  1.0859442
     44:  1.1770076
     45:  1.0997808
     46:  1.1070242
     47:  1.1356958
     48:  1.1776497
     49:  1.1030117
     50:  1.1073533
     51:  1.1065805
     52:  1.0963186
     53:  1.1075226
     54:  1.1073882
     55:  1.1254547
     56:  1.0424402
     57:  1.0667238
     58:  1.0584007
     59:  1.1379173
     60:  1.1075747
     61:  1.1085197
     62:  1.0525980
     63:  1.0632791
     64:  1.0431475
     65:  1.1308370
     66:  1.1060696
     67:  1.1061138
     68:  1.1044169


    Psi4 stopped on: Wednesday, 18 March 2020 03:22PM
    Psi4 wall time for execution: 1:15:24.09

*** Psi4 exiting successfully. Buy a developer a beer!
