68
MOLECULE0-opt-2-3-7-8-227.log	Energy: -992574.0091069
C         -0.64641        2.62153        0.53481
C          0.69466        2.26614        0.51062
C          1.61881        3.13880       -0.07171
C          1.12972        4.32581       -0.62350
N         -0.15404        4.68232       -0.61112
C         -1.01215        3.84008       -0.03289
C          3.06119        2.79924       -0.11270
C          4.06228        3.76639       -0.16898
C          5.37212        3.29661       -0.20635
N          5.68970        2.00990       -0.18113
C          4.64739        1.15764       -0.11067
N          3.35729        1.49431       -0.08063
N          5.01474       -0.16028       -0.06565
C          4.25143       -1.33458        0.02632
C          4.92956       -2.52899        0.34639
C          4.17951       -3.69652        0.43435
C          2.80372       -3.73449        0.22775
C          2.15572       -2.54426       -0.09185
C          2.87824       -1.35485       -0.20128
N          0.77148       -2.44619       -0.33543
C         -0.21332       -3.35613       -0.04753
C         -1.59770       -2.86228       -0.35995
C         -1.87902       -2.01515       -1.43519
C         -3.17565       -1.56429       -1.64858
C         -4.21204       -1.92457       -0.78567
C         -3.92998       -2.81308        0.25441
C         -2.64057       -3.28493        0.46376
C         -5.60219       -1.32791       -0.93957
N         -5.84688       -0.03662       -0.31720
C         -5.33461        1.15566       -0.98059
C         -3.95671        1.61612       -0.47778
N         -3.88601        1.74166        0.97803
C         -4.57052        2.91486        1.49860
C         -4.31864        0.48890        1.60050
C         -5.71188        0.03448        1.13232
O         -0.01637       -4.45353        0.44665
C          6.41679       -2.54487        0.59299
H         -1.41495        1.99488        0.98043
H          1.04417        1.33458        0.94557
H          1.80521        5.01699       -1.12411
H         -2.05324        4.15516       -0.02074
H          3.84760        4.82740       -0.15853
H          6.20711        3.99294       -0.25191
H          6.01791       -0.26807       -0.05950
H          4.69091       -4.62285        0.68333
H          2.24670       -4.65518        0.32476
H          2.37485       -0.42921       -0.44559
H          0.45560       -1.52282       -0.59347
H         -1.09477       -1.73047       -2.13207
H         -3.38490       -0.91471       -2.49553
H         -4.73150       -3.13289        0.91641
H         -2.42062       -3.97929        1.26822
H         -5.83601       -1.22281       -2.00551
H         -6.33305       -2.03461       -0.52551
H         -5.29863        0.97463       -2.06064
H         -6.06059        1.96723       -0.82227
H         -3.69854        2.58058       -0.93062
H         -3.18782        0.89663       -0.78084
H         -5.66016        2.93792        1.33034
H         -4.14661        3.81311        1.03734
H         -4.39711        2.98013        2.57777
H         -4.30983        0.61723        2.68933
H         -3.57692       -0.27890        1.35146
H         -6.46763        0.73802        1.51168
H         -5.95093       -0.94444        1.56203
H          6.70561       -1.86497        1.40463
H          6.98862       -2.25814       -0.30044
H          6.74807       -3.54763        0.87438
