
    -----------------------------------------------------------------------
          Psi4: An Open-Source Ab Initio Electronic Structure Package
                               Psi4 1.3.2 release

                         Git: Rev {HEAD} ecbda83 


    R. M. Parrish, L. A. Burns, D. G. A. Smith, A. C. Simmonett,
    A. E. DePrince III, E. G. Hohenstein, U. Bozkaya, A. Yu. Sokolov,
    R. Di Remigio, R. M. Richard, J. F. Gonthier, A. M. James,
    H. R. McAlexander, A. Kumar, M. Saitow, X. Wang, B. P. Pritchard,
    P. Verma, H. F. Schaefer III, K. Patkowski, R. A. King, E. F. Valeev,
    F. A. Evangelista, J. M. Turney, T. D. Crawford, and C. D. Sherrill,
    J. Chem. Theory Comput. 13(7) pp 3185--3197 (2017).
    (doi: 10.1021/acs.jctc.7b00174)


                         Additional Contributions by
    P. Kraus, H. Kruse, M. H. Lechner, M. C. Schieber, R. A. Shaw,
    A. Alenaizan, R. Galvelis, Z. L. Glick, S. Lehtola, and J. P. Misiewicz

    -----------------------------------------------------------------------


    Psi4 started on: Tuesday, 14 April 2020 06:07AM

    Process ID: 127636
    Host:       node86.bme.utexas.edu
    PSIDATADIR: /home/bdw2292/miniconda3/envs/p4env/share/psi4
    Memory:     500.0 MiB
    Threads:    1
    
  ==> Input File <==

--------------------------------------------------------------------------
molecule { 
0 1
 C   -0.611772    4.162070   -0.019010
 C    0.769061    4.246956    0.207423
 C    1.574859    3.099639    0.072091
 C    0.903475    1.918954   -0.330795
 N   -0.413165    1.818484   -0.555584
 C   -1.152922    2.926474   -0.392627
 C    3.063054    3.081575    0.317696
 C    3.865365    4.210031    0.552067
 C    5.232592    3.960348    0.725304
 N    5.786351    2.749366    0.693656
 C    4.939116    1.721562    0.484484
 N    3.625239    1.859697    0.300867
 N    5.512729    0.460820    0.468009
 C    4.981732   -0.858141    0.218071
 C    5.865632   -1.929904   -0.111968
 C    5.287644   -3.183591   -0.378045
 C    3.910513   -3.435729   -0.342541
 C    3.057016   -2.387115    0.014511
 C    3.609629   -1.127900    0.295722
 N    1.630316   -2.454288    0.099095
 C    0.727748   -3.428761   -0.263348
 C   -0.735619   -3.022509   -0.278711
 C   -1.163747   -1.720790   -0.588562
 C   -2.514632   -1.378565   -0.512471
 C   -3.500733   -2.319993   -0.162074
 C   -3.061366   -3.639498    0.077400
 C   -1.709487   -3.990890    0.013289
 C   -4.986619   -1.978945    0.014754
 N   -5.524031   -0.643086   -0.320299
 C   -7.001182   -0.568896   -0.430944
 C   -7.540423    0.816691   -0.865161
 N   -7.099681    1.935617   -0.002283
 C   -7.867078    2.150850    1.230087
 C   -5.628597    1.861112    0.140760
 C   -5.087500    0.472564    0.565381
 O    1.065606   -4.567812   -0.546747
 C    7.372679   -1.763303   -0.211036
 H   -1.253854    5.031016    0.090933
 H    1.189471    5.203768    0.507399
 H    1.461112    1.004113   -0.506856
 H   -2.219607    2.809381   -0.580061
 H    3.498142    5.228618    0.580747
 H    5.945112    4.766440    0.898390
 H    6.512222    0.544127    0.577363
 H    5.935446   -4.018125   -0.643541
 H    3.501338   -4.410385   -0.578001
 H    2.954616   -0.324460    0.588337
 H    1.202170   -1.593990    0.410293
 H   -0.438934   -0.963522   -0.877341
 H   -2.782856   -0.356462   -0.767704
 H   -3.785886   -4.408393    0.345917
 H   -1.388331   -5.010121    0.213547
 H   -5.509526   -2.719554   -0.608522
 H   -5.253261   -2.148798    1.069244
 H   -7.449537   -1.558854   -1.455950
 H   -7.594511   -0.946276    0.849738
 H   -8.687071    0.816589   -0.944755
 H   -6.989362    1.095313   -2.247282
 H   -7.762480    1.298244    1.910798
 H   -8.929144    2.286619    0.995011
 H   -7.518490    3.056184    1.740546
 H   -5.224860    2.817171    1.040958
 H   -5.037156    2.199122   -1.196790
 H   -5.597674    0.186414    1.970593
 H   -4.094592    0.500123    0.630805
 H    7.827693   -1.449723    0.739402
 H    7.636809   -1.010781   -0.959437
 H    7.879858   -2.686033   -0.504804
}
memory 20GB
set_num_threads(6)
psi4_io.set_default_path("/scratch/bdw2292")
set freeze_core True
E, wfn = energy('mp2/6-311++G**',return_wfn=True)
oeprop(wfn,"WIBERG_LOWDIN_INDICES")
clean()
--------------------------------------------------------------------------

  Memory set to  18.626 GiB by Python driver.
  Threads set to 6 by Python driver.
    SCF Algorithm Type (re)set to DF.

*** tstart() called on node86.bme.utexas.edu
*** at Tue Apr 14 06:07:09 2020

   => Loading Basis Set <=

    Name: 6-311++G**
    Role: ORBITAL
    Keyword: BASIS
    atoms 1-4, 6-9, 11, 14-19, 21-28, 30-31, 33-35, 37 entry C          line   119 file /home/bdw2292/miniconda3/envs/p4env/share/psi4/basis/6-311ppgss.gbs 
    atoms 5, 10, 12-13, 20, 29, 32                     entry N          line   140 file /home/bdw2292/miniconda3/envs/p4env/share/psi4/basis/6-311ppgss.gbs 
    atoms 36                                           entry O          line   161 file /home/bdw2292/miniconda3/envs/p4env/share/psi4/basis/6-311ppgss.gbs 
    atoms 38-68                                        entry H          line    42 file /home/bdw2292/miniconda3/envs/p4env/share/psi4/basis/6-311ppgss.gbs 


         ---------------------------------------------------------
                                   SCF
               by Justin Turney, Rob Parrish, Andy Simmonett
                          and Daniel G. A. Smith
                              RHF Reference
                        6 Threads,  19073 MiB Core
         ---------------------------------------------------------

  ==> Geometry <==

    Molecular point group: c1
    Full point group: C1

    Geometry (in Angstrom), charge = 0, multiplicity = 1:

       Center              X                  Y                   Z               Mass       
    ------------   -----------------  -----------------  -----------------  -----------------
         C           -0.723647046228     4.188144164705    -0.028418973072    12.000000000000
         C            0.657185953772     4.273030164705     0.198014026928    12.000000000000
         C            1.462983953772     3.125713164705     0.062682026928    12.000000000000
         C            0.791599953772     1.945028164705    -0.340203973072    12.000000000000
         N           -0.525040046228     1.844558164705    -0.564992973072    14.003074004430
         C           -1.264797046228     2.952548164705    -0.402035973072    12.000000000000
         C            2.951178953772     3.107649164705     0.308287026928    12.000000000000
         C            3.753489953772     4.236105164705     0.542658026928    12.000000000000
         C            5.120716953772     3.986422164705     0.715895026928    12.000000000000
         N            5.674475953772     2.775440164705     0.684247026928    14.003074004430
         C            4.827240953772     1.747636164705     0.475075026928    12.000000000000
         N            3.513363953772     1.885771164705     0.291458026928    14.003074004430
         N            5.400853953772     0.486894164705     0.458600026928    14.003074004430
         C            4.869856953772    -0.832066835295     0.208662026928    12.000000000000
         C            5.753756953772    -1.903829835295    -0.121376973072    12.000000000000
         C            5.175768953772    -3.157516835295    -0.387453973072    12.000000000000
         C            3.798637953772    -3.409654835295    -0.351949973072    12.000000000000
         C            2.945140953772    -2.361040835295     0.005102026928    12.000000000000
         C            3.497753953772    -1.101825835295     0.286313026928    12.000000000000
         N            1.518440953772    -2.428213835295     0.089686026928    14.003074004430
         C            0.615872953772    -3.402686835295    -0.272756973072    12.000000000000
         C           -0.847494046228    -2.996434835295    -0.288119973072    12.000000000000
         C           -1.275622046228    -1.694715835295    -0.597970973072    12.000000000000
         C           -2.626507046228    -1.352490835295    -0.521879973072    12.000000000000
         C           -3.612608046228    -2.293918835295    -0.171482973072    12.000000000000
         C           -3.173241046228    -3.613423835295     0.067991026928    12.000000000000
         C           -1.821362046228    -3.964815835295     0.003880026928    12.000000000000
         C           -5.098494046228    -1.952870835295     0.005345026928    12.000000000000
         N           -5.635906046228    -0.617011835295    -0.329707973072    14.003074004430
         C           -7.113057046228    -0.542821835295    -0.440352973072    12.000000000000
         C           -7.652298046228     0.842765164705    -0.874569973072    12.000000000000
         N           -7.211556046228     1.961691164705    -0.011691973072    14.003074004430
         C           -7.978953046228     2.176924164705     1.220678026928    12.000000000000
         C           -5.740472046228     1.887186164705     0.131351026928    12.000000000000
         C           -5.199375046228     0.498638164705     0.555972026928    12.000000000000
         O            0.953730953772    -4.541737835295    -0.556155973072    15.994914619570
         C            7.260803953772    -1.737228835295    -0.220444973072    12.000000000000
         H           -1.365729046228     5.057090164705     0.081524026928     1.007825032230
         H            1.077595953772     5.229842164705     0.497990026928     1.007825032230
         H            1.349236953772     1.030187164705    -0.516264973072     1.007825032230
         H           -2.331482046228     2.835455164705    -0.589469973072     1.007825032230
         H            3.386266953772     5.254692164705     0.571338026928     1.007825032230
         H            5.833236953772     4.792514164705     0.888981026928     1.007825032230
         H            6.400346953772     0.570201164705     0.567954026928     1.007825032230
         H            5.823570953772    -3.992050835295    -0.652949973072     1.007825032230
         H            3.389462953772    -4.384310835295    -0.587409973072     1.007825032230
         H            2.842740953772    -0.298385835295     0.578928026928     1.007825032230
         H            1.090294953772    -1.567915835295     0.400884026928     1.007825032230
         H           -0.550809046228    -0.937447835295    -0.886749973072     1.007825032230
         H           -2.894731046228    -0.330387835295    -0.777112973072     1.007825032230
         H           -3.897761046228    -4.382318835295     0.336508026928     1.007825032230
         H           -1.500206046228    -4.984046835295     0.204138026928     1.007825032230
         H           -5.621401046228    -2.693479835295    -0.617930973072     1.007825032230
         H           -5.365136046228    -2.122723835295     1.059835026928     1.007825032230
         H           -7.561412046228    -1.532779835295    -1.465358973072     1.007825032230
         H           -7.706386046228    -0.920201835295     0.840329026928     1.007825032230
         H           -8.798946046228     0.842663164705    -0.954163973072     1.007825032230
         H           -7.101237046228     1.121387164705    -2.256690973072     1.007825032230
         H           -7.874355046228     1.324318164705     1.901389026928     1.007825032230
         H           -9.041019046228     2.312693164705     0.985602026928     1.007825032230
         H           -7.630365046228     3.082258164705     1.731137026928     1.007825032230
         H           -5.336735046228     2.843245164705     1.031549026928     1.007825032230
         H           -5.149031046228     2.225196164705    -1.206198973072     1.007825032230
         H           -5.709549046228     0.212488164705     1.961184026928     1.007825032230
         H           -4.206467046228     0.526197164705     0.621396026928     1.007825032230
         H            7.715817953772    -1.423648835295     0.729993026928     1.007825032230
         H            7.524933953772    -0.984706835295    -0.968845973072     1.007825032230
         H            7.767982953772    -2.659958835295    -0.514212973072     1.007825032230

  Running in c1 symmetry.

  Rotational constants: A =      0.00467  B =      0.00171  C =      0.00127 [cm^-1]
  Rotational constants: A =    140.08322  B =     51.26089  C =     38.07335 [MHz]
  Nuclear repulsion = 3684.919550392539350

  Charge       = 0
  Multiplicity = 1
  Electrons    = 262
  Nalpha       = 131
  Nbeta        = 131

  ==> Algorithm <==

  SCF Algorithm Type is DF.
  DIIS enabled.
  MOM disabled.
  Fractional occupation disabled.
  Guess Type is SAD.
  Energy threshold   = 1.00e-08
  Density threshold  = 1.00e-08
  Integral threshold = 0.00e+00

  ==> Primary Basis <==

  Basis Set: 6-311++G**
    Blend: 6-311++G**
    Number of shells: 525
    Number of basis function: 1031
    Number of Cartesian functions: 1068
    Spherical Harmonics?: true
    Max angular momentum: 2

   => Loading Basis Set <=

    Name: (6-311++G** AUX)
    Role: JKFIT
    Keyword: DF_BASIS_SCF
    atoms 1-4, 6-9, 11, 14-19, 21-28, 30-31, 33-35, 37 entry C          line   162 file /home/bdw2292/miniconda3/envs/p4env/share/psi4/basis/aug-cc-pvtz-jkfit.gbs 
    atoms 5, 10, 12-13, 20, 29, 32                     entry N          line   224 file /home/bdw2292/miniconda3/envs/p4env/share/psi4/basis/aug-cc-pvtz-jkfit.gbs 
    atoms 36                                           entry O          line   286 file /home/bdw2292/miniconda3/envs/p4env/share/psi4/basis/aug-cc-pvtz-jkfit.gbs 
    atoms 38-68                                        entry H          line    70 file /home/bdw2292/miniconda3/envs/p4env/share/psi4/basis/aug-cc-pvtz-jkfit.gbs 

  ==> Pre-Iterations <==

   -------------------------------------------------------
    Irrep   Nso     Nmo     Nalpha   Nbeta   Ndocc  Nsocc
   -------------------------------------------------------
     A       1031    1031       0       0       0       0
   -------------------------------------------------------
    Total    1031    1031     131     131     131       0
   -------------------------------------------------------

  ==> Integral Setup <==

  ==> DiskDFJK: Density-Fitted J/K Matrices <==

    J tasked:                  Yes
    K tasked:                  Yes
    wK tasked:                  No
    OpenMP threads:              6
    Integrals threads:           6
    Memory [MiB]:            14305
    Algorithm:                Core
    Integral Cache:           NONE
    Schwarz Cutoff:          1E-12
    Fitting Condition:       1E-10

   => Auxiliary Basis Set <=

  Basis Set: (6-311++G** AUX)
    Blend: AUG-CC-PVTZ-JKFIT
    Number of shells: 1544
    Number of basis function: 5274
    Number of Cartesian functions: 6552
    Spherical Harmonics?: true
    Max angular momentum: 4

  Minimum eigenvalue in the overlap matrix is 9.7654106449E-08.
  Using Canonical Orthogonalization with cutoff of 1.0000000000E-07.
  Overall, 1 of 1031 possible MOs eliminated.

  SCF Guess: Superposition of Atomic Densities via on-the-fly atomic UHF.

  ==> Iterations <==

                           Total Energy        Delta E     RMS |[F,P]|

   @DF-RHF iter SAD: -1571.03414245570366   -1.57103e+03   0.00000e+00 
   @DF-RHF iter   1: -1571.28967008794598   -2.55528e-01   1.21203e-03 DIIS
   @DF-RHF iter   2: -1572.06406761867811   -7.74398e-01   6.35897e-04 DIIS
   @DF-RHF iter   3: -1572.25502083890706   -1.90953e-01   1.61929e-04 DIIS
   @DF-RHF iter   4: -1572.27205387590016   -1.70330e-02   6.36940e-05 DIIS
   @DF-RHF iter   5: -1572.27447758342078   -2.42371e-03   1.26785e-05 DIIS
   @DF-RHF iter   6: -1572.27462056159038   -1.42978e-04   6.06432e-06 DIIS
   @DF-RHF iter   7: -1572.27465440755691   -3.38460e-05   1.99280e-06 DIIS
   @DF-RHF iter   8: -1572.27465989068423   -5.48313e-06   8.11476e-07 DIIS
   @DF-RHF iter   9: -1572.27466085507285   -9.64389e-07   3.17428e-07 DIIS
   @DF-RHF iter  10: -1572.27466104111500   -1.86042e-07   1.38026e-07 DIIS
   @DF-RHF iter  11: -1572.27466107825830   -3.71433e-08   6.76234e-08 DIIS
   @DF-RHF iter  12: -1572.27466108838848   -1.01302e-08   2.70076e-08 DIIS
   @DF-RHF iter  13: -1572.27466109021088   -1.82240e-09   1.17340e-08 DIIS
   @DF-RHF iter  14: -1572.27466109052057   -3.09683e-10   5.56733e-09 DIIS
  Energy and wave function converged.


  ==> Post-Iterations <==

    Orbital Energies [Eh]
    ---------------------

    Doubly Occupied:                                                      

       1A    -20.519650     2A    -15.603698     3A    -15.599481  
       4A    -15.590237     5A    -15.586462     6A    -15.573456  
       7A    -15.572712     8A    -15.567886     9A    -11.374305  
      10A    -11.362490    11A    -11.344704    12A    -11.339755  
      13A    -11.334176    14A    -11.318949    15A    -11.313783  
      16A    -11.305164    17A    -11.300990    18A    -11.300631  
      19A    -11.300158    20A    -11.291838    21A    -11.289318  
      22A    -11.280198    23A    -11.279856    24A    -11.265586  
      25A    -11.265476    26A    -11.260168    27A    -11.252582  
      28A    -11.252452    29A    -11.249795    30A    -11.248670  
      31A    -11.246625    32A    -11.244491    33A    -11.240812  
      34A    -11.239424    35A    -11.233360    36A    -11.229967  
      37A    -11.224503    38A     -1.383805    39A     -1.344687  
      40A     -1.278048    41A     -1.257793    42A     -1.250090  
      43A     -1.240742    44A     -1.214989    45A     -1.209249  
      46A     -1.160314    47A     -1.138942    48A     -1.115591  
      49A     -1.074933    50A     -1.060380    51A     -1.048105  
      52A     -1.037547    53A     -1.020232    54A     -1.007543  
      55A     -1.007191    56A     -0.985261    57A     -0.948513  
      58A     -0.930775    59A     -0.926219    60A     -0.900527  
      61A     -0.874578    62A     -0.872293    63A     -0.857904  
      64A     -0.848328    65A     -0.839733    66A     -0.828814  
      67A     -0.824302    68A     -0.802041    69A     -0.776448  
      70A     -0.753703    71A     -0.737880    72A     -0.729560  
      73A     -0.721113    74A     -0.702551    75A     -0.696675  
      76A     -0.682130    77A     -0.675809    78A     -0.667939  
      79A     -0.661823    80A     -0.656002    81A     -0.651362  
      82A     -0.648945    83A     -0.639103    84A     -0.631262  
      85A     -0.628987    86A     -0.620925    87A     -0.617861  
      88A     -0.613315    89A     -0.610578    90A     -0.605448  
      91A     -0.602450    92A     -0.596271    93A     -0.595060  
      94A     -0.591398    95A     -0.587208    96A     -0.581522  
      97A     -0.579481    98A     -0.569979    99A     -0.561200  
     100A     -0.559500   101A     -0.551410   102A     -0.546916  
     103A     -0.544282   104A     -0.534735   105A     -0.522385  
     106A     -0.514446   107A     -0.512456   108A     -0.508396  
     109A     -0.507399   110A     -0.506699   111A     -0.496284  
     112A     -0.494356   113A     -0.483952   114A     -0.478153  
     115A     -0.467632   116A     -0.451359   117A     -0.442610  
     118A     -0.441009   119A     -0.425674   120A     -0.424578  
     121A     -0.413729   122A     -0.402873   123A     -0.399913  
     124A     -0.373203   125A     -0.370411   126A     -0.347153  
     127A     -0.345932   128A     -0.340524   129A     -0.334469  
     130A     -0.313238   131A     -0.289692  

    Virtual:                                                              

     132A      0.027031   133A      0.035756   134A      0.040183  
     135A      0.042065   136A      0.044291   137A      0.047154  
     138A      0.047876   139A      0.053794   140A      0.059319  
     141A      0.060467   142A      0.064586   143A      0.064901  
     144A      0.067501   145A      0.070451   146A      0.072062  
     147A      0.074398   148A      0.077855   149A      0.080418  
     150A      0.082399   151A      0.085211   152A      0.087922  
     153A      0.089517   154A      0.091953   155A      0.093907  
     156A      0.098885   157A      0.099997   158A      0.102524  
     159A      0.105686   160A      0.106497   161A      0.107540  
     162A      0.113101   163A      0.113526   164A      0.115998  
     165A      0.116515   166A      0.119897   167A      0.123009  
     168A      0.123852   169A      0.128524   170A      0.130498  
     171A      0.134189   172A      0.138161   173A      0.141291  
     174A      0.143160   175A      0.145109   176A      0.146815  
     177A      0.149289   178A      0.151813   179A      0.152822  
     180A      0.155432   181A      0.157244   182A      0.158758  
     183A      0.159953   184A      0.162099   185A      0.164615  
     186A      0.167563   187A      0.170168   188A      0.173478  
     189A      0.174112   190A      0.176352   191A      0.177424  
     192A      0.178681   193A      0.180763   194A      0.182575  
     195A      0.183399   196A      0.184778   197A      0.185981  
     198A      0.188664   199A      0.190825   200A      0.191197  
     201A      0.193328   202A      0.194657   203A      0.196452  
     204A      0.199669   205A      0.201510   206A      0.203743  
     207A      0.204892   208A      0.206197   209A      0.207303  
     210A      0.210064   211A      0.213881   212A      0.215526  
     213A      0.215889   214A      0.217466   215A      0.217929  
     216A      0.221045   217A      0.222814   218A      0.224207  
     219A      0.226648   220A      0.228753   221A      0.230119  
     222A      0.231758   223A      0.233869   224A      0.236468  
     225A      0.238967   226A      0.239914   227A      0.241307  
     228A      0.242482   229A      0.244579   230A      0.246698  
     231A      0.248318   232A      0.250992   233A      0.254159  
     234A      0.256266   235A      0.258656   236A      0.260595  
     237A      0.262776   238A      0.265182   239A      0.267295  
     240A      0.270118   241A      0.271560   242A      0.273122  
     243A      0.274011   244A      0.275699   245A      0.280104  
     246A      0.281043   247A      0.284593   248A      0.289026  
     249A      0.291211   250A      0.292692   251A      0.293053  
     252A      0.294274   253A      0.300022   254A      0.302099  
     255A      0.304499   256A      0.307776   257A      0.309105  
     258A      0.310882   259A      0.311899   260A      0.314937  
     261A      0.316688   262A      0.319713   263A      0.322530  
     264A      0.325471   265A      0.326638   266A      0.328432  
     267A      0.330435   268A      0.331155   269A      0.333019  
     270A      0.336022   271A      0.340175   272A      0.341235  
     273A      0.344451   274A      0.346102   275A      0.347817  
     276A      0.350468   277A      0.352090   278A      0.354001  
     279A      0.354901   280A      0.358442   281A      0.362643  
     282A      0.363471   283A      0.364437   284A      0.367276  
     285A      0.369747   286A      0.370913   287A      0.371415  
     288A      0.374664   289A      0.376724   290A      0.376972  
     291A      0.380408   292A      0.381415   293A      0.382170  
     294A      0.384712   295A      0.385305   296A      0.386296  
     297A      0.387234   298A      0.390078   299A      0.394363  
     300A      0.395490   301A      0.398131   302A      0.401123  
     303A      0.402117   304A      0.402377   305A      0.404693  
     306A      0.406606   307A      0.408607   308A      0.409855  
     309A      0.412813   310A      0.413481   311A      0.415058  
     312A      0.415733   313A      0.417627   314A      0.419088  
     315A      0.421110   316A      0.425402   317A      0.427932  
     318A      0.430145   319A      0.431605   320A      0.433322  
     321A      0.433978   322A      0.438277   323A      0.438798  
     324A      0.441017   325A      0.442480   326A      0.443425  
     327A      0.446285   328A      0.448392   329A      0.448869  
     330A      0.450944   331A      0.451191   332A      0.455800  
     333A      0.456075   334A      0.458810   335A      0.461312  
     336A      0.463328   337A      0.465845   338A      0.466543  
     339A      0.469339   340A      0.473933   341A      0.475876  
     342A      0.478060   343A      0.479604   344A      0.481588  
     345A      0.486537   346A      0.488508   347A      0.489597  
     348A      0.496252   349A      0.498185   350A      0.499235  
     351A      0.501511   352A      0.503896   353A      0.508536  
     354A      0.509193   355A      0.510291   356A      0.516363  
     357A      0.518435   358A      0.522571   359A      0.525045  
     360A      0.529223   361A      0.530865   362A      0.537083  
     363A      0.537818   364A      0.542271   365A      0.544899  
     366A      0.550017   367A      0.555780   368A      0.556591  
     369A      0.562638   370A      0.566446   371A      0.571004  
     372A      0.576359   373A      0.583570   374A      0.590992  
     375A      0.595456   376A      0.598139   377A      0.600632  
     378A      0.604263   379A      0.611538   380A      0.613019  
     381A      0.618174   382A      0.625943   383A      0.627727  
     384A      0.634776   385A      0.640650   386A      0.647227  
     387A      0.662732   388A      0.666768   389A      0.677852  
     390A      0.686302   391A      0.690398   392A      0.699193  
     393A      0.701739   394A      0.708340   395A      0.712361  
     396A      0.712860   397A      0.717727   398A      0.723073  
     399A      0.726700   400A      0.728098   401A      0.736547  
     402A      0.737890   403A      0.742180   404A      0.749889  
     405A      0.752928   406A      0.760112   407A      0.761577  
     408A      0.766462   409A      0.767442   410A      0.768009  
     411A      0.775330   412A      0.776556   413A      0.779465  
     414A      0.782496   415A      0.784688   416A      0.790961  
     417A      0.796013   418A      0.799739   419A      0.802813  
     420A      0.805432   421A      0.809468   422A      0.814884  
     423A      0.817645   424A      0.821304   425A      0.822411  
     426A      0.827084   427A      0.829002   428A      0.832333  
     429A      0.834178   430A      0.836634   431A      0.839886  
     432A      0.845335   433A      0.849229   434A      0.851951  
     435A      0.855829   436A      0.861779   437A      0.863489  
     438A      0.870026   439A      0.873012   440A      0.875955  
     441A      0.880704   442A      0.884154   443A      0.886124  
     444A      0.888258   445A      0.891871   446A      0.892564  
     447A      0.896102   448A      0.897725   449A      0.903394  
     450A      0.905739   451A      0.907558   452A      0.912616  
     453A      0.915910   454A      0.920941   455A      0.924572  
     456A      0.927313   457A      0.928660   458A      0.931215  
     459A      0.935828   460A      0.938508   461A      0.938803  
     462A      0.941063   463A      0.946297   464A      0.948256  
     465A      0.951690   466A      0.956260   467A      0.957816  
     468A      0.959982   469A      0.963333   470A      0.968462  
     471A      0.978580   472A      0.980210   473A      0.982502  
     474A      0.982882   475A      0.988015   476A      0.995633  
     477A      1.000477   478A      1.002553   479A      1.004527  
     480A      1.009137   481A      1.017449   482A      1.022172  
     483A      1.026487   484A      1.030051   485A      1.033257  
     486A      1.037228   487A      1.043875   488A      1.049334  
     489A      1.053274   490A      1.056066   491A      1.059375  
     492A      1.065057   493A      1.069397   494A      1.073000  
     495A      1.074541   496A      1.077058   497A      1.085747  
     498A      1.089480   499A      1.092591   500A      1.094867  
     501A      1.099627   502A      1.106145   503A      1.113195  
     504A      1.115969   505A      1.123482   506A      1.127648  
     507A      1.134591   508A      1.137580   509A      1.140016  
     510A      1.141880   511A      1.143262   512A      1.147991  
     513A      1.156334   514A      1.156672   515A      1.163985  
     516A      1.164500   517A      1.171781   518A      1.173059  
     519A      1.178120   520A      1.182457   521A      1.184738  
     522A      1.187748   523A      1.189678   524A      1.197685  
     525A      1.200458   526A      1.202226   527A      1.210143  
     528A      1.213337   529A      1.218071   530A      1.219966  
     531A      1.221055   532A      1.226060   533A      1.228223  
     534A      1.232660   535A      1.237879   536A      1.240428  
     537A      1.243474   538A      1.250613   539A      1.255510  
     540A      1.257146   541A      1.260748   542A      1.268263  
     543A      1.276481   544A      1.276788   545A      1.280193  
     546A      1.282869   547A      1.285772   548A      1.290059  
     549A      1.295237   550A      1.295764   551A      1.308460  
     552A      1.310099   553A      1.317084   554A      1.324494  
     555A      1.326779   556A      1.339676   557A      1.341562  
     558A      1.348780   559A      1.354055   560A      1.356577  
     561A      1.360557   562A      1.370149   563A      1.377678  
     564A      1.379818   565A      1.386621   566A      1.395827  
     567A      1.404015   568A      1.410326   569A      1.417790  
     570A      1.424298   571A      1.429937   572A      1.437327  
     573A      1.443587   574A      1.447621   575A      1.451997  
     576A      1.456046   577A      1.468088   578A      1.474504  
     579A      1.480738   580A      1.487647   581A      1.496957  
     582A      1.497499   583A      1.503366   584A      1.513203  
     585A      1.522752   586A      1.527430   587A      1.529052  
     588A      1.544609   589A      1.553733   590A      1.567640  
     591A      1.572603   592A      1.572780   593A      1.583943  
     594A      1.595852   595A      1.605902   596A      1.618544  
     597A      1.621224   598A      1.625360   599A      1.635829  
     600A      1.643403   601A      1.648989   602A      1.655891  
     603A      1.676035   604A      1.681037   605A      1.695252  
     606A      1.698377   607A      1.709532   608A      1.711655  
     609A      1.724156   610A      1.728521   611A      1.733204  
     612A      1.745255   613A      1.751531   614A      1.752431  
     615A      1.759996   616A      1.763937   617A      1.773412  
     618A      1.779806   619A      1.781968   620A      1.787243  
     621A      1.794435   622A      1.797751   623A      1.799889  
     624A      1.804648   625A      1.808162   626A      1.809953  
     627A      1.813178   628A      1.818443   629A      1.819903  
     630A      1.823496   631A      1.828831   632A      1.833832  
     633A      1.835302   634A      1.840265   635A      1.843148  
     636A      1.846054   637A      1.849503   638A      1.853357  
     639A      1.856591   640A      1.858547   641A      1.859627  
     642A      1.865749   643A      1.866678   644A      1.873242  
     645A      1.876129   646A      1.878198   647A      1.879551  
     648A      1.884418   649A      1.898945   650A      1.899732  
     651A      1.920110   652A      1.923207   653A      1.924299  
     654A      1.930806   655A      1.934793   656A      1.938524  
     657A      1.944526   658A      1.947913   659A      1.956067  
     660A      1.959373   661A      1.964142   662A      1.967967  
     663A      1.971370   664A      1.980428   665A      1.983666  
     666A      1.986017   667A      1.989106   668A      1.997320  
     669A      1.998367   670A      2.004963   671A      2.011095  
     672A      2.013546   673A      2.016714   674A      2.018866  
     675A      2.031115   676A      2.032662   677A      2.041289  
     678A      2.045293   679A      2.050048   680A      2.059818  
     681A      2.063962   682A      2.069487   683A      2.072202  
     684A      2.078803   685A      2.084995   686A      2.092105  
     687A      2.092832   688A      2.096923   689A      2.102047  
     690A      2.104900   691A      2.113858   692A      2.119064  
     693A      2.127786   694A      2.135285   695A      2.143462  
     696A      2.144986   697A      2.149559   698A      2.157242  
     699A      2.168412   700A      2.175457   701A      2.179907  
     702A      2.181522   703A      2.185195   704A      2.194178  
     705A      2.198067   706A      2.209217   707A      2.219190  
     708A      2.223013   709A      2.226201   710A      2.238344  
     711A      2.243725   712A      2.246426   713A      2.251156  
     714A      2.252087   715A      2.257306   716A      2.258728  
     717A      2.260997   718A      2.270924   719A      2.272959  
     720A      2.276431   721A      2.283158   722A      2.292430  
     723A      2.299842   724A      2.303227   725A      2.305269  
     726A      2.313216   727A      2.318460   728A      2.320596  
     729A      2.330770   730A      2.339576   731A      2.347351  
     732A      2.352789   733A      2.359458   734A      2.362502  
     735A      2.368646   736A      2.376151   737A      2.379700  
     738A      2.384571   739A      2.394443   740A      2.402319  
     741A      2.405239   742A      2.409250   743A      2.420181  
     744A      2.421559   745A      2.427772   746A      2.437651  
     747A      2.441967   748A      2.449770   749A      2.459381  
     750A      2.461764   751A      2.474130   752A      2.478593  
     753A      2.488878   754A      2.495774   755A      2.502731  
     756A      2.505061   757A      2.510490   758A      2.533821  
     759A      2.544369   760A      2.553447   761A      2.555808  
     762A      2.563228   763A      2.570056   764A      2.578258  
     765A      2.579693   766A      2.598963   767A      2.612330  
     768A      2.618725   769A      2.622560   770A      2.636862  
     771A      2.648548   772A      2.653899   773A      2.662893  
     774A      2.680409   775A      2.684025   776A      2.699966  
     777A      2.712441   778A      2.721304   779A      2.734600  
     780A      2.739053   781A      2.747935   782A      2.748143  
     783A      2.770392   784A      2.777473   785A      2.781003  
     786A      2.783611   787A      2.791774   788A      2.804351  
     789A      2.812514   790A      2.817064   791A      2.823958  
     792A      2.832504   793A      2.834979   794A      2.843769  
     795A      2.855304   796A      2.861733   797A      2.864346  
     798A      2.878678   799A      2.881366   800A      2.893656  
     801A      2.899235   802A      2.908101   803A      2.917163  
     804A      2.929213   805A      2.936567   806A      2.941121  
     807A      2.952624   808A      2.959207   809A      2.961577  
     810A      2.967701   811A      2.970678   812A      2.976918  
     813A      2.980880   814A      2.987618   815A      2.989947  
     816A      2.999598   817A      3.004074   818A      3.010851  
     819A      3.016475   820A      3.018531   821A      3.024876  
     822A      3.029976   823A      3.036055   824A      3.040081  
     825A      3.043825   826A      3.055400   827A      3.058142  
     828A      3.061019   829A      3.062123   830A      3.071767  
     831A      3.079685   832A      3.087100   833A      3.091454  
     834A      3.096562   835A      3.101288   836A      3.106649  
     837A      3.107813   838A      3.110378   839A      3.114595  
     840A      3.119948   841A      3.122673   842A      3.128620  
     843A      3.135507   844A      3.143051   845A      3.157461  
     846A      3.160172   847A      3.163309   848A      3.169133  
     849A      3.171573   850A      3.183595   851A      3.195176  
     852A      3.202320   853A      3.206947   854A      3.214534  
     855A      3.217601   856A      3.232096   857A      3.235535  
     858A      3.246041   859A      3.251399   860A      3.255326  
     861A      3.258258   862A      3.268698   863A      3.281731  
     864A      3.285432   865A      3.287325   866A      3.292947  
     867A      3.295842   868A      3.296694   869A      3.301033  
     870A      3.304696   871A      3.315258   872A      3.327426  
     873A      3.330247   874A      3.331990   875A      3.333023  
     876A      3.338602   877A      3.343156   878A      3.349918  
     879A      3.356498   880A      3.360965   881A      3.365913  
     882A      3.367100   883A      3.372797   884A      3.387149  
     885A      3.390213   886A      3.395341   887A      3.399194  
     888A      3.407419   889A      3.431902   890A      3.437965  
     891A      3.461708   892A      3.467472   893A      3.506538  
     894A      3.519880   895A      3.522817   896A      3.547195  
     897A      3.563997   898A      3.572628   899A      3.593165  
     900A      3.605114   901A      3.613869   902A      3.626838  
     903A      3.634185   904A      3.652886   905A      3.668935  
     906A      3.673695   907A      3.683679   908A      3.689302  
     909A      3.749502   910A      3.764736   911A      3.776678  
     912A      3.779194   913A      3.791374   914A      3.800791  
     915A      3.810001   916A      3.821079   917A      3.823422  
     918A      3.847899   919A      3.858370   920A      3.869263  
     921A      3.877938   922A      3.899723   923A      3.920880  
     924A      3.925051   925A      3.931746   926A      3.942587  
     927A      3.959617   928A      3.962618   929A      3.977568  
     930A      4.009030   931A      4.040518   932A      4.049069  
     933A      4.068059   934A      4.076170   935A      4.089800  
     936A      4.091727   937A      4.102590   938A      4.111300  
     939A      4.120775   940A      4.127617   941A      4.142386  
     942A      4.158723   943A      4.188798   944A      4.189759  
     945A      4.193319   946A      4.195148   947A      4.217440  
     948A      4.239297   949A      4.293831   950A      4.357566  
     951A      4.363637   952A      4.382411   953A      4.398464  
     954A      4.415315   955A      4.422224   956A      4.428208  
     957A      4.431760   958A      4.436326   959A      4.443528  
     960A      4.445760   961A      4.455764   962A      4.520146  
     963A      4.544053   964A      4.551678   965A      4.556097  
     966A      4.587087   967A      4.619283   968A      4.624973  
     969A      4.649699   970A      4.718675   971A      4.769731  
     972A      4.774994   973A      4.789999   974A      4.910029  
     975A      4.941634   976A      5.002826   977A      5.045218  
     978A      5.209279   979A      5.232108   980A      5.248500  
     981A      5.279055   982A      5.291805   983A      5.328684  
     984A      5.353463   985A      5.403967   986A      5.414601  
     987A      5.611000   988A      5.689775   989A      5.697486  
     990A      5.799405   991A      5.854721   992A      5.867683  
     993A      6.394581   994A     24.744681   995A     24.755670  
     996A     24.766134   997A     24.800990   998A     24.841158  
     999A     24.895497  1000A     24.938614  1001A     25.012157  
    1002A     25.018207  1003A     25.024241  1004A     25.064896  
    1005A     25.071122  1006A     25.073579  1007A     25.091259  
    1008A     25.100114  1009A     25.106734  1010A     25.112937  
    1011A     25.115170  1012A     25.133067  1013A     25.136483  
    1014A     25.172500  1015A     25.199211  1016A     25.205254  
    1017A     25.234222  1018A     25.246075  1019A     25.248780  
    1020A     25.253205  1021A     25.322630  1022A     25.328601  
    1023A     36.932608  1024A     36.969128  1025A     37.021489  
    1026A     37.071505  1027A     37.076225  1028A     37.136013  
    1029A     37.154268  1030A     51.763869  

    Final Occupation by Irrep:
              A 
    DOCC [   131 ]

  @DF-RHF Final Energy: -1572.27466109052057

   => Energetics <=

    Nuclear Repulsion Energy =           3684.9195503925393496
    One-Electron Energy =               -9467.5231639865105535
    Two-Electron Energy =                4210.3289525034506369
    Total Energy =                      -1572.2746610905205671

Computation Completed


Properties will be evaluated at   0.000000,   0.000000,   0.000000 [a0]

Properties computed using the SCF density matrix

  Nuclear Dipole Moment: [e a0]
     X:   -42.6032      Y:     5.6290      Z:     2.8054

  Electronic Dipole Moment: [e a0]
     X:    42.1193      Y:    -3.0086      Z:    -1.8795

  Dipole Moment: [e a0]
     X:    -0.4838      Y:     2.6204      Z:     0.9260     Total:     2.8210

  Dipole Moment: [D]
     X:    -1.2298      Y:     6.6603      Z:     2.3535     Total:     7.1702


*** tstop() called on node86.bme.utexas.edu at Tue Apr 14 06:21:41 2020
Module time:
	user time   =    4495.75 seconds =      74.93 minutes
	system time =     111.80 seconds =       1.86 minutes
	total time  =        872 seconds =      14.53 minutes
Total time:
	user time   =    4495.75 seconds =      74.93 minutes
	system time =     111.80 seconds =       1.86 minutes
	total time  =        872 seconds =      14.53 minutes

*** tstart() called on node86.bme.utexas.edu
*** at Tue Apr 14 06:21:41 2020


  //>>>>>>>>>>>>>>>>>>>>>>>>>>>>>>>>>>>//
  //               DFMP2               //
  //<<<<<<<<<<<<<<<<<<<<<<<<<<<<<<<<<<<//

   => Loading Basis Set <=

    Name: (6-311++G** AUX)
    Role: RIFIT
    Keyword: DF_BASIS_MP2
    atoms 1-4, 6-9, 11, 14-19, 21-28, 30-31, 33-35, 37 entry C          line   148 file /home/bdw2292/miniconda3/envs/p4env/share/psi4/basis/aug-cc-pvtz-ri.gbs 
    atoms 5, 10, 12-13, 20, 29, 32                     entry N          line   206 file /home/bdw2292/miniconda3/envs/p4env/share/psi4/basis/aug-cc-pvtz-ri.gbs 
    atoms 36                                           entry O          line   264 file /home/bdw2292/miniconda3/envs/p4env/share/psi4/basis/aug-cc-pvtz-ri.gbs 
    atoms 38-68                                        entry H          line    30 file /home/bdw2292/miniconda3/envs/p4env/share/psi4/basis/aug-cc-pvtz-ri.gbs 

	 --------------------------------------------------------
	                          DF-MP2                         
	      2nd-Order Density-Fitted Moller-Plesset Theory     
	              RMP2 Wavefunction,   6 Threads             
	                                                         
	        Rob Parrish, Justin Turney, Andy Simmonett,      
	           Ed Hohenstein, and C. David Sherrill          
	 --------------------------------------------------------

   => Auxiliary Basis Set <=

  Basis Set: (6-311++G** AUX)
    Blend: AUG-CC-PVTZ-RI
    Number of shells: 1470
    Number of basis function: 5348
    Number of Cartesian functions: 6737
    Spherical Harmonics?: true
    Max angular momentum: 4

	 --------------------------------------------------------
	                 NBF =  1031, NAUX =  5348
	 --------------------------------------------------------
	   CLASS    FOCC     OCC    AOCC    AVIR     VIR    FVIR
	   PAIRS      37     131      94     899     899       0
	 --------------------------------------------------------

	-----------------------------------------------------------
	 ==================> DF-MP2 Energies <==================== 
	-----------------------------------------------------------
	 Reference Energy          =   -1572.2746610905205671 [Eh]
	 Singles Energy            =      -0.0000000000000000 [Eh]
	 Same-Spin Energy          =      -1.4704091948168796 [Eh]
	 Opposite-Spin Energy      =      -4.0511829318899526 [Eh]
	 Correlation Energy        =      -5.5215921267068317 [Eh]
	 Total Energy              =   -1577.7962532172273313 [Eh]
	-----------------------------------------------------------
	 ================> DF-SCS-MP2 Energies <================== 
	-----------------------------------------------------------
	 SCS Same-Spin Scale       =       0.3333333333333333 [-]
	 SCS Opposite-Spin Scale   =       1.2000000000000000 [-]
	 SCS Same-Spin Energy      =      -0.4901363982722932 [Eh]
	 SCS Opposite-Spin Energy  =      -4.8614195182679429 [Eh]
	 SCS Correlation Energy    =      -5.3515559165402360 [Eh]
	 SCS Total Energy          =   -1577.6262170070608590 [Eh]
	-----------------------------------------------------------


*** tstop() called on node86.bme.utexas.edu at Tue Apr 14 06:29:35 2020
Module time:
	user time   =    2649.79 seconds =      44.16 minutes
	system time =      18.47 seconds =       0.31 minutes
	total time  =        474 seconds =       7.90 minutes
Total time:
	user time   =    7145.55 seconds =     119.09 minutes
	system time =     130.27 seconds =       2.17 minutes
	total time  =       1346 seconds =      22.43 minutes


Properties will be evaluated at   0.000000,   0.000000,   0.000000 [a0]
OEProp: No title given, name of density matrix used for the following properties is 'SCF density'


  Wiberg Bond Indices using Orthogonal Lowdin Orbitals:

  Irrep: 1 Size: 68 x 68

                 1                   2                   3                   4                   5

    1     0.00000000000000     1.46367070487127     0.12517482724081     0.14041166534924     0.12384983763193
    2     1.46367070487127     0.00000000000000     1.40164587902910     0.12855825699020     0.12144425507923
    3     0.12517482724081     1.40164587902910     0.00000000000000     1.36085211728647     0.11840158008915
    4     0.14041166534924     0.12855825699020     1.36085211728647     0.00000000000000     1.65878137247341
    5     0.12384983763193     0.12144425507923     0.11840158008915     1.65878137247341     0.00000000000000
    6     1.46425387833457     0.13819537583506     0.13550698106330     0.15327025848874     1.62383624213272
    7     0.01459339153810     0.10275243031850     1.02004417701421     0.10424998888103     0.01389360170627
    8     0.00350582813648     0.04114932655127     0.09805318348980     0.02374852496475     0.00217771574573
    9     0.00036237548178     0.00463239375247     0.01471755207215     0.00408193575264     0.00067108437108
   10     0.00041069117666     0.00535355740576     0.00578037674761     0.00600300837904     0.00032244083670
   11     0.00086276695065     0.00332895249140     0.01799660385860     0.00687957009990     0.00043184500089
   12     0.00280273830025     0.02204199810941     0.11945435599371     0.06205720143786     0.00410002401851
   13     0.00015962099318     0.00047265786472     0.00162874476703     0.00093204802844     0.00008524785123
   14     0.00003111859400     0.00009434890134     0.00059156294165     0.00137487089381     0.00011791682515
   15     0.00001031259348     0.00002327119606     0.00006917882039     0.00014680902515     0.00001651337520
   16     0.00000208993773     0.00000646236557     0.00004423444810     0.00028764720949     0.00001356929497
   17     0.00001238112163     0.00001911637632     0.00005684216635     0.00027225042823     0.00004457528888
   18     0.00003043799862     0.00005521164340     0.00030784064433     0.00195890250018     0.00025335215976
   19     0.00018775688857     0.00024554006224     0.00212493527929     0.01054118347050     0.00064532849477
   20     0.00007244117128     0.00007282211256     0.00033805716325     0.00321395487263     0.00072425061939
   21     0.00001458776495     0.00001374399318     0.00005709143533     0.00042212105576     0.00024900052219
   22     0.00006145448601     0.00004563604681     0.00005906132255     0.00072412023014     0.00177935343254
   23     0.00058776877395     0.00037490928204     0.00051940966625     0.00823941985278     0.02661111694781
   24     0.00029208478476     0.00026366787424     0.00036472237426     0.00205334198841     0.01630706087768
   25     0.00002168303199     0.00002167266083     0.00002858183075     0.00015624781301     0.00088703614959
   26     0.00001305081244     0.00000795493559     0.00001989521788     0.00023449607115     0.00062122277384
   27     0.00001311646431     0.00000692573047     0.00001685849736     0.00021635359187     0.00063160659828
   28     0.00000764641572     0.00000262363433     0.00000365596067     0.00002164407183     0.00008831611713
   29     0.00003442855879     0.00000508385862     0.00000794598272     0.00001918430729     0.00023036503327
   30     0.00001476840156     0.00000175321291     0.00000209112224     0.00000430432752     0.00003659290620
   31     0.00002518720609     0.00000235749191     0.00000169715695     0.00000372266852     0.00001591846597
   32     0.00009755384668     0.00000585979207     0.00000346628452     0.00000669215762     0.00003014523029
   33     0.00001758230359     0.00000195520932     0.00000162353769     0.00000251388801     0.00001299119453
   34     0.00068680141463     0.00008934256215     0.00015426127014     0.00018348869429     0.00044740282267
   35     0.00032216824709     0.00010353633115     0.00016146819146     0.00007534782277     0.00052680089601
   36     0.00000245754668     0.00000256652413     0.00001321778556     0.00011110151627     0.00004358042906
   37     0.00000221708623     0.00000724459478     0.00003248325426     0.00003459074516     0.00000299580692
   38     0.88583498456729     0.07913192229085     0.01175048256308     0.00634781988831     0.01072982327775
   39     0.07738254517058     0.87054413223962     0.07302241938898     0.01177901692739     0.00396091974963
   40     0.00563793113386     0.01046603444714     0.06889675229489     0.84921063579124     0.08660098771872
   41     0.07670305379200     0.01155452004420     0.00595631168997     0.01568886823183     0.08830657809232
   42     0.00103081377704     0.01377701846438     0.01425903658428     0.00136372140331     0.00028528076915
   43     0.00004402069335     0.00027336154326     0.00143331624829     0.00031704276784     0.00007677134291
   44     0.00002413069305     0.00008174912835     0.00035012695508     0.00009258707198     0.00000776023543
   45     0.00000035701045     0.00000109510097     0.00000712408022     0.00001883366150     0.00000174682790
   46     0.00000099531513     0.00000169163061     0.00000697233505     0.00002416663884     0.00000797930980
   47     0.00014147903713     0.00019615573184     0.00202342008338     0.00750685711232     0.00053803168585
   48     0.00013069550654     0.00007705722892     0.00022231949524     0.00249338507160     0.00080068248265
   49     0.00041754722023     0.00017662820695     0.00036212312063     0.00620105596370     0.01514484124816
   50     0.00014589008185     0.00009142625934     0.00017555984944     0.00062812039211     0.00601117721942
   51     0.00000110637098     0.00000074277880     0.00000207214526     0.00001823393977     0.00004158398999
   52     0.00000168917471     0.00000083285929     0.00000176742724     0.00001218769653     0.00005010135303
   53     0.00000095447970     0.00000019248621     0.00000029676056     0.00000522351953     0.00000846361700
   54     0.00000063502153     0.00000037825426     0.00000070748295     0.00000424991774     0.00001083909368
   55     0.00000234060248     0.00000025180679     0.00000038683045     0.00000039339866     0.00000389814263
   56     0.00000511942020     0.00000079503492     0.00000091092952     0.00000088348413     0.00000645636058
   57     0.00000168722485     0.00000022953442     0.00000036741877     0.00000046986372     0.00000269667753
   58     0.00000450074851     0.00000103673728     0.00000079105278     0.00000116513084     0.00000365405482
   59     0.00000270953878     0.00000080478924     0.00000085694217     0.00000141717882     0.00000736815636
   60     0.00000192029965     0.00000023251634     0.00000007558852     0.00000018295343     0.00000068730481
   61     0.00000318761071     0.00000033072959     0.00000018413446     0.00000024005579     0.00000201472998
   62     0.00024162176532     0.00001308980549     0.00005603749923     0.00004238334220     0.00008501873123
   63     0.00021852645366     0.00004407141824     0.00002753989496     0.00006189500292     0.00020342583856
   64     0.00002349554024     0.00000541990071     0.00000618753873     0.00000891033916     0.00009348344699
   65     0.00012977979705     0.00005420622069     0.00011180578569     0.00005073359418     0.00048226944685
   66     0.00000072928725     0.00000188059998     0.00001127105232     0.00000849367483     0.00000061367438
   67     0.00000100202579     0.00000275259762     0.00000973803664     0.00000831755788     0.00000074402174
   68     0.00000026568121     0.00000065272778     0.00000379589460     0.00000800252545     0.00000045061827

                 6                   7                   8                   9                  10

    1     1.46425387833457     0.01459339153810     0.00350582813648     0.00036237548178     0.00041069117666
    2     0.13819537583506     0.10275243031850     0.04114932655127     0.00463239375247     0.00535355740576
    3     0.13550698106330     1.02004417701421     0.09805318348980     0.01471755207215     0.00578037674761
    4     0.15327025848874     0.10424998888103     0.02374852496475     0.00408193575264     0.00600300837904
    5     1.62383624213272     0.01389360170627     0.00217771574573     0.00067108437108     0.00032244083670
    6     0.00000000000000     0.00977616328923     0.00677493831617     0.00119244761078     0.00332046852651
    7     0.00977616328923     0.00000000000000     1.38770051827699     0.14642183910498     0.11207125213392
    8     0.00677493831617     1.38770051827699     0.00000000000000     1.43252909064035     0.13027927169289
    9     0.00119244761078     0.14642183910498     1.43252909064035     0.00000000000000     1.66075241893317
   10     0.00332046852651     0.11207125213392     0.13027927169289     1.66075241893317     0.00000000000000
   11     0.00084423347125     0.14156400651740     0.11333462993078     0.15270401254129     1.50943753110249
   12     0.00604007519409     1.53260297098279     0.12698234162417     0.11149745724347     0.11037313593823
   13     0.00007439458500     0.01938780994626     0.02059369659451     0.02405495225311     0.15915688919069
   14     0.00004495260599     0.00297888686095     0.00247440826525     0.00324901615611     0.01679098994339
   15     0.00000559596672     0.00050703905304     0.00143739669605     0.00092347259053     0.00311296604196
   16     0.00000444121477     0.00016802560485     0.00018999318495     0.00015955630678     0.00047029243275
   17     0.00000798107171     0.00025272834186     0.00128076452974     0.00043161805543     0.00125566895699
   18     0.00004764217161     0.00057769716720     0.00026750271709     0.00014333579834     0.00041000819681
   19     0.00019864716590     0.00590831427402     0.00312021516749     0.00153915925696     0.00431387528598
   20     0.00008438887904     0.00013612382212     0.00002994942634     0.00001794492678     0.00005740465728
   21     0.00002715241010     0.00002256741036     0.00000828550424     0.00000468852634     0.00001569737585
   22     0.00017568561216     0.00000924694042     0.00000321700041     0.00000124390366     0.00000331564974
   23     0.00263174434875     0.00008039107471     0.00001678467504     0.00000477846465     0.00000386883415
   24     0.00370766452342     0.00004099165596     0.00002026193191     0.00000348043437     0.00000246985138
   25     0.00029601237627     0.00000447326708     0.00000268221542     0.00000051952953     0.00000078578597
   26     0.00015946604282     0.00000252677408     0.00000059732923     0.00000018759211     0.00000024454468
   27     0.00013507493669     0.00000322293990     0.00000114867185     0.00000039660529     0.00000087762634
   28     0.00007942164215     0.00000091741543     0.00000028990242     0.00000006503613     0.00000007531591
   29     0.00029772718527     0.00000139643316     0.00000074566443     0.00000012306342     0.00000016270956
   30     0.00011962578521     0.00000033613582     0.00000025308931     0.00000004545585     0.00000004431855
   31     0.00021404490461     0.00000039925437     0.00000023769972     0.00000005415398     0.00000002809148
   32     0.00082729158890     0.00000078665889     0.00000059290162     0.00000015457530     0.00000013941068
   33     0.00016975157857     0.00000029431117     0.00000022878293     0.00000006622917     0.00000006527951
   34     0.00702352559127     0.00001411987943     0.00001381526321     0.00000197211388     0.00000655986357
   35     0.00314009542533     0.00000902711000     0.00001369888259     0.00000189311178     0.00000661612556
   36     0.00000843372165     0.00001060299284     0.00000782563226     0.00000377917825     0.00001051598493
   37     0.00000179428704     0.00014412358648     0.00013753530357     0.00013159535997     0.00070285547536
   38     0.08253311840825     0.00128741583922     0.00024564330557     0.00003894187896     0.00002553958336
   39     0.01170970147841     0.01612474701942     0.01451579077666     0.00112260189652     0.00039409850059
   40     0.01474083376507     0.01571874471927     0.00168424470396     0.00040338403469     0.00059328215964
   41     0.87355635767125     0.00052776923396     0.00026398518144     0.00005125591473     0.00010352512960
   42     0.00046952939860     0.07540849990293     0.87665215686442     0.08071849143847     0.01044544003841
   43     0.00004271681475     0.01169366821058     0.07502710585506     0.87561005770976     0.09021582091570
   44     0.00001164614369     0.00207249856022     0.00202010648898     0.00361604875280     0.03096243851987
   45     0.00000047420194     0.00001862456446     0.00000817328937     0.00002312048207     0.00005239803420
   46     0.00000122400817     0.00002324935311     0.00004152608998     0.00001642446919     0.00005150570145
   47     0.00018147876614     0.00421597349761     0.00092053119198     0.00045715694587     0.00075208357247
   48     0.00009777699419     0.00009260483763     0.00002916232122     0.00001048847951     0.00002062861983
   49     0.00154137960423     0.00006430456500     0.00001400563348     0.00000399216384     0.00000350078589
   50     0.00249673385083     0.00002008716638     0.00000810604311     0.00000136200689     0.00000060286731
   51     0.00000797560263     0.00000013562043     0.00000007688287     0.00000001907628     0.00000003342867
   52     0.00001262250887     0.00000054043748     0.00000013171215     0.00000006064433     0.00000013219060
   53     0.00000652350425     0.00000006767145     0.00000006142938     0.00000000646557     0.00000001967609
   54     0.00000742157558     0.00000007181934     0.00000005860018     0.00000001123570     0.00000002555690
   55     0.00000949295214     0.00000004337719     0.00000005084371     0.00000001023625     0.00000001632205
   56     0.00002189988680     0.00000007793340     0.00000011760431     0.00000000980616     0.00000004580987
   57     0.00000930524684     0.00000002685629     0.00000005140054     0.00000000756788     0.00000001187945
   58     0.00003146058175     0.00000010553980     0.00000006924626     0.00000000831377     0.00000002448554
   59     0.00001861131655     0.00000010333070     0.00000007169851     0.00000001534317     0.00000003559945
   60     0.00000987722426     0.00000002150080     0.00000002133565     0.00000000378112     0.00000000236328
   61     0.00001483637796     0.00000003285313     0.00000005298161     0.00000003070179     0.00000000461264
   62     0.00126744745729     0.00000319749601     0.00000543106600     0.00000086016467     0.00000207327533
   63     0.00382488967782     0.00000622920938     0.00000241889267     0.00000029155661     0.00000081098773
   64     0.00023248807530     0.00000040806770     0.00000038623769     0.00000006006221     0.00000018445099
   65     0.00149404004344     0.00000617442664     0.00000910532240     0.00000135686851     0.00000536902882
   66     0.00000036159476     0.00004376696668     0.00007426420421     0.00004132944238     0.00024111673471
   67     0.00000114604554     0.00004416427476     0.00010824561532     0.00003920913959     0.00029050855955
   68     0.00000015432052     0.00001434995784     0.00000591179859     0.00000430991935     0.00003139875029

                11                  12                  13                  14                  15

    1     0.00086276695065     0.00280273830025     0.00015962099318     0.00003111859400     0.00001031259348
    2     0.00332895249140     0.02204199810941     0.00047265786472     0.00009434890134     0.00002327119606
    3     0.01799660385860     0.11945435599371     0.00162874476703     0.00059156294165     0.00006917882039
    4     0.00687957009990     0.06205720143786     0.00093204802844     0.00137487089381     0.00014680902515
    5     0.00043184500089     0.00410002401851     0.00008524785123     0.00011791682515     0.00001651337520
    6     0.00084423347125     0.00604007519409     0.00007439458500     0.00004495260599     0.00000559596672
    7     0.14156400651740     1.53260297098279     0.01938780994626     0.00297888686095     0.00050703905304
    8     0.11333462993078     0.12698234162417     0.02059369659451     0.00247440826525     0.00143739669605
    9     0.15270401254129     0.11149745724347     0.02405495225311     0.00324901615611     0.00092347259053
   10     1.50943753110249     0.11037313593823     0.15915688919069     0.01679098994339     0.00311296604196
   11     0.00000000000000     1.53270585840162     1.27101219597088     0.08254424352735     0.01779136498555
   12     1.53270585840162     0.00000000000000     0.14199235234879     0.03004007895238     0.00353220772926
   13     1.27101219597088     0.14199235234879     0.00000000000000     1.12416652489749     0.10522590213747
   14     0.08254424352735     0.03004007895238     1.12416652489749     0.00000000000000     1.31748475107382
   15     0.01779136498555     0.00353220772926     0.10522590213747     1.31748475107382     0.00000000000000
   16     0.00236669523233     0.00120775155937     0.01422232186609     0.12562328971226     1.44126730599879
   17     0.00408516694486     0.00245735027265     0.01174920125993     0.11951903271816     0.12395395887413
   18     0.00245707535750     0.00502786823294     0.01309568668495     0.12202510830938     0.11985197663147
   19     0.02863285221981     0.05562824974141     0.11033558617403     1.40308856859103     0.12014336941744
   20     0.00034750958225     0.00108547204939     0.00131713538148     0.01509702721295     0.01150545550187
   21     0.00006158484060     0.00013159702055     0.00030129302826     0.00274359970235     0.00569415888513
   22     0.00001190185691     0.00002934273724     0.00005526528401     0.00035530615176     0.00032752518685
   23     0.00001678146351     0.00013664172160     0.00001373204067     0.00012230262388     0.00036692482840
   24     0.00000280141508     0.00001659777347     0.00000310111870     0.00001261382691     0.00003699209066
   25     0.00000085742641     0.00000310079739     0.00000179553570     0.00002311783142     0.00016145605618
   26     0.00000065553512     0.00000127312267     0.00000218234437     0.00001738403416     0.00003313783194
   27     0.00000330263632     0.00000472811787     0.00001255558233     0.00009488141423     0.00030628580580
   28     0.00000015937464     0.00000072559583     0.00000021169757     0.00000175495105     0.00000887016776
   29     0.00000019846598     0.00000071341653     0.00000010604330     0.00000045961675     0.00000053735708
   30     0.00000006463500     0.00000017236461     0.00000003465779     0.00000026885352     0.00000042316233
   31     0.00000005508520     0.00000011894323     0.00000001853715     0.00000011528301     0.00000012258749
   32     0.00000011313192     0.00000037715155     0.00000003064675     0.00000012700851     0.00000011011639
   33     0.00000003817260     0.00000011890073     0.00000001148591     0.00000006274574     0.00000003836329
   34     0.00000107268163     0.00000843916256     0.00000022343571     0.00000017295871     0.00000011508215
   35     0.00000117914899     0.00001020075878     0.00000015477483     0.00000056678105     0.00000074821168
   36     0.00003855885688     0.00005301264484     0.00014477709358     0.00099495841719     0.00329685249332
   37     0.00359404650684     0.00078682188250     0.03763971200037     0.09676921030256     1.05945749427710
   38     0.00008935805308     0.00031322015158     0.00001575931188     0.00000725318366     0.00000082539440
   39     0.00029005940797     0.00109213878959     0.00006931623981     0.00002541211493     0.00000412716949
   40     0.00274900308507     0.02516469741229     0.00044243259571     0.00121356524228     0.00014621289678
   41     0.00004292225771     0.00025367653816     0.00000565949264     0.00000409663909     0.00000059008758
   42     0.00575649770228     0.01076490050791     0.00104518504077     0.00012135924052     0.00006453693926
   43     0.01583709579003     0.00401769437973     0.00135506180880     0.00038627306984     0.00006245302823
   44     0.07377861959266     0.01159605113114     0.93471093318889     0.05926798612546     0.01471639183360
   45     0.00036482351304     0.00006447591037     0.00115408128220     0.01143241951861     0.07493935483429
   46     0.00014666971969     0.00015567196593     0.00051056611169     0.00524825299062     0.01052482870580
   47     0.00968513021076     0.03717052137079     0.01586207227521     0.07313714233195     0.00972255752384
   48     0.00012619359267     0.00069562308241     0.00017947690512     0.00209632220651     0.00112828066125
   49     0.00001255740223     0.00008070518524     0.00000641247743     0.00004297022754     0.00011401460090
   50     0.00000113550152     0.00000483057247     0.00000038850403     0.00000124846935     0.00000135375295
   51     0.00000008186546     0.00000012999328     0.00000050579875     0.00000282993377     0.00000327077640
   52     0.00000066038061     0.00000070327504     0.00000211214798     0.00001483348939     0.00001990148134
   53     0.00000002648562     0.00000005157647     0.00000006392440     0.00000081110412     0.00000657833685
   54     0.00000002997955     0.00000014771409     0.00000006305732     0.00000090819295     0.00000551702494
   55     0.00000001120227     0.00000003607999     0.00000000577719     0.00000007290920     0.00000018557727
   56     0.00000001720915     0.00000003405822     0.00000000722611     0.00000005066671     0.00000011024590
   57     0.00000000469291     0.00000002449334     0.00000000289706     0.00000004267324     0.00000001264537
   58     0.00000001474275     0.00000004955924     0.00000000330262     0.00000001334608     0.00000002385850
   59     0.00000001243875     0.00000003469775     0.00000000815045     0.00000001577325     0.00000001378357
   60     0.00000000401096     0.00000000749128     0.00000000492636     0.00000002202938     0.00000000854406
   61     0.00000000562653     0.00000002300042     0.00000001063164     0.00000000630655     0.00000000475754
   62     0.00000032363956     0.00000289219136     0.00000003427327     0.00000004521536     0.00000001444012
   63     0.00000027831906     0.00000140305149     0.00000004354271     0.00000005279968     0.00000003381501
   64     0.00000012991830     0.00000043969968     0.00000001159469     0.00000006120472     0.00000005906594
   65     0.00000071889843     0.00000425597165     0.00000023412867     0.00000047505188     0.00000052608560
   66     0.00075867909042     0.00026061778754     0.00909800203633     0.01642140052407     0.05733267379816
   67     0.00091605575862     0.00029194091048     0.00997950232348     0.01668049456775     0.05871582280932
   68     0.00023000187649     0.00006199190755     0.00198142666354     0.00896252139583     0.05989426754147

                16                  17                  18                  19                  20

    1     0.00000208993773     0.00001238112163     0.00003043799862     0.00018775688857     0.00007244117128
    2     0.00000646236557     0.00001911637632     0.00005521164340     0.00024554006224     0.00007282211256
    3     0.00004423444810     0.00005684216635     0.00030784064433     0.00212493527929     0.00033805716325
    4     0.00028764720949     0.00027225042823     0.00195890250018     0.01054118347050     0.00321395487263
    5     0.00001356929497     0.00004457528888     0.00025335215976     0.00064532849477     0.00072425061939
    6     0.00000444121477     0.00000798107171     0.00004764217161     0.00019864716590     0.00008438887904
    7     0.00016802560485     0.00025272834186     0.00057769716720     0.00590831427402     0.00013612382212
    8     0.00018999318495     0.00128076452974     0.00026750271709     0.00312021516749     0.00002994942634
    9     0.00015955630678     0.00043161805543     0.00014333579834     0.00153915925696     0.00001794492678
   10     0.00047029243275     0.00125566895699     0.00041000819681     0.00431387528598     0.00005740465728
   11     0.00236669523233     0.00408516694486     0.00245707535750     0.02863285221981     0.00034750958225
   12     0.00120775155937     0.00245735027265     0.00502786823294     0.05562824974141     0.00108547204939
   13     0.01422232186609     0.01174920125993     0.01309568668495     0.11033558617403     0.00131713538148
   14     0.12562328971226     0.11951903271816     0.12202510830938     1.40308856859103     0.01509702721295
   15     1.44126730599879     0.12395395887413     0.11985197663147     0.12014336941744     0.01150545550187
   16     0.00000000000000     1.44447217905444     0.13324160739981     0.12589779565871     0.01369662552218
   17     1.44447217905444     0.00000000000000     1.39979039233133     0.12202948462633     0.10502306668798
   18     0.13324160739981     1.39979039233133     0.00000000000000     1.36144940012073     1.12831739694910
   19     0.12589779565871     0.12202948462633     1.36144940012073     0.00000000000000     0.12453191605841
   20     0.01369662552218     0.10502306668798     1.12831739694910     0.12453191605841     0.00000000000000
   21     0.00272785735166     0.03072945418962     0.08578951269977     0.02249133359433     1.30949492095429
   22     0.00034545773410     0.00322129738822     0.01474975861431     0.00211577291602     0.10537542834174
   23     0.00015016380781     0.00122651912470     0.00425191581620     0.00141272412047     0.04438742550351
   24     0.00002254187078     0.00016672094718     0.00043131549019     0.00014141857080     0.00389633897829
   25     0.00002716572763     0.00026208182321     0.00043842133427     0.00022866652690     0.00349238232654
   26     0.00002279304034     0.00013303011427     0.00051833931745     0.00010617168318     0.00261992795147
   27     0.00009831833754     0.00086315489465     0.00230753862473     0.00066448246349     0.01770838750452
   28     0.00000263225644     0.00001900787651     0.00003879875559     0.00001577255702     0.00024639985798
   29     0.00000046897483     0.00000258045776     0.00000619208017     0.00000223648465     0.00003328138644
   30     0.00000024523771     0.00000107941533     0.00000232397805     0.00000095243078     0.00001131968579
   31     0.00000008024553     0.00000031484991     0.00000047574445     0.00000025054754     0.00000233768584
   32     0.00000013438580     0.00000028207626     0.00000030511066     0.00000031738873     0.00000116172961
   33     0.00000005162229     0.00000012254773     0.00000012084276     0.00000010256022     0.00000042088724
   34     0.00000013991512     0.00000056580491     0.00000084826988     0.00000068782674     0.00000412148941
   35     0.00000027825375     0.00000227535157     0.00000508436005     0.00000221692609     0.00002442780949
   36     0.00327000944027     0.04641845698459     0.03114137823504     0.00519063885848     0.19115338255322
   37     0.11504586151094     0.01432377171381     0.00737372992037     0.01408688309251     0.00073595017340
   38     0.00000034658716     0.00000074889625     0.00000571074158     0.00002270657672     0.00000585721553
   39     0.00000183789544     0.00000224354688     0.00000633387270     0.00003715625142     0.00000717927209
   40     0.00026437234915     0.00024547662436     0.00187573614176     0.00835944864183     0.00219199464519
   41     0.00000044366465     0.00000081142135     0.00000287329086     0.00001363346538     0.00000562254645
   42     0.00001129916401     0.00004656911704     0.00003035498471     0.00020093686576     0.00000684951827
   43     0.00001574254584     0.00001180923931     0.00001520994718     0.00010865079083     0.00000176196913
   44     0.00148081378758     0.00110134958989     0.00129113366925     0.01050773031224     0.00023841310749
   45     0.87169941227649     0.07889350459160     0.01178289219779     0.00568790274300     0.00103421719585
   46     0.07698263602553     0.86085237441322     0.07598827243674     0.01127630800409     0.01467607623216
   47     0.00569661375839     0.01024689301681     0.07178550956704     0.83798405004507     0.02431588605211
   48     0.00137130741118     0.01016323584201     0.06287409374629     0.02183039713669     0.93579893466525
   49     0.00005385000107     0.00036937237041     0.00166506540887     0.00072826045595     0.01637176123135
   50     0.00000190345921     0.00001212009009     0.00002972579235     0.00000953367188     0.00020671353150
   51     0.00000251795142     0.00001796184523     0.00006749050344     0.00001740846766     0.00029228783116
   52     0.00002563575895     0.00016457210618     0.00024207801254     0.00007042239717     0.00154710776153
   53     0.00000107496011     0.00001034227929     0.00001302734085     0.00000864071583     0.00010404290966
   54     0.00000109049341     0.00000901321173     0.00001992939512     0.00000821556235     0.00013668957752
   55     0.00000007087137     0.00000029869221     0.00000044538329     0.00000028170234     0.00000222169347
   56     0.00000002454527     0.00000017966284     0.00000068906154     0.00000030436702     0.00000265403660
   57     0.00000000449526     0.00000002671670     0.00000004797809     0.00000006055689     0.00000027415539
   58     0.00000001516129     0.00000007644832     0.00000011458835     0.00000005561302     0.00000064532201
   59     0.00000001418270     0.00000003767305     0.00000004753971     0.00000002783082     0.00000025751337
   60     0.00000000934384     0.00000002332515     0.00000002715303     0.00000003077043     0.00000003621423
   61     0.00000000504505     0.00000001859669     0.00000001705518     0.00000000991975     0.00000003764389
   62     0.00000000767951     0.00000003317689     0.00000004862269     0.00000009206230     0.00000027342263
   63     0.00000002196417     0.00000007532766     0.00000011174351     0.00000012812326     0.00000070904567
   64     0.00000004606944     0.00000018060308     0.00000042561260     0.00000025661200     0.00000372364251
   65     0.00000019505752     0.00000119874160     0.00000260595009     0.00000152915086     0.00001268908296
   66     0.01500322433576     0.00125032045786     0.00293647959792     0.00120505557714     0.00037769786301
   67     0.01509686510509     0.00125984904632     0.00280569542309     0.00127632222283     0.00033845099087
   68     0.02373377662766     0.00189589844852     0.00055101743652     0.00109803152651     0.00008304789298

                21                  22                  23                  24                  25

    1     0.00001458776495     0.00006145448601     0.00058776877395     0.00029208478476     0.00002168303199
    2     0.00001374399318     0.00004563604681     0.00037490928204     0.00026366787424     0.00002167266083
    3     0.00005709143533     0.00005906132255     0.00051940966625     0.00036472237426     0.00002858183075
    4     0.00042212105576     0.00072412023014     0.00823941985278     0.00205334198841     0.00015624781301
    5     0.00024900052219     0.00177935343254     0.02661111694781     0.01630706087768     0.00088703614959
    6     0.00002715241010     0.00017568561216     0.00263174434875     0.00370766452342     0.00029601237627
    7     0.00002256741036     0.00000924694042     0.00008039107471     0.00004099165596     0.00000447326708
    8     0.00000828550424     0.00000321700041     0.00001678467504     0.00002026193191     0.00000268221542
    9     0.00000468852634     0.00000124390366     0.00000477846465     0.00000348043437     0.00000051952953
   10     0.00001569737585     0.00000331564974     0.00000386883415     0.00000246985138     0.00000078578597
   11     0.00006158484060     0.00001190185691     0.00001678146351     0.00000280141508     0.00000085742641
   12     0.00013159702055     0.00002934273724     0.00013664172160     0.00001659777347     0.00000310079739
   13     0.00030129302826     0.00005526528401     0.00001373204067     0.00000310111870     0.00000179553570
   14     0.00274359970235     0.00035530615176     0.00012230262388     0.00001261382691     0.00002311783142
   15     0.00569415888513     0.00032752518685     0.00036692482840     0.00003699209066     0.00016145605618
   16     0.00272785735166     0.00034545773410     0.00015016380781     0.00002254187078     0.00002716572763
   17     0.03072945418962     0.00322129738822     0.00122651912470     0.00016672094718     0.00026208182321
   18     0.08578951269977     0.01474975861431     0.00425191581620     0.00043131549019     0.00043842133427
   19     0.02249133359433     0.00211577291602     0.00141272412047     0.00014141857080     0.00022866652690
   20     1.30949492095429     0.10537542834174     0.04438742550351     0.00389633897829     0.00349238232654
   21     0.00000000000000     0.97417288903074     0.10540226620129     0.01450472531063     0.01135585671218
   22     0.97417288903074     0.00000000000000     1.40559510111747     0.12714531908287     0.12393610747029
   23     0.10540226620129     1.40559510111747     0.00000000000000     1.45076074166482     0.12661529362481
   24     0.01450472531063     0.12714531908287     1.45076074166482     0.00000000000000     1.41403271417056
   25     0.01135585671218     0.12393610747029     0.12661529362481     1.41403271417056     0.00000000000000
   26     0.01487776328565     0.12625381527815     0.13178054156159     0.12595662818275     1.39582623676624
   27     0.10950095205277     1.38074686562283     0.12445685975515     0.12970144233405     0.12513710439213
   28     0.00069575924658     0.00751587071964     0.01338123159443     0.09934663862644     1.02033486175857
   29     0.00011915081267     0.00079525071820     0.00227991906123     0.03087178891929     0.07635301629812
   30     0.00002927629837     0.00018553213474     0.00031001769628     0.00325548323911     0.01491568636015
   31     0.00000637900920     0.00003868873869     0.00005767427190     0.00065282959598     0.00216440647164
   32     0.00000412075480     0.00002692474366     0.00009143208387     0.00064598714452     0.00054832171395
   33     0.00000117345330     0.00000831185874     0.00001695540854     0.00016924542240     0.00026751945239
   34     0.00001338520021     0.00008887112998     0.00030180338547     0.00347391690675     0.00208814653371
   35     0.00009209381405     0.00075451873033     0.00313197950427     0.02658495144180     0.01983223346829
   36     2.17913495833287     0.13551284153243     0.02541619012451     0.00314981092928     0.00634895447889
[...]
   15     0.00000011024590     0.00000001264537     0.00000002385850     0.00000001378357     0.00000000854406
   16     0.00000002454527     0.00000000449526     0.00000001516129     0.00000001418270     0.00000000934384
   17     0.00000017966284     0.00000002671670     0.00000007644832     0.00000003767305     0.00000002332515
   18     0.00000068906154     0.00000004797809     0.00000011458835     0.00000004753971     0.00000002715303
   19     0.00000030436702     0.00000006055689     0.00000005561302     0.00000002783082     0.00000003077043
   20     0.00000265403660     0.00000027415539     0.00000064532201     0.00000025751337     0.00000003621423
   21     0.00000783836167     0.00000059406525     0.00000159148439     0.00000072613050     0.00000010536198
   22     0.00004475561229     0.00000359965433     0.00001330620212     0.00000581412082     0.00000095612712
   23     0.00010159609874     0.00000723200990     0.00001285286255     0.00000949230591     0.00000262617918
   24     0.00082537638893     0.00005638343132     0.00012234780976     0.00009119048413     0.00001675177101
   25     0.00159564059838     0.00029815627500     0.00016608559983     0.00013980084208     0.00002729537222
   26     0.00018750311067     0.00006596827605     0.00002935615627     0.00001966220649     0.00000558064828
   27     0.00003996376689     0.00001538259367     0.00000769605880     0.00000384356718     0.00000131612080
   28     0.02100321322500     0.00182596840729     0.00209942449922     0.00075349401427     0.00012767712059
   29     0.06847304013120     0.00947373524469     0.01636162475301     0.00333926746520     0.00060641444006
   30     0.77571995673402     0.06112185155922     0.04880185528758     0.01169967025701     0.00355199479096
   31     0.04567433699339     0.88578531188898     0.79709297547745     0.01667220568046     0.01812741387607
   32     0.01236735181894     0.05791943719197     0.06291842542872     0.06713174985775     0.06297397483742
   33     0.01285042819238     0.02007541918202     0.01349063880755     0.90948263793763     0.91946831974673
   34     0.00911999048961     0.01370422647017     0.02466033415619     0.01724554274920     0.01303226871747
   35     0.02937790743910     0.00259628025443     0.00882652360771     0.01208775965315     0.00171577141918
   36     0.00000303875624     0.00000030921256     0.00000098925114     0.00000052150842     0.00000008159788
   37     0.00000000843953     0.00000000196247     0.00000000230577     0.00000000274072     0.00000000481526
   38     0.00000085535063     0.00000020914464     0.00000039512741     0.00000020823194     0.00000056313161
   39     0.00000003735994     0.00000001022351     0.00000009222422     0.00000010005356     0.00000002829676
   40     0.00000005925250     0.00000002144830     0.00000004770090     0.00000002704360     0.00000000694436
   41     0.00001529166643     0.00000487034767     0.00001697918735     0.00001254031496     0.00000817027118
   42     0.00000000407377     0.00000000152438     0.00000000569322     0.00000000513019     0.00000000455068
   43     0.00000000099673     0.00000000031577     0.00000000090148     0.00000000085811     0.00000000028368
   44     0.00000000076949     0.00000000019280     0.00000000084278     0.00000000147788     0.00000000049365
   45     0.00000000396355     0.00000000040077     0.00000000085730     0.00000000049895     0.00000000019578
   46     0.00000005941081     0.00000000700604     0.00000000613428     0.00000000402212     0.00000000215772
   47     0.00000002822735     0.00000000697181     0.00000001131702     0.00000000749947     0.00000000297768
   48     0.00000220658533     0.00000008179697     0.00000021856604     0.00000010087687     0.00000002046677
   49     0.00001130074187     0.00000090090121     0.00000065205349     0.00000101657584     0.00000022553540
   50     0.00051735534667     0.00001768931497     0.00005544340762     0.00005193758763     0.00000584113679
   51     0.00004449290917     0.00000645613008     0.00000417029525     0.00000277606408     0.00000095852016
   52     0.00001000189421     0.00000208774475     0.00000093231394     0.00000067300998     0.00000015128241
   53     0.00311778272423     0.00017250539301     0.00024614962597     0.00006570061112     0.00001845720512
   54     0.00645374114095     0.00025066331401     0.00056550394255     0.00029579319429     0.00004681743977
   55     0.02261898459593     0.00561981844015     0.00846706062261     0.00048443339606     0.00011308391597
   56     0.00000000000000     0.00819723514534     0.02155691925135     0.00639639474472     0.00131482367135
   57     0.00819723514534     0.00000000000000     0.02129324611287     0.00285150220476     0.00609115365109
   58     0.02155691925135     0.02129324611287     0.00000000000000     0.00094372777000     0.00120861530885
   59     0.00639639474472     0.00285150220476     0.00094372777000     0.00000000000000     0.03490643359660
   60     0.00131482367135     0.00609115365109     0.00120861530885     0.03490643359660     0.00000000000000
   61     0.00052217780244     0.00112652853226     0.00070383461145     0.03477346144455     0.03773083163345
   62     0.00037600172351     0.00136492136015     0.00120212555875     0.00314947829674     0.00111065262081
   63     0.00124543395919     0.00094587274527     0.00740009496000     0.00095108047509     0.00067221675823
   64     0.00823859354475     0.00053212240978     0.00135799196146     0.00759235945201     0.00061255524196
   65     0.00149308445254     0.00025953792881     0.00057899705784     0.00068800347501     0.00021359794721
   66     0.00000000380213     0.00000000057064     0.00000000102018     0.00000000042138     0.00000000029313
   67     0.00000000261157     0.00000000062311     0.00000000067505     0.00000000056478     0.00000000043204
   68     0.00000000033348     0.00000000020123     0.00000000051427     0.00000000020162     0.00000000012668

                61                  62                  63                  64                  65

    1     0.00000318761071     0.00024162176532     0.00021852645366     0.00002349554024     0.00012977979705
    2     0.00000033072959     0.00001308980549     0.00004407141824     0.00000541990071     0.00005420622069
    3     0.00000018413446     0.00005603749923     0.00002753989496     0.00000618753873     0.00011180578569
    4     0.00000024005579     0.00004238334220     0.00006189500292     0.00000891033916     0.00005073359418
    5     0.00000201472998     0.00008501873123     0.00020342583856     0.00009348344699     0.00048226944685
    6     0.00001483637796     0.00126744745729     0.00382488967782     0.00023248807530     0.00149404004344
    7     0.00000003285313     0.00000319749601     0.00000622920938     0.00000040806770     0.00000617442664
    8     0.00000005298161     0.00000543106600     0.00000241889267     0.00000038623769     0.00000910532240
    9     0.00000003070179     0.00000086016467     0.00000029155661     0.00000006006221     0.00000135686851
   10     0.00000000461264     0.00000207327533     0.00000081098773     0.00000018445099     0.00000536902882
   11     0.00000000562653     0.00000032363956     0.00000027831906     0.00000012991830     0.00000071889843
   12     0.00000002300042     0.00000289219136     0.00000140305149     0.00000043969968     0.00000425597165
   13     0.00000001063164     0.00000003427327     0.00000004354271     0.00000001159469     0.00000023412867
   14     0.00000000630655     0.00000004521536     0.00000005279968     0.00000006120472     0.00000047505188
   15     0.00000000475754     0.00000001444012     0.00000003381501     0.00000005906594     0.00000052608560
   16     0.00000000504505     0.00000000767951     0.00000002196417     0.00000004606944     0.00000019505752
   17     0.00000001859669     0.00000003317689     0.00000007532766     0.00000018060308     0.00000119874160
   18     0.00000001705518     0.00000004862269     0.00000011174351     0.00000042561260     0.00000260595009
   19     0.00000000991975     0.00000009206230     0.00000012812326     0.00000025661200     0.00000152915086
   20     0.00000003764389     0.00000027342263     0.00000070904567     0.00000372364251     0.00001268908296
   21     0.00000017117895     0.00000077775079     0.00000267328909     0.00000710148682     0.00005259558134
   22     0.00000089022637     0.00000362521513     0.00001925737497     0.00004420029229     0.00047649819139
   23     0.00000299816442     0.00001486693002     0.00004550314891     0.00012804068903     0.00210767465533
   24     0.00002348509863     0.00017805901762     0.00101199175238     0.00193594033483     0.01628368683342
   25     0.00002579237950     0.00020037574787     0.00040184754770     0.00430594205871     0.00756594840591
   26     0.00000477954080     0.00005241188419     0.00003300100374     0.00031259883006     0.00071401589580
   27     0.00000084957425     0.00000886078544     0.00001134208542     0.00006046046563     0.00063669398206
   28     0.00014578827453     0.00192215149512     0.00207987715997     0.02297698339831     0.01416833940648
   29     0.00065954512312     0.01089562459693     0.01630865667488     0.06736043675317     0.06864960791601
   30     0.00162771836241     0.00182299110792     0.00835515611212     0.03068480974613     0.01224202934614
   31     0.01253095493407     0.01489534760521     0.02329489718233     0.00931455283925     0.00302398179799
   32     0.06264603778950     0.05284055183847     0.06233718196755     0.01337856471432     0.01008256719343
   33     0.91966259113721     0.02239737715272     0.01296433220196     0.01455668199640     0.00204806848562
   34     0.02028946460634     0.84259737551876     0.79769220322571     0.04628198992737     0.06925663467855
   35     0.00371622728459     0.05667578017846     0.04827445782665     0.74674829418227     0.91242842287875
   36     0.00000005906309     0.00000025052006     0.00000138447185     0.00000326894486     0.00002985601920
   37     0.00000000157730     0.00000000564508     0.00000000488864     0.00000000603176     0.00000004654052
   38     0.00000172621429     0.00004056743620     0.00001789067738     0.00000087146140     0.00000773153113
   39     0.00000008424906     0.00000178555236     0.00000420295532     0.00000027081057     0.00000212897190
   40     0.00000003497208     0.00000151114493     0.00000361192613     0.00000027323665     0.00000540772682
   41     0.00001085576480     0.00094250545614     0.00375706829644     0.00005559383617     0.00096331571686
   42     0.00000000647180     0.00000024143567     0.00000021800730     0.00000002064912     0.00000053689803
   43     0.00000000041326     0.00000001388360     0.00000002276226     0.00000000175919     0.00000004283966
   44     0.00000000062929     0.00000000342530     0.00000001272726     0.00000000205174     0.00000002017369
   45     0.00000000026795     0.00000000205004     0.00000000300183     0.00000000339581     0.00000002689036
   46     0.00000000192912     0.00000000600644     0.00000001451183     0.00000004187587     0.00000027165713
   47     0.00000001244260     0.00000001886662     0.00000004416947     0.00000003624242     0.00000028372812
   48     0.00000001351087     0.00000008382933     0.00000041746139     0.00000115002709     0.00000525235213
   49     0.00000029744653     0.00000403129379     0.00000409523255     0.00000561310004     0.00013232330678
   50     0.00001807605363     0.00011660273239     0.00133635910490     0.00079726010085     0.00824728052699
   51     0.00000104799645     0.00001058606441     0.00000748590557     0.00003513665658     0.00007927314364
   52     0.00000015948952     0.00000095534778     0.00000301476662     0.00000855677575     0.00003114879218
   53     0.00003082276376     0.00048145436180     0.00020389408955     0.00109056052569     0.00101473347565
   54     0.00004636207316     0.00021121860037     0.00071624511171     0.00880290431714     0.00344650655121
   55     0.00025492288870     0.00049983450361     0.00039778610129     0.00081828015667     0.00131460937070
   56     0.00052217780244     0.00037600172351     0.00124543395919     0.00823859354475     0.00149308445254
   57     0.00112652853226     0.00136492136015     0.00094587274527     0.00053212240978     0.00025953792881
   58     0.00070383461145     0.00120212555875     0.00740009496000     0.00135799196146     0.00057899705784
   59     0.03477346144455     0.00314947829674     0.00095108047509     0.00759235945201     0.00068800347501
   60     0.03773083163345     0.00111065262081     0.00067221675823     0.00061255524196     0.00021359794721
   61     0.00000000000000     0.00710587445811     0.00121737900405     0.00150150124037     0.00019673667496
   62     0.00710587445811     0.00000000000000     0.01832630702245     0.00910040339440     0.00626916280784
   63     0.00121737900405     0.01832630702245     0.00000000000000     0.02270204215686     0.00937724431749
   64     0.00150150124037     0.00910040339440     0.02270204215686     0.00000000000000     0.03084841104125
   65     0.00019673667496     0.00626916280784     0.00937724431749     0.03084841104125     0.00000000000000
   66     0.00000000020624     0.00000000072618     0.00000000239032     0.00000000186116     0.00000001546815
   67     0.00000000022621     0.00000000159607     0.00000000218316     0.00000000266150     0.00000001814825
   68     0.00000000012358     0.00000000052794     0.00000000095446     0.00000000160717     0.00000000569629

                66                  67                  68

    1     0.00000072928725     0.00000100202579     0.00000026568121
    2     0.00000188059998     0.00000275259762     0.00000065272778
    3     0.00001127105232     0.00000973803664     0.00000379589460
    4     0.00000849367483     0.00000831755788     0.00000800252545
    5     0.00000061367438     0.00000074402174     0.00000045061827
    6     0.00000036159476     0.00000114604554     0.00000015432052
    7     0.00004376696668     0.00004416427476     0.00001434995784
    8     0.00007426420421     0.00010824561532     0.00000591179859
    9     0.00004132944238     0.00003920913959     0.00000430991935
   10     0.00024111673471     0.00029050855955     0.00003139875029
   11     0.00075867909042     0.00091605575862     0.00023000187649
   12     0.00026061778754     0.00029194091048     0.00006199190755
   13     0.00909800203633     0.00997950232348     0.00198142666354
   14     0.01642140052407     0.01668049456775     0.00896252139583
   15     0.05733267379816     0.05871582280932     0.05989426754147
   16     0.01500322433576     0.01509686510509     0.02373377662766
   17     0.00125032045786     0.00125984904632     0.00189589844852
   18     0.00293647959792     0.00280569542309     0.00055101743652
   19     0.00120505557714     0.00127632222283     0.00109803152651
   20     0.00037769786301     0.00033845099087     0.00008304789298
   21     0.00020916444664     0.00020316225982     0.00003014543000
   22     0.00001139655198     0.00001458404604     0.00000628909764
   23     0.00001465013420     0.00001437155885     0.00000292105217
   24     0.00000145872726     0.00000162201205     0.00000036115041
   25     0.00000677912791     0.00000647012953     0.00000024118582
   26     0.00000115928019     0.00000138885686     0.00000024689459
   27     0.00001125400043     0.00001238733170     0.00000148713419
   28     0.00000038027269     0.00000034726950     0.00000002992893
   29     0.00000003243763     0.00000002172642     0.00000001014605
   30     0.00000001466115     0.00000001285760     0.00000000440443
   31     0.00000000426746     0.00000000430224     0.00000000175194
   32     0.00000000486260     0.00000000437881     0.00000000112501
   33     0.00000000165656     0.00000000177570     0.00000000069251
   34     0.00000000835457     0.00000000997650     0.00000000870896
   35     0.00000002705547     0.00000003916561     0.00000000652070
   36     0.00012292611734     0.00012197360440     0.00001566810866
   37     0.91901521585330     0.91928859921820     0.92077501532766
   38     0.00000008886205     0.00000009188585     0.00000003882373
   39     0.00000025914692     0.00000028108640     0.00000009912800
   40     0.00000679593911     0.00000783417598     0.00000698524144
   41     0.00000005421003     0.00000006202788     0.00000003751510
   42     0.00000324297995     0.00000427015825     0.00000046785294
   43     0.00000275277957     0.00000291286203     0.00000064047357
   44     0.00485039602828     0.00403563391187     0.00100514405248
   45     0.00123762538397     0.00123092982490     0.00766490414323
   46     0.00020581808739     0.00021888039807     0.00012843976620
   47     0.00018012195830     0.00018555372590     0.00035010273921
   48     0.00003786997022     0.00004285005005     0.00003955440511
   49     0.00000442792493     0.00000384173795     0.00000118392168
   50     0.00000005549233     0.00000010592176     0.00000005102988
   51     0.00000018775804     0.00000012961104     0.00000007102323
   52     0.00000093282601     0.00000081227612     0.00000046549573
   53     0.00000027337899     0.00000028033678     0.00000001106517
   54     0.00000024904743     0.00000020406674     0.00000001345567
   55     0.00000000608907     0.00000000674978     0.00000000207824
   56     0.00000000380213     0.00000000261157     0.00000000033348
   57     0.00000000057064     0.00000000062311     0.00000000020123
   58     0.00000000102018     0.00000000067505     0.00000000051427
   59     0.00000000042138     0.00000000056478     0.00000000020162
   60     0.00000000029313     0.00000000043204     0.00000000012668
   61     0.00000000020624     0.00000000022621     0.00000000012358
   62     0.00000000072618     0.00000000159607     0.00000000052794
   63     0.00000000239032     0.00000000218316     0.00000000095446
   64     0.00000000186116     0.00000000266150     0.00000000160717
   65     0.00000001546815     0.00000001814825     0.00000000569629
   66     0.00000000000000     0.03543126190858     0.03897326061787
   67     0.03543126190858     0.00000000000000     0.03918132805368
   68     0.03897326061787     0.03918132805368     0.00000000000000



  Atomic Valences: 

 #  #
 Irrep: 1
      1:  4.3907551
      2:  4.4212201
      3:  4.6029373
      4:  4.5820358
      5:  3.9318086
      6:  4.5568471
      7:  4.7433201
      8:  4.3674946
      9:  4.5223976
     10:  3.8646192
     11:  5.0038476
     12:  3.9648125
     13:  4.0342576
     14:  4.6635426
     15:  4.6241052
     16:  4.4365013
     17:  4.4006411
     18:  4.6703577
     19:  4.4274764
     20:  4.0826207
     21:  4.9967503
     22:  4.6083503
     23:  4.4562879
     24:  4.4612804
     25:  4.6484028
     26:  4.4224553
     27:  4.4193441
     28:  4.4942235
     29:  4.2805803
     30:  4.5730193
     31:  4.5765157
     32:  4.2443753
     33:  4.2763291
     34:  4.5680408
     35:  4.5875378
     36:  2.7520428
     37:  4.1495906
     38:  1.0978800
     39:  1.1009381
     40:  1.1126532
     41:  1.1021785
     42:  1.1090833
     43:  1.0860492
     44:  1.1746914
     45:  1.0999674
     46:  1.1061688
     47:  1.1344100
     48:  1.1880497
     49:  1.1169139
     50:  1.1185792
     51:  1.0994997
     52:  1.0966826
     53:  1.1183161
     54:  1.1273568
     55:  1.0430553
     56:  1.0595652
     57:  1.1017027
     58:  1.0402531
     59:  1.1318836
     60:  1.1037270
     61:  1.1066012
     62:  1.0565437
     63:  1.0465168
     64:  1.0525788
     65:  1.1873116
     66:  1.1053982
     67:  1.1078791
     68:  1.1067465


    Psi4 stopped on: Tuesday, 14 April 2020 06:29AM
    Psi4 wall time for execution: 0:22:26.32

*** Psi4 exiting successfully. Buy a developer a beer!
