68
MOLECULE0-opt-2-3-7-8-031.log	Energy: -992570.2079871
C          0.08941        4.46402       -1.50025
C          1.41878        4.25438       -1.15517
C          1.76869        3.08218       -0.48604
C          0.73969        2.17737       -0.19423
N         -0.53576        2.35791       -0.53005
C         -0.84504        3.48680       -1.17395
C          3.16913        2.75308       -0.11889
C          4.15728        3.71167        0.08503
C          5.42552        3.22671        0.40180
N          5.71355        1.93829        0.51804
C          4.68152        1.09321        0.31584
N          3.43499        1.44925        0.00333
N          5.00199       -0.23000        0.44842
C          4.21310       -1.38842        0.33326
C          4.82700       -2.63572        0.57256
C          4.03883       -3.77730        0.45921
C          2.68393       -3.74535        0.13450
C          2.10061       -2.50260       -0.09240
C          2.86645       -1.33994       -0.00595
N          0.74706       -2.29132       -0.40643
C         -0.27238       -3.19269       -0.56341
C         -1.59443       -2.53815       -0.85513
C         -1.70536       -1.30670       -1.50806
C         -2.94921       -0.71769       -1.68599
C         -4.10828       -1.32964       -1.20847
C         -3.99461       -2.58600       -0.60807
C         -2.75459       -3.18798       -0.43431
C         -5.45033       -0.61997       -1.29676
N         -5.79361        0.30424       -0.22865
C         -5.09122        1.58308       -0.17885
C         -3.85955        1.59492        0.74383
N         -4.14674        1.08494        2.08250
C         -4.89324        2.00849        2.91737
C         -4.74918       -0.24169        1.98661
C         -6.00262       -0.26917        1.09626
O         -0.14823       -4.40072       -0.44606
C          6.28545       -2.73554        0.94200
H         -0.21643        5.36201       -2.02635
H          2.17600        4.98364       -1.42833
H          0.97172        1.26679        0.35127
H         -1.89248        3.61235       -1.43979
H          3.96336        4.77533        0.02481
H          6.25010        3.91572        0.57367
H          5.97413       -0.36138        0.68471
H          4.50384       -4.74329        0.63911
H          2.09589       -4.64992        0.06620
H          2.41411       -0.38163       -0.20887
H          0.47342       -1.32049       -0.40624
H         -0.82856       -0.80296       -1.90579
H         -3.01561        0.24449       -2.18775
H         -4.89079       -3.09187       -0.25582
H         -2.66337       -4.15998        0.03962
H         -5.49682       -0.06005       -2.23900
H         -6.24552       -1.37500       -1.34086
H         -4.80501        1.86686       -1.19867
H         -5.80685        2.34311        0.16984
H         -3.46763        2.61553        0.83265
H         -3.05728        0.98434        0.31691
H         -5.90655        2.26366        2.55937
H         -4.32977        2.94362        3.00851
H         -4.99608        1.57959        3.92033
H         -4.99845       -0.59075        2.99623
H         -3.99183       -0.92242        1.58047
H         -6.80733        0.29667        1.58904
H         -6.36661       -1.29672        0.98312
H          6.51171       -2.20257        1.87519
H          6.94066       -2.33066        0.15910
H          6.57140       -3.77964        1.09168
