68
MOLECULE0-opt-23-22-21-36-005.log	Energy: -992570.4030610
C         -1.22687        4.80702       -0.67134
C         -2.52786        4.35127       -0.49656
C         -2.73279        3.05565       -0.02542
C         -1.59726        2.28455        0.25696
N         -0.34522        2.70406        0.08466
C         -0.17451        3.94665       -0.37714
C         -4.08096        2.45780        0.14143
C         -5.24385        3.19846        0.33393
C         -6.42544        2.46574        0.44067
N         -6.48108        1.14197        0.38363
C         -5.29505        0.52189        0.21765
N         -4.11413        1.12431        0.08555
N         -5.36195       -0.84361        0.18466
C         -4.33175       -1.80135        0.12912
C         -4.63943       -3.12769        0.49347
C         -3.60998       -4.06328        0.45641
C         -2.30213       -3.74872        0.09462
C         -2.02335       -2.43356       -0.26817
C         -3.04025       -1.47829       -0.27291
N         -0.75109       -1.95589       -0.63056
C          0.46499       -2.58353       -0.55919
C          1.63418       -1.68546       -0.85394
C          2.79054       -2.27790       -1.36404
C          3.89912       -1.50081       -1.67039
C          3.89477       -0.12037       -1.45171
C          2.73840        0.46237       -0.93279
C          1.62067       -0.30567       -0.62977
C          5.12626        0.72192       -1.75254
N          6.11094        0.90688       -0.70056
C          6.90930       -0.25119       -0.31532
C          6.33392       -1.03333        0.87778
N          6.04221       -0.18408        2.02965
C          7.22336        0.24535        2.75682
C          5.16527        0.91151        1.62600
C          5.72372        1.72273        0.44453
O          0.60845       -3.76793       -0.30199
C         -6.03063       -3.52118        0.92104
H         -1.03010        5.80567       -1.04620
H         -3.36985        4.98816       -0.75229
H         -1.72386        1.27860        0.64834
H          0.85516        4.26608       -0.52013
H         -5.24545        4.27838        0.41527
H         -7.37681        2.97405        0.58410
H         -6.29939       -1.18639        0.33241
H         -3.83493       -5.08960        0.73540
H         -1.52025       -4.49466        0.09730
H         -2.82074       -0.46166       -0.56267
H         -0.73743       -0.99752       -0.94535
H          2.79852       -3.35167       -1.52071
H          4.78665       -1.97266       -2.08615
H          2.70285        1.53381       -0.75019
H          0.76277        0.19862       -0.19201
H          5.64904        0.28166       -2.61092
H          4.79736        1.72103       -2.06570
H          7.01985       -0.91016       -1.18408
H          7.91855        0.10451       -0.05870
H          7.03606       -1.81733        1.18613
H          5.39922       -1.52412        0.58248
H          7.92425        0.88483        2.19154
H          7.77717       -0.63868        3.09132
H          6.91186        0.80166        3.64777
H          5.00055        1.56935        2.48802
H          4.19659        0.47746        1.35262
H          6.61252        2.27818        0.77939
H          4.99130        2.46879        0.11561
H         -6.77108       -3.36398        0.12471
H         -6.36387       -2.95628        1.80128
H         -6.06626       -4.58169        1.18279
