 Entering Gaussian System, Link 0=g09
 Input=MOLECULE0-opt-22-21-20-18-168.com
 Output=MOLECULE0-opt-22-21-20-18-168.log
 Initial command:
 /opt/g09gh/gaussian/g09/l1.exe /scratch/bdw2292/Gau-MOLECULE0/Gau-82534.inp -scrdir=/scratch/bdw2292/Gau-MOLECULE0/
 Entering Link 1 = /opt/g09gh/gaussian/g09/l1.exe PID=     82535.
  
 Copyright (c) 1988,1990,1992,1993,1995,1998,2003,2009, Gaussian, Inc.
                  All Rights Reserved.
  
 This is part of the Gaussian(R) 09 program.  It is based on
 the Gaussian(R) 03 system (copyright 2003, Gaussian, Inc.),
 the Gaussian(R) 98 system (copyright 1998, Gaussian, Inc.),
 the Gaussian(R) 94 system (copyright 1995, Gaussian, Inc.),
 the Gaussian 92(TM) system (copyright 1992, Gaussian, Inc.),
 the Gaussian 90(TM) system (copyright 1990, Gaussian, Inc.),
 the Gaussian 88(TM) system (copyright 1988, Gaussian, Inc.),
 the Gaussian 86(TM) system (copyright 1986, Carnegie Mellon
 University), and the Gaussian 82(TM) system (copyright 1983,
 Carnegie Mellon University). Gaussian is a federally registered
 trademark of Gaussian, Inc.
  
 This software contains proprietary and confidential information,
 including trade secrets, belonging to Gaussian, Inc.
  
 This software is provided under written license and may be
 used, copied, transmitted, or stored only in accord with that
 written license.
  
 The following legend is applicable only to US Government
 contracts under FAR:
  
                    RESTRICTED RIGHTS LEGEND
  
 Use, reproduction and disclosure by the US Government is
 subject to restrictions as set forth in subparagraphs (a)
 and (c) of the Commercial Computer Software - Restricted
 Rights clause in FAR 52.227-19.
  
 Gaussian, Inc.
 340 Quinnipiac St., Bldg. 40, Wallingford CT 06492
  
  
 ---------------------------------------------------------------
 Warning -- This program may not be used in any manner that
 competes with the business of Gaussian, Inc. or will provide
 assistance to any competitor of Gaussian, Inc.  The licensee
 of this program is prohibited from giving any competitor of
 Gaussian, Inc. access to this program.  By using this program,
 the user acknowledges that Gaussian, Inc. is engaged in the
 business of creating and licensing software in the field of
 computational chemistry and represents and warrants to the
 licensee that it is not a competitor of Gaussian, Inc. and that
 it will not use this program in any manner prohibited above.
 ---------------------------------------------------------------
  

 Cite this work as:
 Gaussian 09, Revision A.02,
 M. J. Frisch, G. W. Trucks, H. B. Schlegel, G. E. Scuseria, 
 M. A. Robb, J. R. Cheeseman, G. Scalmani, V. Barone, B. Mennucci, 
 G. A. Petersson, H. Nakatsuji, M. Caricato, X. Li, H. P. Hratchian, 
 A. F. Izmaylov, J. Bloino, G. Zheng, J. L. Sonnenberg, M. Hada, 
 M. Ehara, K. Toyota, R. Fukuda, J. Hasegawa, M. Ishida, T. Nakajima, 
 Y. Honda, O. Kitao, H. Nakai, T. Vreven, J. A. Montgomery, Jr., 
 J. E. Peralta, F. Ogliaro, M. Bearpark, J. J. Heyd, E. Brothers, 
 K. N. Kudin, V. N. Staroverov, R. Kobayashi, J. Normand, 
 K. Raghavachari, A. Rendell, J. C. Burant, S. S. Iyengar, J. Tomasi, 
 M. Cossi, N. Rega, J. M. Millam, M. Klene, J. E. Knox, J. B. Cross, 
 V. Bakken, C. Adamo, J. Jaramillo, R. Gomperts, R. E. Stratmann, 
 O. Yazyev, A. J. Austin, R. Cammi, C. Pomelli, J. W. Ochterski, 
 R. L. Martin, K. Morokuma, V. G. Zakrzewski, G. A. Voth, 
 P. Salvador, J. J. Dannenberg, S. Dapprich, A. D. Daniels, 
 O. Farkas, J. B. Foresman, J. V. Ortiz, J. Cioslowski, 
 and D. J. Fox, Gaussian, Inc., Wallingford CT, 2009.
 
 ******************************************
 Gaussian 09:  EM64L-G09RevA.02 11-Jun-2009
                 4-Mar-2020 
 ******************************************
 %RWF=/scratch/bdw2292/Gau-MOLECULE0/,100GB
 %Nosave
 %Chk=MOLECULE0-opt-22-21-20-18-168.chk
 %Mem=20GB
 %Nproc=6
 Will use up to    6 processors via shared memory.
 --------------------------------------------------
 #P opt=(,maxcycle=400) wB97XD/6-31G* MaxDisk=100GB
 --------------------------------------------------
 1/6=400,14=-1,18=20,19=15,26=3,38=1/1,3;
 2/9=110,12=2,17=6,18=5,40=1/2;
 3/5=1,6=6,7=1,11=2,16=1,25=1,30=1,71=1,74=-58/1,2,3;
 4//1;
 5/5=2,38=5/2;
 6/7=2,8=2,9=2,10=2,28=1/1;
 7//1,2,3,16;
 1/6=400,14=-1,18=20,19=15/3(2);
 2/9=110/2;
 99//99;
 2/9=110/2;
 3/5=1,6=6,7=1,11=2,16=1,25=1,30=1,71=1,74=-58/1,2,3;
 4/5=5,16=3/1;
 5/5=2,38=5/2;
 7//1,2,3,16;
 1/6=400,14=-1,18=20,19=15/3(-5);
 2/9=110/2;
 6/7=2,8=2,9=2,10=2,19=2,28=1/1;
 99/9=1/99;
 Leave Link    1 at Wed Mar  4 06:40:46 2020, MaxMem= 2684354560 cpu:       0.2
 (Enter /opt/g09gh/gaussian/g09/l101.exe)
 --------------------------------------------------------------
 MOLECULE0 Rotatable Bond Optimization on node37.bme.utexas.edu
 --------------------------------------------------------------
 Symbolic Z-matrix:
 Charge =  0 Multiplicity = 1
 C                     1.38317   3.9839   -3.23263 
 C                     2.55542   3.86263  -2.47346 
 C                     2.83597   2.6577   -1.79853 
 C                     1.88179   1.62381  -1.96869 
 N                     0.75693   1.7179   -2.68888 
 C                     0.51831   2.88594  -3.30422 
 C                     4.06387   2.44267  -0.94682 
 C                     5.10695   3.3649   -0.76528 
 C                     6.15334   2.94169   0.06209 
 N                     6.20066   1.76106   0.67285 
 C                     5.14728   0.94519   0.45785 
 N                     4.10543   1.25042  -0.32104 
 N                     5.19498  -0.27681   1.1136 
 C                     4.34109  -1.43988   1.10422 
 C                     4.8364   -2.68116   1.60696 
 C                     3.96688  -3.78444   1.56152 
 C                     2.66355  -3.73227   1.05319 
 C                     2.18578  -2.50496   0.58216 
 C                     3.0308   -1.38427   0.6143 
 N                     0.88869  -2.26519   0.02323 
 C                    -0.11828  -3.1327   -0.32763 
 C                    -1.48078  -2.54561  -0.64316 
 C                    -1.6664   -1.3091   -1.28522 
 C                    -2.95304  -0.81503  -1.50989 
 C                    -4.09597  -1.53799  -1.12026 
 C                    -3.89588  -2.78521  -0.49778 
 C                    -2.61317  -3.29057  -0.27432 
 C                    -5.50008  -0.96143  -1.30951 
 N                    -6.02993  -0.02875  -0.29701 
 C                    -5.51505   1.35905  -0.25829 
 C                    -4.34818   1.58945   0.73656 
 N                    -4.63312   1.14102   2.11956 
 C                    -5.40569   2.05895   2.96461 
 C                    -5.09951  -0.26528   2.07605 
 C                    -6.25685  -0.53172   1.07825 
 O                     0.05072  -4.34088  -0.3746 
 C                     6.24059  -2.86118   2.15778 
 H                     1.14387   4.90557  -3.75476 
 H                     3.22043   4.72071  -2.41423 
 H                     2.04968   0.65449  -1.51359 
 H                    -0.40201   2.93871  -3.88371 
 H                     5.14329   4.34161  -1.23191 
 H                     7.00633   3.59464   0.24515 
 H                     6.06182  -0.35284   1.6245 
 H                     4.31563  -4.75103   1.9234 
 H                     2.03526  -4.61374   1.01413 
 H                     2.66969  -0.4352    0.2534 
 H                     0.71967  -1.29909  -0.21617 
 H                    -0.80326  -0.7316   -1.61058 
 H                    -3.06094   0.15563  -1.9939 
 H                    -4.75182  -3.37412  -0.16876 
 H                    -2.46836  -4.25388   0.20843 
 H                    -5.53592  -0.43915  -2.27661 
 H                    -6.21313  -1.79653  -1.37131 
 H                    -5.29764   1.70451  -1.22494 
 H                    -6.69926   2.26299   0.27937 
 H                    -4.07787   3.06911   0.7625 
 H                    -3.38012   1.05714   0.38021 
 H                    -6.42326   2.18853   2.57913 
 H                    -4.916     3.03862   3.00526 
 H                    -5.46351   1.67112   3.98812 
 H                    -5.4377   -0.63278   3.24651 
 H                    -3.93917  -1.09379   1.65448 
 H                    -7.49336   0.2679    1.65922 
 H                    -6.54385  -1.57023   1.05987 
 H                     6.39249  -2.26847   3.07083 
 H                     7.00241  -2.54839   1.42974 
 H                     6.46806  -3.90427   2.41746 
 
 NAtoms=     68 NQM=     68 NQMF=      0 NMic=      0 NMicF=      0 NTot=     68.
                    Isotopes and Nuclear Properties:
 (Nuclear quadrupole moments (NQMom) in fm**2, nuclear magnetic moments (NMagM)
  in nuclear magnetons)

  Atom         1           2           3           4           5           6           7           8           9          10
 IAtWgt=          12          12          12          12          14          12          12          12          12          14
 AtmWgt=  12.0000000  12.0000000  12.0000000  12.0000000  14.0030740  12.0000000  12.0000000  12.0000000  12.0000000  14.0030740
 NucSpn=           0           0           0           0           2           0           0           0           0           2
 AtZEff=   0.0000000   0.0000000   0.0000000   0.0000000   0.0000000   0.0000000   0.0000000   0.0000000   0.0000000   0.0000000
 NQMom=    0.0000000   0.0000000   0.0000000   0.0000000   2.0440000   0.0000000   0.0000000   0.0000000   0.0000000   2.0440000
 NMagM=    0.0000000   0.0000000   0.0000000   0.0000000   0.4037610   0.0000000   0.0000000   0.0000000   0.0000000   0.4037610

  Atom        11          12          13          14          15          16          17          18          19          20
 IAtWgt=          12          14          14          12          12          12          12          12          12          14
 AtmWgt=  12.0000000  14.0030740  14.0030740  12.0000000  12.0000000  12.0000000  12.0000000  12.0000000  12.0000000  14.0030740
 NucSpn=           0           2           2           0           0           0           0           0           0           2
 AtZEff=   0.0000000   0.0000000   0.0000000   0.0000000   0.0000000   0.0000000   0.0000000   0.0000000   0.0000000   0.0000000
 NQMom=    0.0000000   2.0440000   2.0440000   0.0000000   0.0000000   0.0000000   0.0000000   0.0000000   0.0000000   2.0440000
 NMagM=    0.0000000   0.4037610   0.4037610   0.0000000   0.0000000   0.0000000   0.0000000   0.0000000   0.0000000   0.4037610

  Atom        21          22          23          24          25          26          27          28          29          30
 IAtWgt=          12          12          12          12          12          12          12          12          14          12
 AtmWgt=  12.0000000  12.0000000  12.0000000  12.0000000  12.0000000  12.0000000  12.0000000  12.0000000  14.0030740  12.0000000
 NucSpn=           0           0           0           0           0           0           0           0           2           0
 AtZEff=   0.0000000   0.0000000   0.0000000   0.0000000   0.0000000   0.0000000   0.0000000   0.0000000   0.0000000   0.0000000
 NQMom=    0.0000000   0.0000000   0.0000000   0.0000000   0.0000000   0.0000000   0.0000000   0.0000000   2.0440000   0.0000000
 NMagM=    0.0000000   0.0000000   0.0000000   0.0000000   0.0000000   0.0000000   0.0000000   0.0000000   0.4037610   0.0000000

  Atom        31          32          33          34          35          36          37          38          39          40
 IAtWgt=          12          14          12          12          12          16          12           1           1           1
 AtmWgt=  12.0000000  14.0030740  12.0000000  12.0000000  12.0000000  15.9949146  12.0000000   1.0078250   1.0078250   1.0078250
 NucSpn=           0           2           0           0           0           0           0           1           1           1
 AtZEff=   0.0000000   0.0000000   0.0000000   0.0000000   0.0000000   0.0000000   0.0000000   0.0000000   0.0000000   0.0000000
 NQMom=    0.0000000   2.0440000   0.0000000   0.0000000   0.0000000   0.0000000   0.0000000   0.0000000   0.0000000   0.0000000
 NMagM=    0.0000000   0.4037610   0.0000000   0.0000000   0.0000000   0.0000000   0.0000000   2.7928460   2.7928460   2.7928460

  Atom        41          42          43          44          45          46          47          48          49          50
 IAtWgt=           1           1           1           1           1           1           1           1           1           1
 AtmWgt=   1.0078250   1.0078250   1.0078250   1.0078250   1.0078250   1.0078250   1.0078250   1.0078250   1.0078250   1.0078250
 NucSpn=           1           1           1           1           1           1           1           1           1           1
 AtZEff=   0.0000000   0.0000000   0.0000000   0.0000000   0.0000000   0.0000000   0.0000000   0.0000000   0.0000000   0.0000000
 NQMom=    0.0000000   0.0000000   0.0000000   0.0000000   0.0000000   0.0000000   0.0000000   0.0000000   0.0000000   0.0000000
 NMagM=    2.7928460   2.7928460   2.7928460   2.7928460   2.7928460   2.7928460   2.7928460   2.7928460   2.7928460   2.7928460

  Atom        51          52          53          54          55          56          57          58          59          60
 IAtWgt=           1           1           1           1           1           1           1           1           1           1
 AtmWgt=   1.0078250   1.0078250   1.0078250   1.0078250   1.0078250   1.0078250   1.0078250   1.0078250   1.0078250   1.0078250
 NucSpn=           1           1           1           1           1           1           1           1           1           1
 AtZEff=   0.0000000   0.0000000   0.0000000   0.0000000   0.0000000   0.0000000   0.0000000   0.0000000   0.0000000   0.0000000
 NQMom=    0.0000000   0.0000000   0.0000000   0.0000000   0.0000000   0.0000000   0.0000000   0.0000000   0.0000000   0.0000000
 NMagM=    2.7928460   2.7928460   2.7928460   2.7928460   2.7928460   2.7928460   2.7928460   2.7928460   2.7928460   2.7928460

  Atom        61          62          63          64          65          66          67          68
 IAtWgt=           1           1           1           1           1           1           1           1
 AtmWgt=   1.0078250   1.0078250   1.0078250   1.0078250   1.0078250   1.0078250   1.0078250   1.0078250
 NucSpn=           1           1           1           1           1           1           1           1
 AtZEff=   0.0000000   0.0000000   0.0000000   0.0000000   0.0000000   0.0000000   0.0000000   0.0000000
 NQMom=    0.0000000   0.0000000   0.0000000   0.0000000   0.0000000   0.0000000   0.0000000   0.0000000
 NMagM=    2.7928460   2.7928460   2.7928460   2.7928460   2.7928460   2.7928460   2.7928460   2.7928460
 Leave Link  101 at Wed Mar  4 06:40:46 2020, MaxMem= 2684354560 cpu:       0.5
 (Enter /opt/g09gh/gaussian/g09/l103.exe)

 GradGradGradGradGradGradGradGradGradGradGradGradGradGradGradGradGradGrad
 Berny optimization.
 Initialization pass.
                           ----------------------------
                           !    Initial Parameters    !
                           ! (Angstroms and Degrees)  !
 --------------------------                            --------------------------
 ! Name  Definition              Value          Derivative Info.                !
 --------------------------------------------------------------------------------
 ! R1    R(1,2)                  1.4019         estimate D2E/DX2                !
 ! R2    R(1,6)                  1.3995         estimate D2E/DX2                !
 ! R3    R(1,38)                 1.086          estimate D2E/DX2                !
 ! R4    R(2,3)                  1.4093         estimate D2E/DX2                !
 ! R5    R(2,39)                 1.0872         estimate D2E/DX2                !
 ! R6    R(3,4)                  1.4172         estimate D2E/DX2                !
 ! R7    R(3,7)                  1.5098         estimate D2E/DX2                !
 ! R8    R(4,5)                  1.339          estimate D2E/DX2                !
 ! R9    R(4,40)                 1.0839         estimate D2E/DX2                !
 ! R10   R(5,6)                  1.3416         estimate D2E/DX2                !
 ! R11   R(6,41)                 1.0888         estimate D2E/DX2                !
 ! R12   R(7,8)                  1.4041         estimate D2E/DX2                !
 ! R13   R(7,12)                 1.3471         estimate D2E/DX2                !
 ! R14   R(8,9)                  1.3995         estimate D2E/DX2                !
 ! R15   R(8,42)                 1.0831         estimate D2E/DX2                !
 ! R16   R(9,10)                 1.3301         estimate D2E/DX2                !
 ! R17   R(9,43)                 1.0897         estimate D2E/DX2                !
 ! R18   R(10,11)                1.3496         estimate D2E/DX2                !
 ! R19   R(11,12)                1.3361         estimate D2E/DX2                !
 ! R20   R(11,13)                1.3876         estimate D2E/DX2                !
 ! R21   R(13,14)                1.4429         estimate D2E/DX2                !
 ! R22   R(13,44)                1.0091         estimate D2E/DX2                !
 ! R23   R(14,15)                1.4279         estimate D2E/DX2                !
 ! R24   R(14,19)                1.4            estimate D2E/DX2                !
 ! R25   R(15,16)                1.4055         estimate D2E/DX2                !
 ! R26   R(15,37)                1.5191         estimate D2E/DX2                !
 ! R27   R(16,17)                1.3999         estimate D2E/DX2                !
 ! R28   R(16,45)                1.0894         estimate D2E/DX2                !
 ! R29   R(17,18)                1.3987         estimate D2E/DX2                !
 ! R30   R(17,46)                1.0832         estimate D2E/DX2                !
 ! R31   R(18,19)                1.4039         estimate D2E/DX2                !
 ! R32   R(18,20)                1.4326         estimate D2E/DX2                !
 ! R33   R(19,47)                1.0777         estimate D2E/DX2                !
 ! R34   R(20,21)                1.3747         estimate D2E/DX2                !
 ! R35   R(20,48)                1.0096         estimate D2E/DX2                !
 ! R36   R(21,22)                1.5168         estimate D2E/DX2                !
 ! R37   R(21,36)                1.2208         estimate D2E/DX2                !
 ! R38   R(22,23)                1.4056         estimate D2E/DX2                !
 ! R39   R(22,27)                1.4047         estimate D2E/DX2                !
 ! R40   R(23,24)                1.3964         estimate D2E/DX2                !
 ! R41   R(23,49)                1.0883         estimate D2E/DX2                !
 ! R42   R(24,25)                1.4074         estimate D2E/DX2                !
 ! R43   R(24,50)                1.09           estimate D2E/DX2                !
 ! R44   R(25,26)                1.4082         estimate D2E/DX2                !
 ! R45   R(25,28)                1.5296         estimate D2E/DX2                !
 ! R46   R(26,27)                1.3967         estimate D2E/DX2                !
 ! R47   R(26,51)                1.0898         estimate D2E/DX2                !
 ! R48   R(27,52)                1.0872         estimate D2E/DX2                !
 ! R49   R(28,29)                1.4751         estimate D2E/DX2                !
 ! R50   R(28,53)                1.0997         estimate D2E/DX2                !
 ! R51   R(28,54)                1.0998         estimate D2E/DX2                !
 ! R52   R(29,30)                1.4807         estimate D2E/DX2                !
 ! R53   R(29,35)                1.4818         estimate D2E/DX2                !
 ! R54   R(30,31)                1.5506         estimate D2E/DX2                !
 ! R55   R(30,55)                1.0493         estimate D2E/DX2                !
 ! R56   R(30,56)                1.5838         estimate D2E/DX2                !
 ! R57   R(31,32)                1.4815         estimate D2E/DX2                !
 ! R58   R(31,57)                1.5044         estimate D2E/DX2                !
 ! R59   R(31,58)                1.1608         estimate D2E/DX2                !
 ! R60   R(32,33)                1.4675         estimate D2E/DX2                !
 ! R61   R(32,34)                1.4823         estimate D2E/DX2                !
 ! R62   R(33,59)                1.0958         estimate D2E/DX2                !
 ! R63   R(33,60)                1.096          estimate D2E/DX2                !
 ! R64   R(33,61)                1.0961         estimate D2E/DX2                !
 ! R65   R(34,35)                1.5511         estimate D2E/DX2                !
 ! R66   R(34,62)                1.2726         estimate D2E/DX2                !
 ! R67   R(34,63)                1.4868         estimate D2E/DX2                !
 ! R68   R(35,64)                1.583          estimate D2E/DX2                !
 ! R69   R(35,65)                1.0776         estimate D2E/DX2                !
 ! R70   R(37,66)                1.0991         estimate D2E/DX2                !
 ! R71   R(37,67)                1.0992         estimate D2E/DX2                !
 ! R72   R(37,68)                1.0987         estimate D2E/DX2                !
 ! A1    A(2,1,6)              118.4632         estimate D2E/DX2                !
 ! A2    A(2,1,38)             121.2009         estimate D2E/DX2                !
 ! A3    A(6,1,38)             120.3358         estimate D2E/DX2                !
 ! A4    A(1,2,3)              119.9855         estimate D2E/DX2                !
 ! A5    A(1,2,39)             118.2102         estimate D2E/DX2                !
 ! A6    A(3,2,39)             121.7989         estimate D2E/DX2                !
 ! A7    A(2,3,4)              115.6083         estimate D2E/DX2                !
 ! A8    A(2,3,7)              123.6322         estimate D2E/DX2                !
 ! A9    A(4,3,7)              120.759          estimate D2E/DX2                !
 ! A10   A(3,4,5)              125.3772         estimate D2E/DX2                !
 ! A11   A(3,4,40)             119.849          estimate D2E/DX2                !
 ! A12   A(5,4,40)             114.7584         estimate D2E/DX2                !
 ! A13   A(4,5,6)              117.2131         estimate D2E/DX2                !
 ! A14   A(1,6,5)              123.3436         estimate D2E/DX2                !
 ! A15   A(1,6,41)             120.7658         estimate D2E/DX2                !
 ! A16   A(5,6,41)             115.8892         estimate D2E/DX2                !
 ! A17   A(3,7,8)              125.7028         estimate D2E/DX2                !
 ! A18   A(3,7,12)             114.4061         estimate D2E/DX2                !
 ! A19   A(8,7,12)             119.8886         estimate D2E/DX2                !
 ! A20   A(7,8,9)              115.6749         estimate D2E/DX2                !
 ! A21   A(7,8,42)             124.1625         estimate D2E/DX2                !
 ! A22   A(9,8,42)             120.1541         estimate D2E/DX2                !
 ! A23   A(8,9,10)             124.5055         estimate D2E/DX2                !
 ! A24   A(8,9,43)             120.2241         estimate D2E/DX2                !
 ! A25   A(10,9,43)            115.2703         estimate D2E/DX2                !
 ! A26   A(9,10,11)            115.8282         estimate D2E/DX2                !
 ! A27   A(10,11,12)           124.2879         estimate D2E/DX2                !
 ! A28   A(10,11,13)           115.4829         estimate D2E/DX2                !
 ! A29   A(12,11,13)           120.2289         estimate D2E/DX2                !
 ! A30   A(7,12,11)            119.8033         estimate D2E/DX2                !
 ! A31   A(11,13,14)           133.3477         estimate D2E/DX2                !
 ! A32   A(11,13,44)           109.5817         estimate D2E/DX2                !
 ! A33   A(14,13,44)           116.8039         estimate D2E/DX2                !
 ! A34   A(13,14,15)           119.5477         estimate D2E/DX2                !
 ! A35   A(13,14,19)           121.6097         estimate D2E/DX2                !
 ! A36   A(15,14,19)           118.8426         estimate D2E/DX2                !
 ! A37   A(14,15,16)           117.1559         estimate D2E/DX2                !
 ! A38   A(14,15,37)           123.4593         estimate D2E/DX2                !
 ! A39   A(16,15,37)           119.3783         estimate D2E/DX2                !
 ! A40   A(15,16,17)           123.9496         estimate D2E/DX2                !
 ! A41   A(15,16,45)           119.1887         estimate D2E/DX2                !
 ! A42   A(17,16,45)           116.8532         estimate D2E/DX2                !
 ! A43   A(16,17,18)           118.2282         estimate D2E/DX2                !
 ! A44   A(16,17,46)           121.52           estimate D2E/DX2                !
 ! A45   A(18,17,46)           120.2504         estimate D2E/DX2                !
 ! A46   A(17,18,19)           119.1519         estimate D2E/DX2                !
 ! A47   A(17,18,20)           125.9805         estimate D2E/DX2                !
 ! A48   A(19,18,20)           114.8527         estimate D2E/DX2                !
 ! A49   A(14,19,18)           122.6582         estimate D2E/DX2                !
 ! A50   A(14,19,47)           117.7616         estimate D2E/DX2                !
 ! A51   A(18,19,47)           119.58           estimate D2E/DX2                !
 ! A52   A(18,20,21)           131.0866         estimate D2E/DX2                !
 ! A53   A(18,20,48)           113.8451         estimate D2E/DX2                !
 ! A54   A(21,20,48)           114.8811         estimate D2E/DX2                !
 ! A55   A(20,21,22)           117.8299         estimate D2E/DX2                !
 ! A56   A(20,21,36)           122.2044         estimate D2E/DX2                !
 ! A57   A(22,21,36)           119.9598         estimate D2E/DX2                !
 ! A58   A(21,22,23)           123.6528         estimate D2E/DX2                !
 ! A59   A(21,22,27)           117.6605         estimate D2E/DX2                !
 ! A60   A(23,22,27)           118.686          estimate D2E/DX2                !
 ! A61   A(22,23,24)           120.4257         estimate D2E/DX2                !
 ! A62   A(22,23,49)           119.9105         estimate D2E/DX2                !
 ! A63   A(24,23,49)           119.6639         estimate D2E/DX2                !
 ! A64   A(23,24,25)           121.4633         estimate D2E/DX2                !
 ! A65   A(23,24,50)           118.5368         estimate D2E/DX2                !
 ! A66   A(25,24,50)           119.9991         estimate D2E/DX2                !
 ! A67   A(24,25,26)           117.5127         estimate D2E/DX2                !
 ! A68   A(24,25,28)           121.1698         estimate D2E/DX2                !
 ! A69   A(26,25,28)           121.262          estimate D2E/DX2                !
 ! A70   A(25,26,27)           121.445          estimate D2E/DX2                !
 ! A71   A(25,26,51)           120.0299         estimate D2E/DX2                !
 ! A72   A(27,26,51)           118.5219         estimate D2E/DX2                !
 ! A73   A(22,27,26)           120.428          estimate D2E/DX2                !
 ! A74   A(22,27,52)           118.6271         estimate D2E/DX2                !
 ! A75   A(26,27,52)           120.9287         estimate D2E/DX2                !
 ! A76   A(25,28,29)           118.8903         estimate D2E/DX2                !
 ! A77   A(25,28,53)           108.526          estimate D2E/DX2                !
 ! A78   A(25,28,54)           108.4136         estimate D2E/DX2                !
 ! A79   A(29,28,53)           106.9565         estimate D2E/DX2                !
 ! A80   A(29,28,54)           106.606          estimate D2E/DX2                !
 ! A81   A(53,28,54)           106.862          estimate D2E/DX2                !
 ! A82   A(28,29,30)           119.0559         estimate D2E/DX2                !
 ! A83   A(28,29,35)           118.5183         estimate D2E/DX2                !
 ! A84   A(30,29,35)           110.3101         estimate D2E/DX2                !
 ! A85   A(29,30,31)           114.6896         estimate D2E/DX2                !
 ! A86   A(29,30,55)           110.8869         estimate D2E/DX2                !
 ! A87   A(29,30,56)           106.4872         estimate D2E/DX2                !
 ! A88   A(31,30,55)           112.719          estimate D2E/DX2                !
 ! A89   A(31,30,56)           105.0728         estimate D2E/DX2                !
 ! A90   A(55,30,56)           106.2451         estimate D2E/DX2                !
 ! A91   A(30,31,32)           114.1555         estimate D2E/DX2                !
 ! A92   A(30,31,57)           107.0034         estimate D2E/DX2                !
 ! A93   A(30,31,58)           111.2525         estimate D2E/DX2                !
 ! A94   A(32,31,57)           108.431          estimate D2E/DX2                !
 ! A95   A(32,31,58)           107.948          estimate D2E/DX2                !
 ! A96   A(57,31,58)           107.8469         estimate D2E/DX2                !
 ! A97   A(31,32,33)           116.7095         estimate D2E/DX2                !
 ! A98   A(31,32,34)           108.6794         estimate D2E/DX2                !
 ! A99   A(33,32,34)           116.4044         estimate D2E/DX2                !
 ! A100  A(32,33,59)           111.1161         estimate D2E/DX2                !
 ! A101  A(32,33,60)           110.1971         estimate D2E/DX2                !
 ! A102  A(32,33,61)           110.131          estimate D2E/DX2                !
 ! A103  A(59,33,60)           108.7989         estimate D2E/DX2                !
 ! A104  A(59,33,61)           108.744          estimate D2E/DX2                !
 ! A105  A(60,33,61)           107.7719         estimate D2E/DX2                !
 ! A106  A(32,34,35)           114.6214         estimate D2E/DX2                !
 ! A107  A(32,34,62)           109.3054         estimate D2E/DX2                !
 ! A108  A(32,34,63)           106.9448         estimate D2E/DX2                !
 ! A109  A(35,34,62)           110.1068         estimate D2E/DX2                !
 ! A110  A(35,34,63)           107.7091         estimate D2E/DX2                !
 ! A111  A(62,34,63)           107.8951         estimate D2E/DX2                !
 ! A112  A(29,35,34)           115.1157         estimate D2E/DX2                !
 ! A113  A(29,35,64)           106.7848         estimate D2E/DX2                !
 ! A114  A(29,35,65)           110.6142         estimate D2E/DX2                !
 ! A115  A(34,35,64)           105.0676         estimate D2E/DX2                !
 ! A116  A(34,35,65)           112.0385         estimate D2E/DX2                !
 ! A117  A(64,35,65)           106.5604         estimate D2E/DX2                !
 ! A118  A(15,37,66)           111.4113         estimate D2E/DX2                !
 ! A119  A(15,37,67)           111.5162         estimate D2E/DX2                !
 ! A120  A(15,37,68)           112.9283         estimate D2E/DX2                !
 ! A121  A(66,37,67)           107.5164         estimate D2E/DX2                !
 ! A122  A(66,37,68)           106.6784         estimate D2E/DX2                !
 ! A123  A(67,37,68)           106.4522         estimate D2E/DX2                !
 ! D1    D(6,1,2,3)             -0.3592         estimate D2E/DX2                !
 ! D2    D(6,1,2,39)          -179.5232         estimate D2E/DX2                !
 ! D3    D(38,1,2,3)           179.5493         estimate D2E/DX2                !
 ! D4    D(38,1,2,39)            0.3854         estimate D2E/DX2                !
 ! D5    D(2,1,6,5)             -0.3946         estimate D2E/DX2                !
 ! D6    D(2,1,6,41)          -179.9535         estimate D2E/DX2                !
 ! D7    D(38,1,6,5)           179.6961         estimate D2E/DX2                !
 ! D8    D(38,1,6,41)            0.1372         estimate D2E/DX2                !
 ! D9    D(1,2,3,4)              0.9861         estimate D2E/DX2                !
 ! D10   D(1,2,3,7)           -179.2808         estimate D2E/DX2                !
 ! D11   D(39,2,3,4)          -179.8808         estimate D2E/DX2                !
 ! D12   D(39,2,3,7)            -0.1477         estimate D2E/DX2                !
 ! D13   D(2,3,4,5)             -1.013          estimate D2E/DX2                !
 ! D14   D(2,3,4,40)           177.4841         estimate D2E/DX2                !
 ! D15   D(7,3,4,5)            179.2456         estimate D2E/DX2                !
 ! D16   D(7,3,4,40)            -2.2573         estimate D2E/DX2                !
 ! D17   D(2,3,7,8)             -3.3346         estimate D2E/DX2                !
 ! D18   D(2,3,7,12)           176.0873         estimate D2E/DX2                !
 ! D19   D(4,3,7,8)            176.3853         estimate D2E/DX2                !
 ! D20   D(4,3,7,12)            -4.1928         estimate D2E/DX2                !
 ! D21   D(3,4,5,6)              0.3194         estimate D2E/DX2                !
 ! D22   D(40,4,5,6)          -178.2451         estimate D2E/DX2                !
 ! D23   D(4,5,6,1)              0.4204         estimate D2E/DX2                !
 ! D24   D(4,5,6,41)           179.9991         estimate D2E/DX2                !
 ! D25   D(3,7,8,9)           -179.4222         estimate D2E/DX2                !
 ! D26   D(3,7,8,42)            -0.4846         estimate D2E/DX2                !
 ! D27   D(12,7,8,9)             1.185          estimate D2E/DX2                !
 ! D28   D(12,7,8,42)         -179.8774         estimate D2E/DX2                !
 ! D29   D(3,7,12,11)          179.7819         estimate D2E/DX2                !
 ! D30   D(8,7,12,11)           -0.7596         estimate D2E/DX2                !
 ! D31   D(7,8,9,10)            -0.7271         estimate D2E/DX2                !
 ! D32   D(7,8,9,43)           179.3316         estimate D2E/DX2                !
 ! D33   D(42,8,9,10)         -179.7105         estimate D2E/DX2                !
 ! D34   D(42,8,9,43)            0.3482         estimate D2E/DX2                !
 ! D35   D(8,9,10,11)           -0.1817         estimate D2E/DX2                !
 ! D36   D(43,9,10,11)         179.7622         estimate D2E/DX2                !
 ! D37   D(9,10,11,12)           0.7023         estimate D2E/DX2                !
 ! D38   D(9,10,11,13)        -179.1167         estimate D2E/DX2                !
 ! D39   D(10,11,12,7)          -0.2354         estimate D2E/DX2                !
 ! D40   D(13,11,12,7)         179.5754         estimate D2E/DX2                !
 ! D41   D(10,11,13,14)       -176.0329         estimate D2E/DX2                !
 ! D42   D(10,11,13,44)         -2.3432         estimate D2E/DX2                !
 ! D43   D(12,11,13,14)          4.1403         estimate D2E/DX2                !
 ! D44   D(12,11,13,44)        177.8299         estimate D2E/DX2                !
 ! D45   D(11,13,14,15)        163.1111         estimate D2E/DX2                !
 ! D46   D(11,13,14,19)        -16.9834         estimate D2E/DX2                !
 ! D47   D(44,13,14,15)        -10.2262         estimate D2E/DX2                !
 ! D48   D(44,13,14,19)        169.6792         estimate D2E/DX2                !
 ! D49   D(13,14,15,16)       -179.3791         estimate D2E/DX2                !
 ! D50   D(13,14,15,37)         -0.3213         estimate D2E/DX2                !
 ! D51   D(19,14,15,16)          0.7129         estimate D2E/DX2                !
 ! D52   D(19,14,15,37)        179.7706         estimate D2E/DX2                !
 ! D53   D(13,14,19,18)        179.3344         estimate D2E/DX2                !
 ! D54   D(13,14,19,47)         -0.8444         estimate D2E/DX2                !
 ! D55   D(15,14,19,18)         -0.7595         estimate D2E/DX2                !
 ! D56   D(15,14,19,47)        179.0617         estimate D2E/DX2                !
 ! D57   D(14,15,16,17)          0.2314         estimate D2E/DX2                !
 ! D58   D(14,15,16,45)        179.1374         estimate D2E/DX2                !
 ! D59   D(37,15,16,17)       -178.8665         estimate D2E/DX2                !
 ! D60   D(37,15,16,45)          0.0395         estimate D2E/DX2                !
 ! D61   D(14,15,37,66)         64.8874         estimate D2E/DX2                !
 ! D62   D(14,15,37,67)        -55.2515         estimate D2E/DX2                !
 ! D63   D(14,15,37,68)       -175.0736         estimate D2E/DX2                !
 ! D64   D(16,15,37,66)       -116.0747         estimate D2E/DX2                !
 ! D65   D(16,15,37,67)        123.7864         estimate D2E/DX2                !
 ! D66   D(16,15,37,68)          3.9643         estimate D2E/DX2                !
 ! D67   D(15,16,17,18)         -1.145          estimate D2E/DX2                !
 ! D68   D(15,16,17,46)        178.4226         estimate D2E/DX2                !
 ! D69   D(45,16,17,18)        179.9255         estimate D2E/DX2                !
 ! D70   D(45,16,17,46)         -0.5069         estimate D2E/DX2                !
 ! D71   D(16,17,18,19)          1.0834         estimate D2E/DX2                !
 ! D72   D(16,17,18,20)        179.6046         estimate D2E/DX2                !
 ! D73   D(46,17,18,19)       -178.4899         estimate D2E/DX2                !
 ! D74   D(46,17,18,20)          0.0314         estimate D2E/DX2                !
 ! D75   D(17,18,19,14)         -0.1636         estimate D2E/DX2                !
 ! D76   D(17,18,19,47)       -179.9817         estimate D2E/DX2                !
 ! D77   D(20,18,19,14)       -178.8449         estimate D2E/DX2                !
 ! D78   D(20,18,19,47)          1.3371         estimate D2E/DX2                !
 ! D79   D(17,18,20,21)         -8.2017         estimate D2E/DX2                !
 ! D80   D(17,18,20,48)        177.1118         estimate D2E/DX2                !
 ! D81   D(19,18,20,21)        170.3751         estimate D2E/DX2                !
 ! D82   D(19,18,20,48)         -4.3114         estimate D2E/DX2                !
 ! D83   D(18,20,21,22)        168.1964         estimate D2E/DX2                !
 ! D84   D(18,20,21,36)        -10.922          estimate D2E/DX2                !
 ! D85   D(48,20,21,22)        -17.1609         estimate D2E/DX2                !
 ! D86   D(48,20,21,36)        163.7206         estimate D2E/DX2                !
 ! D87   D(20,21,22,23)         35.3318         estimate D2E/DX2                !
 ! D88   D(20,21,22,27)       -144.9763         estimate D2E/DX2                !
 ! D89   D(36,21,22,23)       -145.5291         estimate D2E/DX2                !
 ! D90   D(36,21,22,27)         34.1627         estimate D2E/DX2                !
 ! D91   D(21,22,23,24)       -178.2234         estimate D2E/DX2                !
 ! D92   D(21,22,23,49)          1.8048         estimate D2E/DX2                !
 ! D93   D(27,22,23,24)          2.0877         estimate D2E/DX2                !
 ! D94   D(27,22,23,49)       -177.8841         estimate D2E/DX2                !
 ! D95   D(21,22,27,26)        177.9092         estimate D2E/DX2                !
 ! D96   D(21,22,27,52)         -0.6382         estimate D2E/DX2                !
 ! D97   D(23,22,27,26)         -2.3832         estimate D2E/DX2                !
 ! D98   D(23,22,27,52)        179.0694         estimate D2E/DX2                !
 ! D99   D(22,23,24,25)         -0.7886         estimate D2E/DX2                !
 ! D100  D(22,23,24,50)        178.8871         estimate D2E/DX2                !
 ! D101  D(49,23,24,25)        179.1833         estimate D2E/DX2                !
 ! D102  D(49,23,24,50)         -1.141          estimate D2E/DX2                !
 ! D103  D(23,24,25,26)         -0.2461         estimate D2E/DX2                !
 ! D104  D(23,24,25,28)        177.0752         estimate D2E/DX2                !
 ! D105  D(50,24,25,26)       -179.9172         estimate D2E/DX2                !
 ! D106  D(50,24,25,28)         -2.5958         estimate D2E/DX2                !
 ! D107  D(24,25,26,27)         -0.0537         estimate D2E/DX2                !
 ! D108  D(24,25,26,51)        179.2759         estimate D2E/DX2                !
 ! D109  D(28,25,26,27)       -177.3725         estimate D2E/DX2                !
 ! D110  D(28,25,26,51)          1.9572         estimate D2E/DX2                !
 ! D111  D(24,25,28,29)        -82.8595         estimate D2E/DX2                !
 ! D112  D(24,25,28,53)         39.5669         estimate D2E/DX2                !
 ! D113  D(24,25,28,54)        155.288          estimate D2E/DX2                !
 ! D114  D(26,25,28,29)         94.3612         estimate D2E/DX2                !
 ! D115  D(26,25,28,53)       -143.2124         estimate D2E/DX2                !
 ! D116  D(26,25,28,54)        -27.4913         estimate D2E/DX2                !
 ! D117  D(25,26,27,22)          1.3909         estimate D2E/DX2                !
 ! D118  D(25,26,27,52)        179.9045         estimate D2E/DX2                !
 ! D119  D(51,26,27,22)       -177.9486         estimate D2E/DX2                !
 ! D120  D(51,26,27,52)          0.565          estimate D2E/DX2                !
 ! D121  D(25,28,29,30)         74.5577         estimate D2E/DX2                !
 ! D122  D(25,28,29,35)        -64.3624         estimate D2E/DX2                !
 ! D123  D(53,28,29,30)        -48.6475         estimate D2E/DX2                !
 ! D124  D(53,28,29,35)        172.4323         estimate D2E/DX2                !
 ! D125  D(54,28,29,30)       -162.6877         estimate D2E/DX2                !
 ! D126  D(54,28,29,35)         58.3921         estimate D2E/DX2                !
 ! D127  D(28,29,30,31)        -94.4176         estimate D2E/DX2                !
 ! D128  D(28,29,30,55)         34.6622         estimate D2E/DX2                !
 ! D129  D(28,29,30,56)        149.8258         estimate D2E/DX2                !
 ! D130  D(35,29,30,31)         47.5828         estimate D2E/DX2                !
 ! D131  D(35,29,30,55)        176.6626         estimate D2E/DX2                !
 ! D132  D(35,29,30,56)        -68.1738         estimate D2E/DX2                !
 ! D133  D(28,29,35,34)         95.7352         estimate D2E/DX2                !
 ! D134  D(28,29,35,64)       -148.0796         estimate D2E/DX2                !
 ! D135  D(28,29,35,65)        -32.5145         estimate D2E/DX2                !
 ! D136  D(30,29,35,34)        -46.495          estimate D2E/DX2                !
 ! D137  D(30,29,35,64)         69.6902         estimate D2E/DX2                !
 ! D138  D(30,29,35,65)       -174.7447         estimate D2E/DX2                !
 ! D139  D(29,30,31,32)        -53.1601         estimate D2E/DX2                !
 ! D140  D(29,30,31,57)       -173.1261         estimate D2E/DX2                !
 ! D141  D(29,30,31,58)         69.3058         estimate D2E/DX2                !
 ! D142  D(55,30,31,32)        178.6776         estimate D2E/DX2                !
 ! D143  D(55,30,31,57)         58.7116         estimate D2E/DX2                !
 ! D144  D(55,30,31,58)        -58.8565         estimate D2E/DX2                !
 ! D145  D(56,30,31,32)         63.4102         estimate D2E/DX2                !
 ! D146  D(56,30,31,57)        -56.5559         estimate D2E/DX2                !
 ! D147  D(56,30,31,58)       -174.1239         estimate D2E/DX2                !
 ! D148  D(30,31,32,33)        -81.6971         estimate D2E/DX2                !
 ! D149  D(30,31,32,34)         52.3787         estimate D2E/DX2                !
 ! D150  D(57,31,32,33)         37.4649         estimate D2E/DX2                !
 ! D151  D(57,31,32,34)        171.5407         estimate D2E/DX2                !
 ! D152  D(58,31,32,33)        154.0494         estimate D2E/DX2                !
 ! D153  D(58,31,32,34)        -71.8748         estimate D2E/DX2                !
 ! D154  D(31,32,33,59)         65.354          estimate D2E/DX2                !
 ! D155  D(31,32,33,60)        -55.3195         estimate D2E/DX2                !
 ! D156  D(31,32,33,61)       -174.0856         estimate D2E/DX2                !
 ! D157  D(34,32,33,59)        -65.1953         estimate D2E/DX2                !
 ! D158  D(34,32,33,60)        174.1312         estimate D2E/DX2                !
 ! D159  D(34,32,33,61)         55.3651         estimate D2E/DX2                !
 ! D160  D(31,32,34,35)        -51.302          estimate D2E/DX2                !
 ! D161  D(31,32,34,62)       -175.4424         estimate D2E/DX2                !
 ! D162  D(31,32,34,63)         68.0006         estimate D2E/DX2                !
 ! D163  D(33,32,34,35)         82.9309         estimate D2E/DX2                !
 ! D164  D(33,32,34,62)        -41.2095         estimate D2E/DX2                !
 ! D165  D(33,32,34,63)       -157.7665         estimate D2E/DX2                !
 ! D166  D(32,34,35,29)         50.8393         estimate D2E/DX2                !
 ! D167  D(32,34,35,64)        -66.3213         estimate D2E/DX2                !
 ! D168  D(32,34,35,65)        178.3746         estimate D2E/DX2                !
 ! D169  D(62,34,35,29)        174.5529         estimate D2E/DX2                !
 ! D170  D(62,34,35,64)         57.3923         estimate D2E/DX2                !
 ! D171  D(62,34,35,65)        -57.9118         estimate D2E/DX2                !
 ! D172  D(63,34,35,29)        -68.0347         estimate D2E/DX2                !
 ! D173  D(63,34,35,64)        174.8047         estimate D2E/DX2                !
 ! D174  D(63,34,35,65)         59.5005         estimate D2E/DX2                !
 --------------------------------------------------------------------------------
 Trust Radius=3.00D-01 FncErr=1.00D-07 GrdErr=1.00D-06
 Number of steps in this run= 400 maximum allowed number of steps= 408.
 GradGradGradGradGradGradGradGradGradGradGradGradGradGradGradGradGradGrad

 Leave Link  103 at Wed Mar  4 06:40:46 2020, MaxMem= 2684354560 cpu:       0.1
 (Enter /opt/g09gh/gaussian/g09/l202.exe)
 Stoichiometry    C29H31N7O
 Framework group  C1[X(C29H31N7O)]
 Deg. of freedom   198
 Full point group                 C1      NOp   1
 Largest Abelian subgroup         C1      NOp   1
 Largest concise Abelian subgroup C1      NOp   1
                         Standard orientation:                         
 ---------------------------------------------------------------------
 Center     Atomic      Atomic             Coordinates (Angstroms)
 Number     Number       Type             X           Y           Z
 ---------------------------------------------------------------------
      1          6           0        1.423674    4.898628   -1.545700
      2          6           0        2.576074    4.454923   -0.882129
      3          6           0        2.775138    3.077407   -0.660947
      4          6           0        1.763585    2.223379   -1.166661
      5          7           0        0.656335    2.625427   -1.803216
      6          6           0        0.496109    3.945466   -1.981282
      7          6           0        3.976217    2.510805    0.057196
      8          6           0        5.069707    3.250818    0.534851
      9          6           0        6.077575    2.508227    1.160424
     10          7           0        6.046168    1.189526    1.331290
     11          6           0        4.949190    0.561324    0.858557
     12          7           0        3.938167    1.176435    0.238261
     13          7           0        4.915092   -0.811552    1.057594
     14          6           0        3.993743   -1.847669    0.658186
     15          6           0        4.407378   -3.213575    0.703533
     16          6           0        3.474490   -4.180366    0.290746
     17          6           0        2.183694   -3.879080   -0.159669
     18          6           0        1.786301   -2.538152   -0.180098
     19          6           0        2.695953   -1.549007    0.226308
     20          7           0        0.513593   -2.044000   -0.614097
     21          6           0       -0.538269   -2.677124   -1.232495
     22          6           0       -1.858958   -1.936192   -1.318722
     23          6           0       -1.961844   -0.546012   -1.498920
     24          6           0       -3.213603    0.072069   -1.532039
     25          6           0       -4.402769   -0.669743   -1.404082
     26          6           0       -4.285810   -2.064173   -1.246051
     27          6           0       -3.038624   -2.692191   -1.217896
     28          6           0       -5.767359    0.020762   -1.374895
     29          7           0       -6.254690    0.582519   -0.101038
     30          6           0       -5.658766    1.839997    0.405127
     31          6           0       -4.494079    1.646141    1.410265
     32          7           0       -4.824201    0.771096    2.559302
     33          6           0       -5.552380    1.390835    3.672521
     34          6           0       -5.372770   -0.505047    2.041959
     35          6           0       -6.530047   -0.344571    1.021679
     36          8           0       -0.440793   -3.804731   -1.690161
     37          6           0        5.790659   -3.655405    1.149503
     38          1           0        1.246833    5.955810   -1.720208
     39          1           0        3.290056    5.199377   -0.538548
     40          1           0        1.867239    1.148679   -1.070895
     41          1           0       -0.411363    4.248370   -2.501191
     42          1           0        5.170503    4.323999    0.429264
     43          1           0        6.965291    3.006638    1.549018
     44          1           0        5.768751   -1.109645    1.505488
     45          1           0        3.760115   -5.231667    0.298493
     46          1           0        1.504685   -4.654580   -0.492542
     47          1           0        2.396935   -0.513731    0.213585
     48          1           0        0.405642   -1.045820   -0.508213
     49          1           0       -1.061487    0.054384   -1.614031
     50          1           0       -3.256904    1.154243   -1.654972
     51          1           0       -5.179705   -2.676950   -1.131442
     52          1           0       -2.958032   -3.769284   -1.093912
     53          1           0       -5.758746    0.842698   -2.105444
     54          1           0       -6.527897   -0.698353   -1.712696
     55          1           0       -5.407899    2.480555   -0.387192
     56          1           0       -6.794408    2.576388    1.227673
     57          1           0       -4.136617    3.008976    1.937563
     58          1           0       -3.554569    1.209638    0.886550
     59          1           0       -6.555036    1.705523    3.361895
     60          1           0       -5.005896    2.266309    4.041417
     61          1           0       -5.647262    0.681460    4.502651
     62          1           0       -5.748309   -1.228465    3.019228
     63          1           0       -4.258065   -1.208821    1.354450
     64          1           0       -7.724697    0.282356    1.849721
     65          1           0       -6.878026   -1.295132    0.652147
     66          1           0        5.964949   -3.419977    2.208863
     67          1           0        6.579681   -3.159860    0.566313
     68          1           0        5.952083   -4.736265    1.035983
 ---------------------------------------------------------------------
 Rotational constants (GHZ):      0.1259934      0.0543826      0.0441448
 Leave Link  202 at Wed Mar  4 06:40:46 2020, MaxMem= 2684354560 cpu:       0.1
 (Enter /opt/g09gh/gaussian/g09/l301.exe)
 Standard basis: 6-31G(d) (6D, 7F)
 Ernie: Thresh=  0.10000D-02 Tol=  0.10000D-05 Strict=F.
 There are   617 symmetry adapted basis functions of A   symmetry.
 Integral buffers will be    131072 words long.
 Raffenetti 2 integral format.
 Two-electron integral symmetry is turned on.
   617 basis functions,  1160 primitive gaussians,   617 cartesian basis functions
   131 alpha electrons      131 beta electrons
       nuclear repulsion energy      3721.7118314389 Hartrees.
 IExCor= 4639 DFT=T Ex+Corr=wB97XD ExCW=0 ScaHFX=  1.000000
 ScaDFX=  1.000000  1.000000  1.000000  1.000000 ScalE2=  1.000000  1.000000
 IRadAn=      0 IRanWt=     -1 IRanGd=            0 ICorTp=0
  HFx wShort=  0.000000 wLong=  0.200000 cFull=  0.222036 cShort=  0.000000 cLong=  0.777964
  DFx wShort=  0.000000 wLong=  0.200000 cFull=  0.000000 cShort=  0.000000 cLong=  1.000000
 NAtoms=   68 NActive=   68 NUniq=   68 SFac= 7.50D-01 NAtFMM=   80 NAOKFM=F Big=T
 R6Disp: Dispersion energy =        -0.0569214370 Hartrees.
 Nuclear repulsion after empirical dispersion term =     3721.6549100018 Hartrees.
 Leave Link  301 at Wed Mar  4 06:40:46 2020, MaxMem= 2684354560 cpu:       0.4
 (Enter /opt/g09gh/gaussian/g09/l302.exe)
 NPDir=0 NMtPBC=     1 NCelOv=     1 NCel=       1 NClECP=     1 NCelD=      1
         NCelK=      1 NCelE2=     1 NClLst=     1 CellRange=     0.0.
 One-electron integrals computed using PRISM.
 NBasis=   617 RedAO= T  NBF=   617
 NBsUse=   617 1.00D-06 NBFU=   617
 Precomputing XC quadrature grid using
 IXCGrd= 2 IRadAn=           0 IRanWt=          -1 IRanGd=           0 AccXCQ= 1.00D-10.
 NRdTot=    4378 NPtTot=      559816 NUsed=      591359 NTot=      591391
 NSgBfM=   600   600   600   600   600 NAtAll=    68    68.
 Leave Link  302 at Wed Mar  4 06:40:48 2020, MaxMem= 2684354560 cpu:       7.5
 (Enter /opt/g09gh/gaussian/g09/l303.exe)
 DipDrv:  MaxL=1.
 Leave Link  303 at Wed Mar  4 06:40:48 2020, MaxMem= 2684354560 cpu:       0.6
 (Enter /opt/g09gh/gaussian/g09/l401.exe)
 Harris functional with IExCor= 4639 diagonalized for initial guess.
 ExpMin= 1.61D-01 ExpMax= 5.48D+03 ExpMxC= 8.25D+02 IAcc=1 IRadAn=         1 AccDes= 0.00D+00
 HarFok:  IExCor= 4639 AccDes= 0.00D+00 IRadAn=         1 IDoV= 1
 ScaDFX=  1.000000  1.000000  1.000000  1.000000
 FoFCou: FMM=F IPFlag=           0 FMFlag=      100000 FMFlg1=           1
         NFxFlg=           0 DoJE=T BraDBF=F KetDBF=T FulRan=T
         Omega=  0.000000  0.000000  1.000000  0.000000  0.000000 ICntrl=     500 IOpCl=  0
         NMat0=    1 NMatS0=    1 NMatT0=    0 NMatD0=    1 NMtDS0=    0 NMtDT0=    0
         I1Cent=           4 NGrid=           0.
 Petite list used in FoFCou.
 Harris En= -1512.38897312542    
 Initial guess orbital symmetries:
       Occupied  (A) (A) (A) (A) (A) (A) (A) (A) (A) (A) (A) (A)
                 (A) (A) (A) (A) (A) (A) (A) (A) (A) (A) (A) (A)
                 (A) (A) (A) (A) (A) (A) (A) (A) (A) (A) (A) (A)
                 (A) (A) (A) (A) (A) (A) (A) (A) (A) (A) (A) (A)
                 (A) (A) (A) (A) (A) (A) (A) (A) (A) (A) (A) (A)
                 (A) (A) (A) (A) (A) (A) (A) (A) (A) (A) (A) (A)
                 (A) (A) (A) (A) (A) (A) (A) (A) (A) (A) (A) (A)
                 (A) (A) (A) (A) (A) (A) (A) (A) (A) (A) (A) (A)
                 (A) (A) (A) (A) (A) (A) (A) (A) (A) (A) (A) (A)
                 (A) (A) (A) (A) (A) (A) (A) (A) (A) (A) (A) (A)
                 (A) (A) (A) (A) (A) (A) (A) (A) (A) (A) (A)
       Virtual   (A) (A) (A) (A) (A) (A) (A) (A) (A) (A) (A) (A)
                 (A) (A) (A) (A) (A) (A) (A) (A) (A) (A) (A) (A)
                 (A) (A) (A) (A) (A) (A) (A) (A) (A) (A) (A) (A)
                 (A) (A) (A) (A) (A) (A) (A) (A) (A) (A) (A) (A)
                 (A) (A) (A) (A) (A) (A) (A) (A) (A) (A) (A) (A)
                 (A) (A) (A) (A) (A) (A) (A) (A) (A) (A) (A) (A)
                 (A) (A) (A) (A) (A) (A) (A) (A) (A) (A) (A) (A)
                 (A) (A) (A) (A) (A) (A) (A) (A) (A) (A) (A) (A)
                 (A) (A) (A) (A) (A) (A) (A) (A) (A) (A) (A) (A)
                 (A) (A) (A) (A) (A) (A) (A) (A) (A) (A) (A) (A)
                 (A) (A) (A) (A) (A) (A) (A) (A) (A) (A) (A) (A)
                 (A) (A) (A) (A) (A) (A) (A) (A) (A) (A) (A) (A)
                 (A) (A) (A) (A) (A) (A) (A) (A) (A) (A) (A) (A)
                 (A) (A) (A) (A) (A) (A) (A) (A) (A) (A) (A) (A)
                 (A) (A) (A) (A) (A) (A) (A) (A) (A) (A) (A) (A)
                 (A) (A) (A) (A) (A) (A) (A) (A) (A) (A) (A) (A)
                 (A) (A) (A) (A) (A) (A) (A) (A) (A) (A) (A) (A)
                 (A) (A) (A) (A) (A) (A) (A) (A) (A) (A) (A) (A)
                 (A) (A) (A) (A) (A) (A) (A) (A) (A) (A) (A) (A)
                 (A) (A) (A) (A) (A) (A) (A) (A) (A) (A) (A) (A)
                 (A) (A) (A) (A) (A) (A) (A) (A) (A) (A) (A) (A)
                 (A) (A) (A) (A) (A) (A) (A) (A) (A) (A) (A) (A)
                 (A) (A) (A) (A) (A) (A) (A) (A) (A) (A) (A) (A)
                 (A) (A) (A) (A) (A) (A) (A) (A) (A) (A) (A) (A)
                 (A) (A) (A) (A) (A) (A) (A) (A) (A) (A) (A) (A)
                 (A) (A) (A) (A) (A) (A) (A) (A) (A) (A) (A) (A)
                 (A) (A) (A) (A) (A) (A) (A) (A) (A) (A) (A) (A)
                 (A) (A) (A) (A) (A) (A) (A) (A) (A) (A) (A) (A)
                 (A) (A) (A) (A) (A) (A) (A) (A) (A) (A) (A) (A)
                 (A) (A) (A) (A) (A) (A) (A) (A) (A) (A) (A) (A)
                 (A) (A) (A) (A) (A) (A) (A) (A) (A) (A) (A) (A)
                 (A) (A) (A) (A) (A) (A) (A) (A) (A) (A) (A) (A)
                 (A) (A) (A) (A) (A) (A) (A) (A) (A) (A) (A) (A)
                 (A) (A) (A) (A) (A) (A) (A) (A) (A) (A) (A) (A)
                 (A) (A) (A) (A) (A) (A) (A) (A) (A) (A) (A) (A)
                 (A) (A) (A) (A) (A) (A) (A) (A) (A) (A) (A) (A)
                 (A) (A) (A) (A) (A) (A) (A) (A) (A) (A) (A) (A)
                 (A) (A) (A) (A) (A) (A) (A) (A) (A) (A) (A) (A)
                 (A) (A) (A) (A) (A) (A) (A) (A) (A) (A) (A) (A)
                 (A) (A) (A) (A) (A) (A) (A) (A) (A) (A) (A) (A)
                 (A) (A) (A) (A) (A) (A)
 The electronic state of the initial guess is 1-A.
 Leave Link  401 at Wed Mar  4 06:40:50 2020, MaxMem= 2684354560 cpu:      14.3
 (Enter /opt/g09gh/gaussian/g09/l502.exe)
 Closed shell SCF:
 Requested convergence on RMS density matrix=1.00D-08 within 128 cycles.
 Requested convergence on MAX density matrix=1.00D-06.
 Requested convergence on             energy=1.00D-06.
 No special actions if energy rises.
 Using DIIS extrapolation, IDIIS=  1040.
 Integral symmetry usage will be decided dynamically.
       590734 words used for storage of precomputed grid.
 IEnd=     1759314 IEndB=     1759314 NGot=  2684354560 MDV=  2682993193
 LenX=  2682993193 LenY=  2682611887
 Fock matrices will be formed incrementally for  20 cycles.
 Integral accuracy reduced to 1.0D-05 until final iterations.

 Cycle   1  Pass 0  IDiag  1:
 FoFJK:  IHMeth= 1 ICntrl=     0 DoSepK=T KAlg= 1 I1Cent= 0 FoldK=F
 FoFCou: FMM=T IPFlag=           0 FMFlag=      100000 FMFlg1=           1
         NFxFlg=           0 DoJE=T BraDBF=F KetDBF=F FulRan=T
         Omega=  0.000000  0.000000  1.000000  0.000000  0.000000 ICntrl=     500 IOpCl=  0
         NMat0=    1 NMatS0=    1 NMatT0=    0 NMatD0=    1 NMtDS0=    0 NMtDT0=    0
         I1Cent=           0 NGrid=           0.
 Symmetry not used in FoFCou.
 FMM levels:  10  Number of levels for PrismC:   9
 E= -1581.14100722699    
 DIIS: error= 7.01D-02 at cycle   1 NSaved=   1.
 NSaved= 1 IEnMin= 1 EnMin= -1581.14100722699     IErMin= 1 ErrMin= 7.01D-02
 ErrMax= 7.01D-02 EMaxC= 1.00D-01 BMatC= 1.46D+00 BMatP= 1.46D+00
 IDIUse=3 WtCom= 2.99D-01 WtEn= 7.01D-01
 Coeff-Com:  0.100D+01
 Coeff-En:   0.100D+01
 Coeff:      0.100D+01
 Gap=     0.270 Goal=   None    Shift=    0.000
 GapD=    0.270 DampG=1.000 DampE=0.500 DampFc=0.5000 IDamp=-1.
 Damping current iteration by 5.00D-01
 RMSDP=1.89D-03 MaxDP=8.89D-02              OVMax= 1.70D-01

 Cycle   2  Pass 0  IDiag  1:
 RMSU=  6.66D-04    CP:  1.00D+00
 FoFJK:  IHMeth= 1 ICntrl=     0 DoSepK=T KAlg= 1 I1Cent= 0 FoldK=F
 E= -1581.31783459300     Delta-E=       -0.176827366005 Rises=F Damp=T
 DIIS: error= 3.53D-02 at cycle   2 NSaved=   2.
 NSaved= 2 IEnMin= 2 EnMin= -1581.31783459300     IErMin= 2 ErrMin= 3.53D-02
 ErrMax= 3.53D-02 EMaxC= 1.00D-01 BMatC= 3.23D-01 BMatP= 1.46D+00
 IDIUse=3 WtCom= 6.47D-01 WtEn= 3.53D-01
 Coeff-Com: -0.647D+00 0.165D+01
 Coeff-En:   0.000D+00 0.100D+01
 Coeff:     -0.419D+00 0.142D+01
 Gap=     0.276 Goal=   None    Shift=    0.000
 RMSDP=8.66D-04 MaxDP=3.86D-02 DE=-1.77D-01 OVMax= 1.18D-01

 Cycle   3  Pass 0  IDiag  1:
 RMSU=  5.55D-04    CP:  1.00D+00  1.39D+00
 FoFJK:  IHMeth= 1 ICntrl=     0 DoSepK=T KAlg= 1 I1Cent= 0 FoldK=F
 E= -1581.45549222707     Delta-E=       -0.137657634075 Rises=F Damp=F
 DIIS: error= 6.48D-03 at cycle   3 NSaved=   3.
 NSaved= 3 IEnMin= 3 EnMin= -1581.45549222707     IErMin= 3 ErrMin= 6.48D-03
 ErrMax= 6.48D-03 EMaxC= 1.00D-01 BMatC= 5.53D-02 BMatP= 3.23D-01
 IDIUse=3 WtCom= 9.35D-01 WtEn= 6.48D-02
 Coeff-Com: -0.346D+00 0.717D+00 0.629D+00
 Coeff-En:   0.000D+00 0.000D+00 0.100D+01
 Coeff:     -0.324D+00 0.670D+00 0.653D+00
 Gap=     0.260 Goal=   None    Shift=    0.000
 RMSDP=4.43D-04 MaxDP=2.71D-02 DE=-1.38D-01 OVMax= 5.73D-02

 Cycle   4  Pass 0  IDiag  1:
 RMSU=  1.42D-04    CP:  1.00D+00  1.66D+00  6.19D-01
 FoFJK:  IHMeth= 1 ICntrl=     0 DoSepK=T KAlg= 1 I1Cent= 0 FoldK=F
 E= -1581.50449472175     Delta-E=       -0.049002494678 Rises=F Damp=F
 DIIS: error= 1.93D-03 at cycle   4 NSaved=   4.
 NSaved= 4 IEnMin= 4 EnMin= -1581.50449472175     IErMin= 4 ErrMin= 1.93D-03
 ErrMax= 1.93D-03 EMaxC= 1.00D-01 BMatC= 3.37D-03 BMatP= 5.53D-02
 IDIUse=3 WtCom= 9.81D-01 WtEn= 1.93D-02
 Coeff-Com: -0.155D+00 0.316D+00 0.348D+00 0.490D+00
 Coeff-En:   0.000D+00 0.000D+00 0.000D+00 0.100D+01
 Coeff:     -0.152D+00 0.310D+00 0.342D+00 0.500D+00
 Gap=     0.255 Goal=   None    Shift=    0.000
 RMSDP=9.85D-05 MaxDP=8.55D-03 DE=-4.90D-02 OVMax= 9.75D-03

 Cycle   5  Pass 0  IDiag  1:
 RMSU=  4.59D-05    CP:  1.00D+00  1.65D+00  6.80D-01  7.27D-01
 FoFJK:  IHMeth= 1 ICntrl=     0 DoSepK=T KAlg= 1 I1Cent= 0 FoldK=F
 E= -1581.50741453848     Delta-E=       -0.002919816732 Rises=F Damp=F
 DIIS: error= 3.57D-04 at cycle   5 NSaved=   5.
 NSaved= 5 IEnMin= 5 EnMin= -1581.50741453848     IErMin= 5 ErrMin= 3.57D-04
 ErrMax= 3.57D-04 EMaxC= 1.00D-01 BMatC= 8.79D-05 BMatP= 3.37D-03
 IDIUse=3 WtCom= 9.96D-01 WtEn= 3.57D-03
 Coeff-Com: -0.147D-01 0.290D-01 0.537D-01 0.156D+00 0.776D+00
 Coeff-En:   0.000D+00 0.000D+00 0.000D+00 0.000D+00 0.100D+01
 Coeff:     -0.147D-01 0.289D-01 0.535D-01 0.156D+00 0.776D+00
 Gap=     0.253 Goal=   None    Shift=    0.000
 RMSDP=2.44D-05 MaxDP=2.39D-03 DE=-2.92D-03 OVMax= 2.87D-03

 Cycle   6  Pass 0  IDiag  1:
 RMSU=  1.33D-05    CP:  1.00D+00  1.65D+00  6.87D-01  7.93D-01  1.00D+00
 FoFJK:  IHMeth= 1 ICntrl=     0 DoSepK=T KAlg= 1 I1Cent= 0 FoldK=F
 E= -1581.50750290239     Delta-E=       -0.000088363904 Rises=F Damp=F
 DIIS: error= 2.92D-04 at cycle   6 NSaved=   6.
 NSaved= 6 IEnMin= 6 EnMin= -1581.50750290239     IErMin= 6 ErrMin= 2.92D-04
 ErrMax= 2.92D-04 EMaxC= 1.00D-01 BMatC= 2.67D-05 BMatP= 8.79D-05
 IDIUse=3 WtCom= 9.97D-01 WtEn= 2.92D-03
 Coeff-Com:  0.225D-01-0.467D-01-0.378D-01-0.185D-01 0.393D+00 0.687D+00
 Coeff-En:   0.000D+00 0.000D+00 0.000D+00 0.000D+00 0.000D+00 0.100D+01
 Coeff:      0.225D-01-0.465D-01-0.377D-01-0.184D-01 0.392D+00 0.688D+00
 Gap=     0.254 Goal=   None    Shift=    0.000
 RMSDP=1.34D-05 MaxDP=8.57D-04 DE=-8.84D-05 OVMax= 1.69D-03

 Cycle   7  Pass 0  IDiag  1:
 RMSU=  5.81D-06    CP:  1.00D+00  1.66D+00  6.91D-01  8.21D-01  1.12D+00
                    CP:  9.07D-01
 FoFJK:  IHMeth= 1 ICntrl=     0 DoSepK=T KAlg= 1 I1Cent= 0 FoldK=F
 E= -1581.50753344369     Delta-E=       -0.000030541306 Rises=F Damp=F
 DIIS: error= 5.74D-05 at cycle   7 NSaved=   7.
 NSaved= 7 IEnMin= 7 EnMin= -1581.50753344369     IErMin= 7 ErrMin= 5.74D-05
 ErrMax= 5.74D-05 EMaxC= 1.00D-01 BMatC= 1.76D-06 BMatP= 2.67D-05
 IDIUse=1 WtCom= 1.00D+00 WtEn= 0.00D+00
 Coeff-Com:  0.942D-02-0.193D-01-0.177D-01-0.217D-01 0.636D-01 0.240D+00
 Coeff-Com:  0.746D+00
 Coeff:      0.942D-02-0.193D-01-0.177D-01-0.217D-01 0.636D-01 0.240D+00
 Coeff:      0.746D+00
 Gap=     0.254 Goal=   None    Shift=    0.000
 RMSDP=4.18D-06 MaxDP=2.42D-04 DE=-3.05D-05 OVMax= 6.49D-04

 Initial convergence to 1.0D-05 achieved.  Increase integral accuracy.
 Cycle   8  Pass 1  IDiag  1:
 FoFJK:  IHMeth= 1 ICntrl=     0 DoSepK=T KAlg= 1 I1Cent= 0 FoldK=F
 E= -1581.50591082102     Delta-E=        0.001622622677 Rises=F Damp=F
 DIIS: error= 8.51D-05 at cycle   1 NSaved=   1.
 NSaved= 1 IEnMin= 1 EnMin= -1581.50591082102     IErMin= 1 ErrMin= 8.51D-05
 ErrMax= 8.51D-05 EMaxC= 1.00D-01 BMatC= 1.21D-05 BMatP= 1.21D-05
 IDIUse=1 WtCom= 1.00D+00 WtEn= 0.00D+00
 Coeff-Com:  0.100D+01
 Coeff:      0.100D+01
 Gap=     0.254 Goal=   None    Shift=    0.000
 RMSDP=4.18D-06 MaxDP=2.42D-04 DE= 1.62D-03 OVMax= 3.71D-04

 Cycle   9  Pass 1  IDiag  1:
 RMSU=  2.01D-05    CP:  1.00D+00
 FoFJK:  IHMeth= 1 ICntrl=     0 DoSepK=T KAlg= 1 I1Cent= 0 FoldK=F
 E= -1581.50592053305     Delta-E=       -0.000009712030 Rises=F Damp=F
 DIIS: error= 2.54D-05 at cycle   2 NSaved=   2.
 NSaved= 2 IEnMin= 2 EnMin= -1581.50592053305     IErMin= 2 ErrMin= 2.54D-05
 ErrMax= 2.54D-05 EMaxC= 1.00D-01 BMatC= 7.65D-07 BMatP= 1.21D-05
 IDIUse=1 WtCom= 1.00D+00 WtEn= 0.00D+00
 Coeff-Com:  0.434D-01 0.957D+00
 Coeff:      0.434D-01 0.957D+00
 Gap=     0.254 Goal=   None    Shift=    0.000
 RMSDP=3.11D-06 MaxDP=2.16D-04 DE=-9.71D-06 OVMax= 2.69D-04

 Cycle  10  Pass 1  IDiag  1:
 RMSU=  2.01D-06    CP:  1.00D+00  1.04D+00
 FoFJK:  IHMeth= 1 ICntrl=     0 DoSepK=T KAlg= 1 I1Cent= 0 FoldK=F
 E= -1581.50592060197     Delta-E=       -0.000000068922 Rises=F Damp=F
 DIIS: error= 4.09D-05 at cycle   3 NSaved=   3.
 NSaved= 3 IEnMin= 3 EnMin= -1581.50592060197     IErMin= 2 ErrMin= 2.54D-05
 ErrMax= 4.09D-05 EMaxC= 1.00D-01 BMatC= 9.22D-07 BMatP= 7.65D-07
 IDIUse=1 WtCom= 1.00D+00 WtEn= 0.00D+00
 Coeff-Com: -0.381D-01 0.538D+00 0.500D+00
 Coeff:     -0.381D-01 0.538D+00 0.500D+00
 Gap=     0.254 Goal=   None    Shift=    0.000
 RMSDP=1.56D-06 MaxDP=1.45D-04 DE=-6.89D-08 OVMax= 1.36D-04

 Cycle  11  Pass 1  IDiag  1:
 RMSU=  6.87D-07    CP:  1.00D+00  1.05D+00  5.82D-01
 FoFJK:  IHMeth= 1 ICntrl=     0 DoSepK=T KAlg= 1 I1Cent= 0 FoldK=F
 E= -1581.50592138489     Delta-E=       -0.000000782923 Rises=F Damp=F
 DIIS: error= 6.56D-06 at cycle   4 NSaved=   4.
 NSaved= 4 IEnMin= 4 EnMin= -1581.50592138489     IErMin= 4 ErrMin= 6.56D-06
 ErrMax= 6.56D-06 EMaxC= 1.00D-01 BMatC= 2.30D-08 BMatP= 7.65D-07
 IDIUse=1 WtCom= 1.00D+00 WtEn= 0.00D+00
 Coeff-Com: -0.173D-01 0.135D+00 0.180D+00 0.703D+00
 Coeff:     -0.173D-01 0.135D+00 0.180D+00 0.703D+00
 Gap=     0.254 Goal=   None    Shift=    0.000
 RMSDP=3.42D-07 MaxDP=3.40D-05 DE=-7.83D-07 OVMax= 4.15D-05

 Cycle  12  Pass 1  IDiag  1:
 RMSU=  2.16D-07    CP:  1.00D+00  1.05D+00  6.33D-01  1.03D+00
 FoFJK:  IHMeth= 1 ICntrl=     0 DoSepK=T KAlg= 1 I1Cent= 0 FoldK=F
 E= -1581.50592140874     Delta-E=       -0.000000023851 Rises=F Damp=F
 DIIS: error= 2.71D-06 at cycle   5 NSaved=   5.
 NSaved= 5 IEnMin= 5 EnMin= -1581.50592140874     IErMin= 5 ErrMin= 2.71D-06
 ErrMax= 2.71D-06 EMaxC= 1.00D-01 BMatC= 4.42D-09 BMatP= 2.30D-08
 IDIUse=1 WtCom= 1.00D+00 WtEn= 0.00D+00
 Coeff-Com:  0.119D-03-0.426D-01-0.188D-01 0.287D+00 0.775D+00
 Coeff:      0.119D-03-0.426D-01-0.188D-01 0.287D+00 0.775D+00
 Gap=     0.254 Goal=   None    Shift=    0.000
 RMSDP=2.07D-07 MaxDP=1.08D-05 DE=-2.39D-08 OVMax= 3.76D-05

 Cycle  13  Pass 1  IDiag  1:
 RMSU=  9.32D-08    CP:  1.00D+00  1.05D+00  6.55D-01  1.19D+00  9.98D-01
 FoFJK:  IHMeth= 1 ICntrl=     0 DoSepK=T KAlg= 1 I1Cent= 0 FoldK=F
 E= -1581.50592141562     Delta-E=       -0.000000006877 Rises=F Damp=F
 DIIS: error= 1.15D-06 at cycle   6 NSaved=   6.
 NSaved= 6 IEnMin= 6 EnMin= -1581.50592141562     IErMin= 6 ErrMin= 1.15D-06
 ErrMax= 1.15D-06 EMaxC= 1.00D-01 BMatC= 6.22D-10 BMatP= 4.42D-09
 IDIUse=1 WtCom= 1.00D+00 WtEn= 0.00D+00
 Coeff-Com:  0.222D-02-0.325D-01-0.302D-01 0.236D-01 0.306D+00 0.730D+00
 Coeff:      0.222D-02-0.325D-01-0.302D-01 0.236D-01 0.306D+00 0.730D+00
 Gap=     0.254 Goal=   None    Shift=    0.000
 RMSDP=8.61D-08 MaxDP=4.77D-06 DE=-6.88D-09 OVMax= 1.63D-05

 Cycle  14  Pass 1  IDiag  1:
 RMSU=  3.84D-08    CP:  1.00D+00  1.05D+00  6.60D-01  1.24D+00  1.14D+00
                    CP:  1.05D+00
 FoFJK:  IHMeth= 1 ICntrl=     0 DoSepK=T KAlg= 1 I1Cent= 0 FoldK=F
 E= -1581.50592141686     Delta-E=       -0.000000001239 Rises=F Damp=F
 DIIS: error= 4.94D-07 at cycle   7 NSaved=   7.
 NSaved= 7 IEnMin= 7 EnMin= -1581.50592141686     IErMin= 7 ErrMin= 4.94D-07
 ErrMax= 4.94D-07 EMaxC= 1.00D-01 BMatC= 1.13D-10 BMatP= 6.22D-10
 IDIUse=1 WtCom= 1.00D+00 WtEn= 0.00D+00
 Coeff-Com:  0.751D-03-0.315D-02-0.831D-02-0.563D-01-0.487D-01 0.268D+00
 Coeff-Com:  0.848D+00
 Coeff:      0.751D-03-0.315D-02-0.831D-02-0.563D-01-0.487D-01 0.268D+00
 Coeff:      0.848D+00
 Gap=     0.254 Goal=   None    Shift=    0.000
 RMSDP=5.00D-08 MaxDP=3.21D-06 DE=-1.24D-09 OVMax= 1.09D-05

 Cycle  15  Pass 1  IDiag  1:
 RMSU=  1.54D-08    CP:  1.00D+00  1.05D+00  6.65D-01  1.26D+00  1.20D+00
                    CP:  1.27D+00  1.10D+00
 FoFJK:  IHMeth= 1 ICntrl=     0 DoSepK=T KAlg= 1 I1Cent= 0 FoldK=F
 E= -1581.50592141719     Delta-E=       -0.000000000331 Rises=F Damp=F
 DIIS: error= 2.11D-07 at cycle   8 NSaved=   8.
 NSaved= 8 IEnMin= 8 EnMin= -1581.50592141719     IErMin= 8 ErrMin= 2.11D-07
 ErrMax= 2.11D-07 EMaxC= 1.00D-01 BMatC= 1.80D-11 BMatP= 1.13D-10
 IDIUse=1 WtCom= 1.00D+00 WtEn= 0.00D+00
 Coeff-Com: -0.630D-04 0.410D-02 0.178D-02-0.244D-01-0.633D-01-0.184D-01
 Coeff-Com:  0.324D+00 0.776D+00
 Coeff:     -0.630D-04 0.410D-02 0.178D-02-0.244D-01-0.633D-01-0.184D-01
 Coeff:      0.324D+00 0.776D+00
 Gap=     0.254 Goal=   None    Shift=    0.000
 RMSDP=1.80D-08 MaxDP=1.17D-06 DE=-3.31D-10 OVMax= 3.77D-06

 Cycle  16  Pass 1  IDiag  1:
 RMSU=  6.03D-09    CP:  1.00D+00  1.05D+00  6.65D-01  1.27D+00  1.23D+00
                    CP:  1.33D+00  1.28D+00  1.04D+00
 FoFJK:  IHMeth= 1 ICntrl=     0 DoSepK=T KAlg= 1 I1Cent= 0 FoldK=F
 E= -1581.50592141725     Delta-E=       -0.000000000064 Rises=F Damp=F
 DIIS: error= 6.01D-08 at cycle   9 NSaved=   9.
 NSaved= 9 IEnMin= 9 EnMin= -1581.50592141725     IErMin= 9 ErrMin= 6.01D-08
 ErrMax= 6.01D-08 EMaxC= 1.00D-01 BMatC= 2.71D-12 BMatP= 1.80D-11
 IDIUse=1 WtCom= 1.00D+00 WtEn= 0.00D+00
 Coeff-Com: -0.147D-03 0.202D-02 0.206D-02 0.305D-04-0.153D-01-0.554D-01
 Coeff-Com: -0.244D-01 0.267D+00 0.824D+00
 Coeff:     -0.147D-03 0.202D-02 0.206D-02 0.305D-04-0.153D-01-0.554D-01
 Coeff:     -0.244D-01 0.267D+00 0.824D+00
 Gap=     0.254 Goal=   None    Shift=    0.000
 RMSDP=7.44D-09 MaxDP=4.54D-07 DE=-6.37D-11 OVMax= 1.39D-06

 SCF Done:  E(RwB97XD) =  -1581.50592142     A.U. after   16 cycles
             Convg  =    0.7442D-08             -V/T =  2.0110
 KE= 1.564288429657D+03 PE=-1.111153726972D+04 EE= 4.244088008641D+03
 Leave Link  502 at Wed Mar  4 06:43:25 2020, MaxMem= 2684354560 cpu:     926.1
 (Enter /opt/g09gh/gaussian/g09/l601.exe)
 Copying SCF densities to generalized density rwf, IOpCl= 0 IROHF=0.

 **********************************************************************

            Population analysis using the SCF density.

 **********************************************************************

 Orbital symmetries:
       Occupied  (A) (A) (A) (A) (A) (A) (A) (A) (A) (A) (A) (A)
                 (A) (A) (A) (A) (A) (A) (A) (A) (A) (A) (A) (A)
                 (A) (A) (A) (A) (A) (A) (A) (A) (A) (A) (A) (A)
                 (A) (A) (A) (A) (A) (A) (A) (A) (A) (A) (A) (A)
                 (A) (A) (A) (A) (A) (A) (A) (A) (A) (A) (A) (A)
                 (A) (A) (A) (A) (A) (A) (A) (A) (A) (A) (A) (A)
                 (A) (A) (A) (A) (A) (A) (A) (A) (A) (A) (A) (A)
                 (A) (A) (A) (A) (A) (A) (A) (A) (A) (A) (A) (A)
                 (A) (A) (A) (A) (A) (A) (A) (A) (A) (A) (A) (A)
                 (A) (A) (A) (A) (A) (A) (A) (A) (A) (A) (A) (A)
                 (A) (A) (A) (A) (A) (A) (A) (A) (A) (A) (A)
       Virtual   (A) (A) (A) (A) (A) (A) (A) (A) (A) (A) (A) (A)
                 (A) (A) (A) (A) (A) (A) (A) (A) (A) (A) (A) (A)
                 (A) (A) (A) (A) (A) (A) (A) (A) (A) (A) (A) (A)
                 (A) (A) (A) (A) (A) (A) (A) (A) (A) (A) (A) (A)
                 (A) (A) (A) (A) (A) (A) (A) (A) (A) (A) (A) (A)
                 (A) (A) (A) (A) (A) (A) (A) (A) (A) (A) (A) (A)
                 (A) (A) (A) (A) (A) (A) (A) (A) (A) (A) (A) (A)
                 (A) (A) (A) (A) (A) (A) (A) (A) (A) (A) (A) (A)
                 (A) (A) (A) (A) (A) (A) (A) (A) (A) (A) (A) (A)
                 (A) (A) (A) (A) (A) (A) (A) (A) (A) (A) (A) (A)
                 (A) (A) (A) (A) (A) (A) (A) (A) (A) (A) (A) (A)
                 (A) (A) (A) (A) (A) (A) (A) (A) (A) (A) (A) (A)
                 (A) (A) (A) (A) (A) (A) (A) (A) (A) (A) (A) (A)
                 (A) (A) (A) (A) (A) (A) (A) (A) (A) (A) (A) (A)
                 (A) (A) (A) (A) (A) (A) (A) (A) (A) (A) (A) (A)
                 (A) (A) (A) (A) (A) (A) (A) (A) (A) (A) (A) (A)
                 (A) (A) (A) (A) (A) (A) (A) (A) (A) (A) (A) (A)
                 (A) (A) (A) (A) (A) (A) (A) (A) (A) (A) (A) (A)
                 (A) (A) (A) (A) (A) (A) (A) (A) (A) (A) (A) (A)
                 (A) (A) (A) (A) (A) (A) (A) (A) (A) (A) (A) (A)
                 (A) (A) (A) (A) (A) (A) (A) (A) (A) (A) (A) (A)
                 (A) (A) (A) (A) (A) (A) (A) (A) (A) (A) (A) (A)
                 (A) (A) (A) (A) (A) (A) (A) (A) (A) (A) (A) (A)
                 (A) (A) (A) (A) (A) (A) (A) (A) (A) (A) (A) (A)
                 (A) (A) (A) (A) (A) (A) (A) (A) (A) (A) (A) (A)
                 (A) (A) (A) (A) (A) (A) (A) (A) (A) (A) (A) (A)
                 (A) (A) (A) (A) (A) (A) (A) (A) (A) (A) (A) (A)
                 (A) (A) (A) (A) (A) (A) (A) (A) (A) (A) (A) (A)
                 (A) (A) (A) (A) (A) (A) (A) (A) (A) (A) (A) (A)
                 (A) (A) (A) (A) (A) (A) (A) (A) (A) (A) (A) (A)
                 (A) (A) (A) (A) (A) (A) (A) (A) (A) (A) (A) (A)
                 (A) (A) (A) (A) (A) (A) (A) (A) (A) (A) (A) (A)
                 (A) (A) (A) (A) (A) (A) (A) (A) (A) (A) (A) (A)
                 (A) (A) (A) (A) (A) (A) (A) (A) (A) (A) (A) (A)
                 (A) (A) (A) (A) (A) (A) (A) (A) (A) (A) (A) (A)
                 (A) (A) (A) (A) (A) (A) (A) (A) (A) (A) (A) (A)
                 (A) (A) (A) (A) (A) (A) (A) (A) (A) (A) (A) (A)
                 (A) (A) (A) (A) (A) (A) (A) (A) (A) (A) (A) (A)
                 (A) (A) (A) (A) (A) (A) (A) (A) (A) (A) (A) (A)
                 (A) (A) (A) (A) (A) (A) (A) (A) (A) (A) (A) (A)
                 (A) (A) (A) (A) (A) (A)
 The electronic state is 1-A.
 Alpha  occ. eigenvalues --  -19.23623 -14.49511 -14.48956 -14.46685 -14.46665
 Alpha  occ. eigenvalues --  -14.46182 -14.45833 -14.44692 -10.42120 -10.40768
 Alpha  occ. eigenvalues --  -10.38286 -10.36899 -10.36464 -10.36208 -10.36088
 Alpha  occ. eigenvalues --  -10.35817 -10.35811 -10.35337 -10.35190 -10.35072
 Alpha  occ. eigenvalues --  -10.34388 -10.34310 -10.34247 -10.32965 -10.32268
 Alpha  occ. eigenvalues --  -10.32088 -10.31994 -10.31631 -10.31418 -10.31238
 Alpha  occ. eigenvalues --  -10.31158 -10.31100 -10.30812 -10.30356 -10.30228
 Alpha  occ. eigenvalues --  -10.29710 -10.29248  -1.13747  -1.11587  -1.05675
 Alpha  occ. eigenvalues --   -1.03743  -1.03509  -1.03076  -1.00150  -0.99514
 Alpha  occ. eigenvalues --   -0.96231  -0.94579  -0.92523  -0.89431  -0.88140
 Alpha  occ. eigenvalues --   -0.87191  -0.86473  -0.85106  -0.83886  -0.83637
 Alpha  occ. eigenvalues --   -0.81945  -0.79509  -0.77967  -0.77887  -0.76024
 Alpha  occ. eigenvalues --   -0.73477  -0.72887  -0.72475  -0.71503  -0.70800
 Alpha  occ. eigenvalues --   -0.70522  -0.69689  -0.68245  -0.66427  -0.64783
 Alpha  occ. eigenvalues --   -0.63409  -0.62448  -0.61674  -0.60897  -0.60168
 Alpha  occ. eigenvalues --   -0.58644  -0.58527  -0.57106  -0.56638  -0.56228
 Alpha  occ. eigenvalues --   -0.55913  -0.55662  -0.54733  -0.54445  -0.53995
 Alpha  occ. eigenvalues --   -0.53469  -0.52712  -0.52276  -0.51892  -0.51488
 Alpha  occ. eigenvalues --   -0.51366  -0.51180  -0.51137  -0.50987  -0.50494
 Alpha  occ. eigenvalues --   -0.50236  -0.50167  -0.49806  -0.49483  -0.48177
 Alpha  occ. eigenvalues --   -0.47467  -0.47189  -0.46529  -0.46230  -0.46200
 Alpha  occ. eigenvalues --   -0.45319  -0.44945  -0.44371  -0.43927  -0.43703
 Alpha  occ. eigenvalues --   -0.43605  -0.43046  -0.42370  -0.41522  -0.40134
 Alpha  occ. eigenvalues --   -0.39806  -0.38091  -0.37790  -0.37343  -0.35723
 Alpha  occ. eigenvalues --   -0.35632  -0.35182  -0.34031  -0.33668  -0.33331
 Alpha  occ. eigenvalues --   -0.33185  -0.32264  -0.31220  -0.29403  -0.27465
 Alpha  occ. eigenvalues --   -0.26114
 Alpha virt. eigenvalues --   -0.00687   0.02652   0.03040   0.04537   0.05703
 Alpha virt. eigenvalues --    0.07243   0.07499   0.07860   0.09886   0.09994
 Alpha virt. eigenvalues --    0.11945   0.13136   0.13670   0.14126   0.15959
 Alpha virt. eigenvalues --    0.16533   0.17124   0.17741   0.18378   0.19106
 Alpha virt. eigenvalues --    0.19426   0.19826   0.20019   0.21531   0.21920
 Alpha virt. eigenvalues --    0.22081   0.22818   0.23236   0.23657   0.23873
 Alpha virt. eigenvalues --    0.24026   0.24199   0.24716   0.25157   0.25221
 Alpha virt. eigenvalues --    0.25529   0.26077   0.26323   0.26428   0.26942
 Alpha virt. eigenvalues --    0.27684   0.27798   0.28084   0.28191   0.28550
 Alpha virt. eigenvalues --    0.29058   0.29343   0.29583   0.30595   0.30997
 Alpha virt. eigenvalues --    0.31655   0.31897   0.32594   0.33102   0.33746
 Alpha virt. eigenvalues --    0.33903   0.34764   0.35688   0.36154   0.37505
 Alpha virt. eigenvalues --    0.37961   0.38351   0.38568   0.39257   0.39660
 Alpha virt. eigenvalues --    0.39913   0.40646   0.41141   0.41195   0.42137
 Alpha virt. eigenvalues --    0.43282   0.44962   0.45217   0.46418   0.46820
 Alpha virt. eigenvalues --    0.47801   0.49503   0.51041   0.52446   0.53715
 Alpha virt. eigenvalues --    0.55466   0.56017   0.57205   0.57581   0.58329
 Alpha virt. eigenvalues --    0.58619   0.59015   0.59485   0.59528   0.59715
 Alpha virt. eigenvalues --    0.59886   0.60872   0.61309   0.61642   0.61982
 Alpha virt. eigenvalues --    0.62283   0.62851   0.63018   0.63702   0.64011
 Alpha virt. eigenvalues --    0.64326   0.64631   0.64772   0.65142   0.65427
 Alpha virt. eigenvalues --    0.65606   0.65666   0.66023   0.66409   0.66590
 Alpha virt. eigenvalues --    0.66726   0.67219   0.67349   0.68040   0.68362
 Alpha virt. eigenvalues --    0.69084   0.69123   0.69426   0.69841   0.70230
 Alpha virt. eigenvalues --    0.70491   0.70749   0.70949   0.71152   0.71859
 Alpha virt. eigenvalues --    0.72062   0.72451   0.72771   0.72877   0.73441
 Alpha virt. eigenvalues --    0.73857   0.74505   0.75558   0.75925   0.76240
 Alpha virt. eigenvalues --    0.77238   0.77540   0.77782   0.79029   0.80416
 Alpha virt. eigenvalues --    0.80719   0.80887   0.81777   0.81938   0.82757
 Alpha virt. eigenvalues --    0.83282   0.83663   0.84646   0.85224   0.85478
 Alpha virt. eigenvalues --    0.86161   0.87225   0.87479   0.87705   0.88330
 Alpha virt. eigenvalues --    0.88606   0.89091   0.89383   0.90036   0.90120
 Alpha virt. eigenvalues --    0.90593   0.91189   0.91634   0.91919   0.92686
 Alpha virt. eigenvalues --    0.92899   0.93023   0.93373   0.93626   0.93896
 Alpha virt. eigenvalues --    0.94216   0.94690   0.94788   0.95133   0.96029
 Alpha virt. eigenvalues --    0.96165   0.96466   0.97282   0.97892   0.98173
 Alpha virt. eigenvalues --    0.98502   0.99237   0.99459   1.00210   1.00345
 Alpha virt. eigenvalues --    1.00763   1.01434   1.01969   1.02310   1.02955
 Alpha virt. eigenvalues --    1.03152   1.04438   1.04888   1.06005   1.06170
 Alpha virt. eigenvalues --    1.06594   1.06891   1.07616   1.08145   1.08848
[...]
                 (A) (A) (A) (A) (A) (A) (A) (A) (A) (A) (A) (A)
                 (A) (A) (A) (A) (A) (A) (A) (A) (A) (A) (A) (A)
                 (A) (A) (A) (A) (A) (A) (A) (A) (A) (A) (A) (A)
                 (A) (A) (A) (A) (A) (A) (A) (A) (A) (A) (A) (A)
                 (A) (A) (A) (A) (A) (A) (A) (A) (A) (A) (A) (A)
                 (A) (A) (A) (A) (A) (A) (A) (A) (A) (A) (A) (A)
                 (A) (A) (A) (A) (A) (A) (A) (A) (A) (A) (A) (A)
                 (A) (A) (A) (A) (A) (A) (A) (A) (A) (A) (A) (A)
                 (A) (A) (A) (A) (A) (A) (A) (A) (A) (A) (A) (A)
                 (A) (A) (A) (A) (A) (A) (A) (A) (A) (A) (A) (A)
                 (A) (A) (A) (A) (A) (A) (A) (A) (A) (A) (A) (A)
                 (A) (A) (A) (A) (A) (A) (A) (A) (A) (A) (A) (A)
                 (A) (A) (A) (A) (A) (A) (A) (A) (A) (A) (A) (A)
                 (A) (A) (A) (A) (A) (A) (A) (A) (A) (A) (A) (A)
                 (A) (A) (A) (A) (A) (A) (A) (A) (A) (A) (A) (A)
                 (A) (A) (A) (A) (A) (A) (A) (A) (A) (A) (A) (A)
                 (A) (A) (A) (A) (A) (A) (A) (A) (A) (A) (A) (A)
                 (A) (A) (A) (A) (A) (A) (A) (A) (A) (A) (A) (A)
                 (A) (A) (A) (A) (A) (A) (A) (A) (A) (A) (A) (A)
                 (A) (A) (A) (A) (A) (A) (A) (A) (A) (A) (A) (A)
                 (A) (A) (A) (A) (A) (A) (A) (A) (A) (A) (A) (A)
                 (A) (A) (A) (A) (A) (A) (A) (A) (A) (A) (A) (A)
                 (A) (A) (A) (A) (A) (A) (A) (A) (A) (A) (A) (A)
                 (A) (A) (A) (A) (A) (A) (A) (A) (A) (A) (A) (A)
                 (A) (A) (A) (A) (A) (A) (A) (A) (A) (A) (A) (A)
                 (A) (A) (A) (A) (A) (A) (A) (A) (A) (A) (A) (A)
                 (A) (A) (A) (A) (A) (A) (A) (A) (A) (A) (A) (A)
                 (A) (A) (A) (A) (A) (A) (A) (A) (A) (A) (A) (A)
                 (A) (A) (A) (A) (A) (A) (A) (A) (A) (A) (A) (A)
                 (A) (A) (A) (A) (A) (A)
 The electronic state is 1-A.
 Alpha  occ. eigenvalues --  -19.23411 -14.49283 -14.48320 -14.46751 -14.46096
 Alpha  occ. eigenvalues --  -14.45764 -14.43616 -14.43135 -10.41778 -10.40081
 Alpha  occ. eigenvalues --  -10.37615 -10.36338 -10.35325 -10.35084 -10.34623
 Alpha  occ. eigenvalues --  -10.34135 -10.34016 -10.33623 -10.32863 -10.32367
 Alpha  occ. eigenvalues --  -10.31861 -10.31493 -10.31178 -10.30936 -10.30708
 Alpha  occ. eigenvalues --  -10.30688 -10.30676 -10.30586 -10.30533 -10.30402
 Alpha  occ. eigenvalues --  -10.30377 -10.30220 -10.30020 -10.29974 -10.29575
 Alpha  occ. eigenvalues --  -10.28739 -10.28405  -1.13443  -1.12296  -1.06322
 Alpha  occ. eigenvalues --   -1.04565  -1.03828  -1.03634  -1.00716  -0.99557
 Alpha  occ. eigenvalues --   -0.96085  -0.94671  -0.93098  -0.89778  -0.88124
 Alpha  occ. eigenvalues --   -0.87389  -0.86228  -0.85399  -0.84541  -0.83783
 Alpha  occ. eigenvalues --   -0.81888  -0.79581  -0.78270  -0.77798  -0.76320
 Alpha  occ. eigenvalues --   -0.73881  -0.73301  -0.73025  -0.72621  -0.70870
 Alpha  occ. eigenvalues --   -0.70314  -0.69614  -0.68039  -0.66413  -0.65150
 Alpha  occ. eigenvalues --   -0.63656  -0.63408  -0.62228  -0.61762  -0.60211
 Alpha  occ. eigenvalues --   -0.58848  -0.58045  -0.57570  -0.56611  -0.56101
 Alpha  occ. eigenvalues --   -0.55817  -0.55236  -0.55134  -0.54964  -0.54255
 Alpha  occ. eigenvalues --   -0.53867  -0.53239  -0.53154  -0.52612  -0.52174
 Alpha  occ. eigenvalues --   -0.51912  -0.51509  -0.51371  -0.50999  -0.50575
 Alpha  occ. eigenvalues --   -0.50365  -0.50116  -0.49974  -0.49497  -0.48335
 Alpha  occ. eigenvalues --   -0.47217  -0.46906  -0.46619  -0.46319  -0.46211
 Alpha  occ. eigenvalues --   -0.45762  -0.45236  -0.44797  -0.44045  -0.43931
 Alpha  occ. eigenvalues --   -0.43328  -0.43017  -0.42141  -0.41766  -0.41439
 Alpha  occ. eigenvalues --   -0.40964  -0.40776  -0.39912  -0.38187  -0.37592
 Alpha  occ. eigenvalues --   -0.35821  -0.35293  -0.34001  -0.33446  -0.33374
 Alpha  occ. eigenvalues --   -0.32818  -0.31904  -0.30772  -0.29115  -0.27079
 Alpha  occ. eigenvalues --   -0.24996
 Alpha virt. eigenvalues --   -0.00292   0.02872   0.03586   0.04480   0.06434
 Alpha virt. eigenvalues --    0.07258   0.08204   0.10372   0.13887   0.14815
 Alpha virt. eigenvalues --    0.15728   0.16386   0.17252   0.17441   0.18251
 Alpha virt. eigenvalues --    0.19198   0.19760   0.20074   0.20198   0.20629
 Alpha virt. eigenvalues --    0.21234   0.21900   0.22615   0.22767   0.23135
 Alpha virt. eigenvalues --    0.23343   0.23537   0.24192   0.24362   0.24839
 Alpha virt. eigenvalues --    0.25118   0.25125   0.26082   0.26488   0.26551
 Alpha virt. eigenvalues --    0.27065   0.27431   0.27681   0.27997   0.28429
 Alpha virt. eigenvalues --    0.28564   0.28864   0.29436   0.29707   0.30282
 Alpha virt. eigenvalues --    0.31014   0.31165   0.31764   0.32125   0.32245
 Alpha virt. eigenvalues --    0.32892   0.33213   0.33674   0.33955   0.34428
 Alpha virt. eigenvalues --    0.35001   0.36035   0.36538   0.37754   0.38123
 Alpha virt. eigenvalues --    0.38651   0.38809   0.39299   0.40139   0.40740
 Alpha virt. eigenvalues --    0.41234   0.41464   0.42064   0.42207   0.42713
 Alpha virt. eigenvalues --    0.43814   0.45042   0.46208   0.47058   0.47330
 Alpha virt. eigenvalues --    0.48355   0.49428   0.51938   0.53014   0.54230
 Alpha virt. eigenvalues --    0.55738   0.56536   0.57256   0.57911   0.58308
 Alpha virt. eigenvalues --    0.59047   0.59371   0.59611   0.60510   0.60896
 Alpha virt. eigenvalues --    0.61370   0.61485   0.61680   0.62222   0.62698
 Alpha virt. eigenvalues --    0.63199   0.63355   0.63864   0.64089   0.64888
 Alpha virt. eigenvalues --    0.64931   0.65336   0.65507   0.65529   0.65822
 Alpha virt. eigenvalues --    0.66021   0.66272   0.66897   0.66982   0.67472
 Alpha virt. eigenvalues --    0.67616   0.67787   0.68308   0.68614   0.69045
 Alpha virt. eigenvalues --    0.69766   0.70018   0.70550   0.71042   0.71241
 Alpha virt. eigenvalues --    0.71763   0.72092   0.72268   0.72585   0.73056
 Alpha virt. eigenvalues --    0.73334   0.73462   0.74254   0.75226   0.75348
 Alpha virt. eigenvalues --    0.75594   0.75945   0.76256   0.76931   0.77677
 Alpha virt. eigenvalues --    0.77801   0.79112   0.80382   0.80454   0.81763
 Alpha virt. eigenvalues --    0.81971   0.82305   0.83130   0.83262   0.84196
 Alpha virt. eigenvalues --    0.84655   0.85716   0.86629   0.86887   0.87423
 Alpha virt. eigenvalues --    0.88279   0.89047   0.89674   0.90200   0.90738
 Alpha virt. eigenvalues --    0.90925   0.91158   0.91468   0.92209   0.92295
 Alpha virt. eigenvalues --    0.92392   0.92543   0.93563   0.93885   0.94046
 Alpha virt. eigenvalues --    0.94341   0.94529   0.94676   0.95249   0.95604
 Alpha virt. eigenvalues --    0.95949   0.96540   0.97598   0.98197   0.98359
 Alpha virt. eigenvalues --    0.98516   0.99007   0.99058   0.99700   0.99824
 Alpha virt. eigenvalues --    1.00451   1.00622   1.01371   1.01926   1.02023
 Alpha virt. eigenvalues --    1.02502   1.02651   1.03216   1.03674   1.04408
 Alpha virt. eigenvalues --    1.05622   1.05883   1.06646   1.06768   1.07380
 Alpha virt. eigenvalues --    1.07618   1.08219   1.08750   1.08901   1.09056
 Alpha virt. eigenvalues --    1.10208   1.10701   1.11027   1.11714   1.12089
 Alpha virt. eigenvalues --    1.12633   1.13092   1.13792   1.14264   1.15632
 Alpha virt. eigenvalues --    1.16461   1.16987   1.17693   1.18301   1.19271
 Alpha virt. eigenvalues --    1.20081   1.21180   1.21737   1.23135   1.23418
 Alpha virt. eigenvalues --    1.24743   1.25513   1.26101   1.26964   1.27426
 Alpha virt. eigenvalues --    1.29019   1.29352   1.29707   1.30410   1.30876
 Alpha virt. eigenvalues --    1.31927   1.33070   1.33762   1.33902   1.34766
 Alpha virt. eigenvalues --    1.35493   1.36941   1.37300   1.37887   1.38645
 Alpha virt. eigenvalues --    1.39297   1.42346   1.43370   1.43714   1.44584
 Alpha virt. eigenvalues --    1.46486   1.47299   1.47752   1.48440   1.48545
 Alpha virt. eigenvalues --    1.48649   1.49179   1.49468   1.50259   1.51637
 Alpha virt. eigenvalues --    1.51971   1.52736   1.53658   1.54081   1.54529
 Alpha virt. eigenvalues --    1.55184   1.55560   1.56281   1.56871   1.56982
 Alpha virt. eigenvalues --    1.57524   1.57807   1.58456   1.59181   1.59302
 Alpha virt. eigenvalues --    1.59662   1.60105   1.60821   1.61986   1.62519
 Alpha virt. eigenvalues --    1.63911   1.64943   1.65122   1.65691   1.67669
 Alpha virt. eigenvalues --    1.68409   1.69750   1.72013   1.75168   1.76231
 Alpha virt. eigenvalues --    1.78748   1.80598   1.81508   1.82526   1.84278
 Alpha virt. eigenvalues --    1.84718   1.85643   1.86428   1.86959   1.87887
 Alpha virt. eigenvalues --    1.87957   1.88948   1.89941   1.90638   1.90825
 Alpha virt. eigenvalues --    1.91214   1.92461   1.92803   1.93435   1.94263
 Alpha virt. eigenvalues --    1.94427   1.94937   1.95569   1.96613   1.97941
 Alpha virt. eigenvalues --    1.98717   1.99604   2.00122   2.00240   2.01198
 Alpha virt. eigenvalues --    2.01310   2.01499   2.01783   2.02573   2.03679
 Alpha virt. eigenvalues --    2.05536   2.06501   2.06638   2.07325   2.08211
 Alpha virt. eigenvalues --    2.08613   2.08850   2.09735   2.10837   2.11395
 Alpha virt. eigenvalues --    2.12240   2.12580   2.13555   2.14167   2.14818
 Alpha virt. eigenvalues --    2.15878   2.16188   2.17690   2.19548   2.20432
 Alpha virt. eigenvalues --    2.21104   2.21286   2.21688   2.22412   2.22784
 Alpha virt. eigenvalues --    2.22977   2.23633   2.23942   2.24603   2.25134
 Alpha virt. eigenvalues --    2.25945   2.26147   2.26367   2.26886   2.28050
 Alpha virt. eigenvalues --    2.28544   2.29388   2.29952   2.31587   2.32593
 Alpha virt. eigenvalues --    2.34097   2.34928   2.36375   2.37133   2.37171
 Alpha virt. eigenvalues --    2.37914   2.38059   2.38212   2.39476   2.39888
 Alpha virt. eigenvalues --    2.40252   2.40811   2.42122   2.42800   2.43234
 Alpha virt. eigenvalues --    2.43389   2.44334   2.44769   2.44889   2.46220
 Alpha virt. eigenvalues --    2.46452   2.47887   2.48102   2.49415   2.49810
 Alpha virt. eigenvalues --    2.50303   2.50933   2.52052   2.53874   2.56003
 Alpha virt. eigenvalues --    2.58455   2.59877   2.60856   2.62125   2.63399
 Alpha virt. eigenvalues --    2.64709   2.65082   2.65953   2.66089   2.67625
 Alpha virt. eigenvalues --    2.68705   2.70008   2.71800   2.72056   2.72665
 Alpha virt. eigenvalues --    2.74012   2.74385   2.75463   2.76174   2.76864
 Alpha virt. eigenvalues --    2.77167   2.78480   2.78949   2.80940   2.81728
 Alpha virt. eigenvalues --    2.82745   2.83153   2.83723   2.84481   2.85525
 Alpha virt. eigenvalues --    2.86030   2.86479   2.87314   2.88412   2.89257
 Alpha virt. eigenvalues --    2.89962   2.91945   2.92699   2.93387   2.94568
 Alpha virt. eigenvalues --    2.94833   2.96132   2.97875   3.01371   3.02993
 Alpha virt. eigenvalues --    3.04142   3.06694   3.09290   3.10086   3.12017
 Alpha virt. eigenvalues --    3.18948   3.26898   3.29152   3.39174   3.41514
 Alpha virt. eigenvalues --    3.45041   3.53455   3.56407   3.57589   4.12661
 Alpha virt. eigenvalues --    4.13541   4.15200   4.16849   4.18259   4.19133
 Alpha virt. eigenvalues --    4.19562   4.20447   4.21989   4.23542   4.25289
 Alpha virt. eigenvalues --    4.26036   4.27473   4.28698   4.30764   4.31720
 Alpha virt. eigenvalues --    4.33381   4.34588   4.36933   4.40132   4.40369
 Alpha virt. eigenvalues --    4.41612   4.44510   4.46129   4.49150   4.49442
 Alpha virt. eigenvalues --    4.49747   4.52846   4.57341   4.60739   4.61924
 Alpha virt. eigenvalues --    4.64161   4.67476   4.69410   4.79023   4.85076
 Alpha virt. eigenvalues --    4.89519
          Condensed to atoms (all electrons):
 Mulliken atomic charges:
              1
     1  C   -0.197837
     2  C   -0.154404
     3  C    0.035507
     4  C    0.009571
     5  N   -0.437521
     6  C    0.035729
     7  C    0.295161
     8  C   -0.254772
     9  C    0.049021
    10  N   -0.493039
    11  C    0.714397
    12  N   -0.568413
    13  N   -0.802091
    14  C    0.291488
    15  C    0.119854
    16  C   -0.240380
    17  C   -0.191296
    18  C    0.358149
    19  C   -0.269699
    20  N   -0.757966
    21  C    0.585738
    22  C    0.015195
    23  C   -0.205346
    24  C   -0.217911
    25  C    0.155971
    26  C   -0.223080
    27  C   -0.178379
    28  C   -0.263560
    29  N   -0.382216
    30  C   -0.183896
    31  C   -0.181775
    32  N   -0.385719
    33  C   -0.349274
    34  C   -0.182642
    35  C   -0.186520
    36  O   -0.513282
    37  C   -0.607372
    38  H    0.186141
    39  H    0.186727
    40  H    0.198130
    41  H    0.179048
    42  H    0.180748
    43  H    0.189491
    44  H    0.369214
    45  H    0.160819
    46  H    0.213080
    47  H    0.199379
    48  H    0.361557
    49  H    0.185459
    50  H    0.172056
    51  H    0.163616
    52  H    0.195609
    53  H    0.170277
    54  H    0.168923
    55  H    0.148151
    56  H    0.158345
    57  H    0.141654
    58  H    0.174887
    59  H    0.135271
    60  H    0.164119
    61  H    0.167874
    62  H    0.153487
    63  H    0.172930
    64  H    0.159422
    65  H    0.154992
    66  H    0.178040
    67  H    0.182743
    68  H    0.190420
 Sum of Mulliken atomic charges =   0.00000
 Mulliken charges with hydrogens summed into heavy atoms:
              1
     1  C   -0.011696
     2  C    0.032323
     3  C    0.035507
     4  C    0.207701
     5  N   -0.437521
     6  C    0.214777
     7  C    0.295161
     8  C   -0.074025
     9  C    0.238513
    10  N   -0.493039
    11  C    0.714397
    12  N   -0.568413
    13  N   -0.432877
    14  C    0.291488
    15  C    0.119854
    16  C   -0.079561
    17  C    0.021784
    18  C    0.358149
    19  C   -0.070320
    20  N   -0.396409
    21  C    0.585738
    22  C    0.015195
    23  C   -0.019887
    24  C   -0.045855
    25  C    0.155971
    26  C   -0.059464
    27  C    0.017230
    28  C    0.075641
    29  N   -0.382216
    30  C    0.122600
    31  C    0.134766
    32  N   -0.385719
    33  C    0.117991
    34  C    0.143775
    35  C    0.127894
    36  O   -0.513282
    37  C   -0.056170
 Sum of Mulliken charges with hydrogens summed into heavy atoms =   0.00000
 Electronic spatial extent (au):  <R**2>=          21212.8434
 Charge=              0.0000 electrons
 Dipole moment (field-independent basis, Debye):
    X=              0.5806    Y=              6.5719    Z=              0.4347  Tot=              6.6118
 Quadrupole moment (field-independent basis, Debye-Ang):
   XX=           -193.2968   YY=           -202.5023   ZZ=           -220.4861
   XY=              3.1065   XZ=             -1.2787   YZ=             -5.2175
 Traceless Quadrupole moment (field-independent basis, Debye-Ang):
   XX=             12.1316   YY=              2.9261   ZZ=            -15.0577
   XY=              3.1065   XZ=             -1.2787   YZ=             -5.2175
 Octapole moment (field-independent basis, Debye-Ang**2):
  XXX=             80.0388  YYY=            204.3538  ZZZ=             11.3478  XYY=             33.4394
  XXY=            -43.1187  XXZ=             31.6537  XZZ=            -22.7163  YZZ=              1.3403
  YYZ=             17.7752  XYZ=              2.2720
 Hexadecapole moment (field-independent basis, Debye-Ang**3):
 XXXX=         -18571.8950 YYYY=          -7864.6486 ZZZZ=          -1607.5788 XXXY=            -50.8997
 XXXZ=           -102.8811 YYYX=            149.1072 YYYZ=            -76.1915 ZZZX=            -50.0486
 ZZZY=             15.0254 XXYY=          -4005.5562 XXZZ=          -3409.4759 YYZZ=          -1721.4180
 XXYZ=            -52.7627 YYXZ=            -15.8380 ZZXY=            -24.5914
 N-N= 3.895055762563D+03 E-N=-1.146170714757D+04  KE= 1.567155726289D+03
 No NMR shielding tensors so no spin-rotation constants.
 Leave Link  601 at Wed Mar  4 08:25:08 2020, MaxMem= 2684354560 cpu:       2.9
 (Enter /opt/g09gh/gaussian/g09/l9999.exe)
 1\1\GINC-NODE42\FOpt\RwB97XD\6-31G(d)\C29H31N7O1\BDW2292\04-Mar-2020\0
 \\#P opt=(,maxcycle=400) wB97XD/6-31G* MaxDisk=100GB\\MOLECULE0 Rotata
 ble Bond Optimization on node37.bme.utexas.edu\\0,1\C,0.0140764925,3.8
 317574881,-1.6753267187\C,1.3346385586,3.7500892831,-1.2504509395\C,1.
 9396738218,2.4977525601,-1.1587673783\C,1.1699344374,1.3823834577,-1.5
 151513444\N,-0.0969746243,1.4451259376,-1.9210992087\C,-0.6577837321,2
 .6560266906,-1.9917260873\C,3.3280814252,2.3039500712,-0.6692723227\C,
 4.3188834884,3.2793404264,-0.7355305585\C,5.5600851722,2.9282022766,-0
 .2058236955\N,5.8260904393,1.7447514791,0.3298111917\C,4.8018172836,0.
 8675294953,0.329372775\N,3.5770009958,1.1034035233,-0.1405567608\N,5.0
 948740761,-0.3538992527,0.8715751439\C,4.3079043423,-1.5167980034,0.96
 82143867\C,4.9513931179,-2.7398193204,1.2467161924\C,4.1620522821,-3.8
 845930165,1.3159792832\C,2.7839254513,-3.8794887843,1.1082009139\C,2.1
 724168807,-2.6588904182,0.8385952267\C,2.9291793631,-1.4882079435,0.79
 82291025\N,0.8066574504,-2.4862108373,0.5592991881\C,-0.1749961944,-3.
 4180504268,0.3390218877\C,-1.4346655869,-2.802781198,-0.2022000858\C,-
 1.4016586946,-1.720225962,-1.0862415107\C,-2.5813565462,-1.1436617239,
 -1.5331007724\C,-3.81854273,-1.6141963269,-1.0932179929\C,-3.844364997
 9,-2.7320264082,-0.2545436688\C,-2.6674510756,-3.3285195396,0.18268827
 89\C,-5.0989768811,-0.8859716568,-1.468148023\N,-5.4725485816,0.264827
 0295,-0.659831188\C,-4.7257886005,1.5049571025,-0.8423642687\C,-3.5565
 986903,1.6938852037,0.1413819536\N,-3.9431931438,1.4960616118,1.535592
 9985\C,-4.7053813822,2.5979692686,2.095495348\C,-4.5905502103,0.194963
 8518,1.6877082443\C,-5.7870603453,0.0047921091,0.740647813\O,-0.060446
 5683,-4.6103938487,0.5680329299\C,6.4434557348,-2.8118920613,1.4503667
 119\H,-0.4907452583,4.7890365728,-1.7482628131\H,1.8745695865,4.648968
 4419,-0.9669746674\H,1.6190930729,0.3935138627,-1.4698684078\H,-1.6965
 2069,2.6837107182,-2.3139070031\H,4.1572610801,4.2514400178,-1.1845636
 851\H,6.383587503,3.6394198299,-0.2185290444\H,6.0591517801,-0.4240382
 467,1.1604614423\H,4.6481038773,-4.8332247683,1.5297615875\H,2.2014024
 343,-4.7897498912,1.1463664314\H,2.4453101393,-0.5443128537,0.59796008
 09\H,0.5267943405,-1.5248573251,0.4321514153\H,-0.4602959742,-1.323647
 4364,-1.4553425287\H,-2.5251744743,-0.3000596139,-2.2163210894\H,-4.80
 19031128,-3.1311354933,0.0728302698\H,-2.6873253954,-4.1941248089,0.83
 73527135\H,-5.0280162273,-0.5438288313,-2.5077348203\H,-5.9347719925,-
 1.5961872159,-1.4273123988\H,-4.3632864942,1.5482710485,-1.8764217713\
 H,-5.4305535686,2.3414141497,-0.7205455583\H,-3.1372279228,2.702387615
 5,0.0330134291\H,-2.7553815241,0.9821031006,-0.0863299047\H,-5.6811943
 168,2.7938685652,1.6170388966\H,-4.1119639596,3.5163359435,2.025202560
 7\H,-4.8913161454,2.3995788436,3.1566837719\H,-4.9140520274,0.08194839
 91,2.7296041476\H,-3.8374986177,-0.5770359814,1.4911368065\H,-6.597865
 3603,0.6849111213,1.0411766124\H,-6.1823689546,-1.0132635505,0.8302622
 803\H,6.773626476,-2.2261018641,2.3191742811\H,6.9941198551,-2.4454829
 655,0.574221181\H,6.7587396434,-3.8440015218,1.6229367393\\Version=EM6
 4L-G09RevA.02\State=1-A\HF=-1581.7632162\RMSD=3.744e-09\RMSF=6.285e-06
 \Dipole=0.3883411,2.5468259,-0.3600356\Quadrupole=9.3553788,-0.2298059
 ,-9.1255729,1.8935959,-0.7394655,-6.1182809\PG=C01 [X(C29H31N7O1)]\\@


 GOD GAVE US TWO ENDS... ONE TO SIT ON...    
 AND THE OTHER TO THINK WITH...              
 YOUR SUCCESS DEPENDS UPON WHICH END YOU     
 USE THE MOST...                             
                                             
 IT'S A CASE OF HEADS YOU WIN TAILS YOU LOSE.
          SOURCE UNKNOWN(IT'S JUST AS WELL.) 
 Job cpu time:  0 days 10 hours 21 minutes  2.2 seconds.
 File lengths (MBytes):  RWF=    244 Int=      0 D2E=      0 Chk=     25 Scr=      1
 Normal termination of Gaussian 09 at Wed Mar  4 08:25:08 2020.
