 Entering Gaussian System, Link 0=g09
 Input=MOLECULE0-opt-2-3-7-8-283.com
 Output=MOLECULE0-opt-2-3-7-8-283.log
 Initial command:
 /opt/g09gh/gaussian/g09/l1.exe /scratch/bdw2292/Gau-MOLECULE0/Gau-59641.inp -scrdir=/scratch/bdw2292/Gau-MOLECULE0/
 Entering Link 1 = /opt/g09gh/gaussian/g09/l1.exe PID=     59642.
  
 Copyright (c) 1988,1990,1992,1993,1995,1998,2003,2009, Gaussian, Inc.
                  All Rights Reserved.
  
 This is part of the Gaussian(R) 09 program.  It is based on
 the Gaussian(R) 03 system (copyright 2003, Gaussian, Inc.),
 the Gaussian(R) 98 system (copyright 1998, Gaussian, Inc.),
 the Gaussian(R) 94 system (copyright 1995, Gaussian, Inc.),
 the Gaussian 92(TM) system (copyright 1992, Gaussian, Inc.),
 the Gaussian 90(TM) system (copyright 1990, Gaussian, Inc.),
 the Gaussian 88(TM) system (copyright 1988, Gaussian, Inc.),
 the Gaussian 86(TM) system (copyright 1986, Carnegie Mellon
 University), and the Gaussian 82(TM) system (copyright 1983,
 Carnegie Mellon University). Gaussian is a federally registered
 trademark of Gaussian, Inc.
  
 This software contains proprietary and confidential information,
 including trade secrets, belonging to Gaussian, Inc.
  
 This software is provided under written license and may be
 used, copied, transmitted, or stored only in accord with that
 written license.
  
 The following legend is applicable only to US Government
 contracts under FAR:
  
                    RESTRICTED RIGHTS LEGEND
  
 Use, reproduction and disclosure by the US Government is
 subject to restrictions as set forth in subparagraphs (a)
 and (c) of the Commercial Computer Software - Restricted
 Rights clause in FAR 52.227-19.
  
 Gaussian, Inc.
 340 Quinnipiac St., Bldg. 40, Wallingford CT 06492
  
  
 ---------------------------------------------------------------
 Warning -- This program may not be used in any manner that
 competes with the business of Gaussian, Inc. or will provide
 assistance to any competitor of Gaussian, Inc.  The licensee
 of this program is prohibited from giving any competitor of
 Gaussian, Inc. access to this program.  By using this program,
 the user acknowledges that Gaussian, Inc. is engaged in the
 business of creating and licensing software in the field of
 computational chemistry and represents and warrants to the
 licensee that it is not a competitor of Gaussian, Inc. and that
 it will not use this program in any manner prohibited above.
 ---------------------------------------------------------------
  

 Cite this work as:
 Gaussian 09, Revision A.02,
 M. J. Frisch, G. W. Trucks, H. B. Schlegel, G. E. Scuseria, 
 M. A. Robb, J. R. Cheeseman, G. Scalmani, V. Barone, B. Mennucci, 
 G. A. Petersson, H. Nakatsuji, M. Caricato, X. Li, H. P. Hratchian, 
 A. F. Izmaylov, J. Bloino, G. Zheng, J. L. Sonnenberg, M. Hada, 
 M. Ehara, K. Toyota, R. Fukuda, J. Hasegawa, M. Ishida, T. Nakajima, 
 Y. Honda, O. Kitao, H. Nakai, T. Vreven, J. A. Montgomery, Jr., 
 J. E. Peralta, F. Ogliaro, M. Bearpark, J. J. Heyd, E. Brothers, 
 K. N. Kudin, V. N. Staroverov, R. Kobayashi, J. Normand, 
 K. Raghavachari, A. Rendell, J. C. Burant, S. S. Iyengar, J. Tomasi, 
 M. Cossi, N. Rega, J. M. Millam, M. Klene, J. E. Knox, J. B. Cross, 
 V. Bakken, C. Adamo, J. Jaramillo, R. Gomperts, R. E. Stratmann, 
 O. Yazyev, A. J. Austin, R. Cammi, C. Pomelli, J. W. Ochterski, 
 R. L. Martin, K. Morokuma, V. G. Zakrzewski, G. A. Voth, 
 P. Salvador, J. J. Dannenberg, S. Dapprich, A. D. Daniels, 
 O. Farkas, J. B. Foresman, J. V. Ortiz, J. Cioslowski, 
 and D. J. Fox, Gaussian, Inc., Wallingford CT, 2009.
 
 ******************************************
 Gaussian 09:  EM64L-G09RevA.02 11-Jun-2009
                25-Mar-2020 
 ******************************************
 %RWF=/scratch/bdw2292/Gau-MOLECULE0/,100GB
 %Nosave
 %Chk=MOLECULE0-opt-2-3-7-8-283.chk
 %Mem=20GB
 %Nproc=6
 Will use up to    6 processors via shared memory.
 --------------------------------------------------
 #P opt=(,maxcycle=400) wB97XD/6-31G* MaxDisk=100GB
 --------------------------------------------------
 1/6=400,14=-1,18=20,19=15,26=3,38=1/1,3;
 2/9=110,12=2,17=6,18=5,40=1/2;
 3/5=1,6=6,7=1,11=2,16=1,25=1,30=1,71=1,74=-58/1,2,3;
 4//1;
 5/5=2,38=5/2;
 6/7=2,8=2,9=2,10=2,28=1/1;
 7//1,2,3,16;
 1/6=400,14=-1,18=20,19=15/3(2);
 2/9=110/2;
 99//99;
 2/9=110/2;
 3/5=1,6=6,7=1,11=2,16=1,25=1,30=1,71=1,74=-58/1,2,3;
 4/5=5,16=3/1;
 5/5=2,38=5/2;
 7//1,2,3,16;
 1/6=400,14=-1,18=20,19=15/3(-5);
 2/9=110/2;
 6/7=2,8=2,9=2,10=2,19=2,28=1/1;
 99/9=1/99;
 Leave Link    1 at Wed Mar 25 12:57:41 2020, MaxMem= 2684354560 cpu:       0.2
 (Enter /opt/g09gh/gaussian/g09/l101.exe)
 --------------------------------------------------------------
 MOLECULE0 Rotatable Bond Optimization on node37.bme.utexas.edu
 --------------------------------------------------------------
 Symbolic Z-matrix:
 Charge =  0 Multiplicity = 1
 C                    -0.32019   4.2596   -0.72401 
 C                     1.04162   4.19722  -0.40237 
 C                     1.75503   3.01242  -0.64996 
 C                     1.04699   1.94635  -1.24669 
 N                    -0.25348   1.99438  -1.56504 
 C                    -0.91647   3.13287  -1.30447 
 C                     3.19137   2.83981  -0.27941 
 C                     4.28897   3.3636   -0.96962 
 C                     5.53498   3.08563  -0.39403 
 N                     5.71061   2.37472   0.719 
 C                     4.58772   1.90186   1.30193 
 N                     3.35554   2.11274   0.83616 
 N                     4.76058   1.15765   2.45811 
 C                     3.83857   0.43613   3.30457 
 C                     4.34011  -0.53237   4.22607 
 C                     3.39955  -1.2051    5.02546 
 C                     2.01698  -0.99652   4.95058 
 C                     1.54176  -0.0481    4.03942 
 C                     2.45743   0.65968   3.24532 
 N                     0.17021   0.27439   3.7949 
 C                    -0.99605  -0.30823   4.22871 
 C                    -2.27495   0.13347   3.54344 
 C                    -2.33554   0.44664   2.17473 
 C                    -3.52707   0.89838   1.60449 
 C                    -4.69566   1.04973   2.37383 
 C                    -4.62867   0.70017   3.73677 
 C                    -3.44687   0.22548   4.31088 
 C                    -5.97286   1.63093   1.76574 
 N                    -6.11674   3.09558   1.67939 
 C                    -5.34813   3.83384   0.65255 
 C                    -3.99504   4.40826   1.14426 
 N                    -4.09799   5.23965   2.36606 
 C                    -4.50212   6.63835   2.18113 
 C                    -4.82893   4.47703   3.40827 
 C                    -6.17993   3.877     2.93612 
 O                    -1.03148  -1.12868   5.13171 
 C                     5.8157   -0.86127   4.37257 
 H                    -0.90479   5.15215  -0.52354 
 H                     1.5284    5.05394   0.05865 
 H                     1.55823   1.0095   -1.45916 
 H                    -1.972     3.13853  -1.57206 
 H                     4.19934   3.94949  -1.87689 
 H                     6.44764   3.46013  -0.85645 
 H                     5.74437   1.06163   2.66042 
 H                     3.74676  -1.94833   5.74248 
 H                     1.32308  -1.557     5.56553 
 H                     2.08792   1.38534   2.53562 
 H                     0.04212   1.02329   3.12869 
 H                    -1.44749   0.33223   1.55712 
 H                    -3.53549   1.14707   0.54311 
 H                    -5.50945   0.80434   4.36994 
 H                    -3.40359  -0.05096   5.3614 
 H                    -6.08638   1.23533   0.74576 
 H                    -6.83263   1.26254   2.3438 
 H                    -5.25343   3.26089  -0.231 
 H                    -6.21788   5.10309   0.26795 
 H                    -3.45952   5.24967   0.04763 
 H                    -3.2263    3.55792   1.35301 
 H                    -5.52918   6.70522   1.80508 
 H                    -3.83201   7.13496   1.47038 
 H                    -4.43945   7.17819   3.13307 
 H                    -4.96938   5.13571   4.33486 
 H                    -3.95776   3.34692   3.79846 
 H                    -7.1159    5.12011   2.65966 
 H                    -6.67243   3.27472   3.74889 
 H                     6.38633   0.00813   4.72843 
 H                     6.25515  -1.17631   3.41558 
 H                     6.00446  -1.67531   5.08599 
 
 NAtoms=     68 NQM=     68 NQMF=      0 NMic=      0 NMicF=      0 NTot=     68.
                    Isotopes and Nuclear Properties:
 (Nuclear quadrupole moments (NQMom) in fm**2, nuclear magnetic moments (NMagM)
  in nuclear magnetons)

  Atom         1           2           3           4           5           6           7           8           9          10
 IAtWgt=          12          12          12          12          14          12          12          12          12          14
 AtmWgt=  12.0000000  12.0000000  12.0000000  12.0000000  14.0030740  12.0000000  12.0000000  12.0000000  12.0000000  14.0030740
 NucSpn=           0           0           0           0           2           0           0           0           0           2
 AtZEff=   0.0000000   0.0000000   0.0000000   0.0000000   0.0000000   0.0000000   0.0000000   0.0000000   0.0000000   0.0000000
 NQMom=    0.0000000   0.0000000   0.0000000   0.0000000   2.0440000   0.0000000   0.0000000   0.0000000   0.0000000   2.0440000
 NMagM=    0.0000000   0.0000000   0.0000000   0.0000000   0.4037610   0.0000000   0.0000000   0.0000000   0.0000000   0.4037610

  Atom        11          12          13          14          15          16          17          18          19          20
 IAtWgt=          12          14          14          12          12          12          12          12          12          14
 AtmWgt=  12.0000000  14.0030740  14.0030740  12.0000000  12.0000000  12.0000000  12.0000000  12.0000000  12.0000000  14.0030740
 NucSpn=           0           2           2           0           0           0           0           0           0           2
 AtZEff=   0.0000000   0.0000000   0.0000000   0.0000000   0.0000000   0.0000000   0.0000000   0.0000000   0.0000000   0.0000000
 NQMom=    0.0000000   2.0440000   2.0440000   0.0000000   0.0000000   0.0000000   0.0000000   0.0000000   0.0000000   2.0440000
 NMagM=    0.0000000   0.4037610   0.4037610   0.0000000   0.0000000   0.0000000   0.0000000   0.0000000   0.0000000   0.4037610

  Atom        21          22          23          24          25          26          27          28          29          30
 IAtWgt=          12          12          12          12          12          12          12          12          14          12
 AtmWgt=  12.0000000  12.0000000  12.0000000  12.0000000  12.0000000  12.0000000  12.0000000  12.0000000  14.0030740  12.0000000
 NucSpn=           0           0           0           0           0           0           0           0           2           0
 AtZEff=   0.0000000   0.0000000   0.0000000   0.0000000   0.0000000   0.0000000   0.0000000   0.0000000   0.0000000   0.0000000
 NQMom=    0.0000000   0.0000000   0.0000000   0.0000000   0.0000000   0.0000000   0.0000000   0.0000000   2.0440000   0.0000000
 NMagM=    0.0000000   0.0000000   0.0000000   0.0000000   0.0000000   0.0000000   0.0000000   0.0000000   0.4037610   0.0000000

  Atom        31          32          33          34          35          36          37          38          39          40
 IAtWgt=          12          14          12          12          12          16          12           1           1           1
 AtmWgt=  12.0000000  14.0030740  12.0000000  12.0000000  12.0000000  15.9949146  12.0000000   1.0078250   1.0078250   1.0078250
 NucSpn=           0           2           0           0           0           0           0           1           1           1
 AtZEff=   0.0000000   0.0000000   0.0000000   0.0000000   0.0000000   0.0000000   0.0000000   0.0000000   0.0000000   0.0000000
 NQMom=    0.0000000   2.0440000   0.0000000   0.0000000   0.0000000   0.0000000   0.0000000   0.0000000   0.0000000   0.0000000
 NMagM=    0.0000000   0.4037610   0.0000000   0.0000000   0.0000000   0.0000000   0.0000000   2.7928460   2.7928460   2.7928460

  Atom        41          42          43          44          45          46          47          48          49          50
 IAtWgt=           1           1           1           1           1           1           1           1           1           1
 AtmWgt=   1.0078250   1.0078250   1.0078250   1.0078250   1.0078250   1.0078250   1.0078250   1.0078250   1.0078250   1.0078250
 NucSpn=           1           1           1           1           1           1           1           1           1           1
 AtZEff=   0.0000000   0.0000000   0.0000000   0.0000000   0.0000000   0.0000000   0.0000000   0.0000000   0.0000000   0.0000000
 NQMom=    0.0000000   0.0000000   0.0000000   0.0000000   0.0000000   0.0000000   0.0000000   0.0000000   0.0000000   0.0000000
 NMagM=    2.7928460   2.7928460   2.7928460   2.7928460   2.7928460   2.7928460   2.7928460   2.7928460   2.7928460   2.7928460

  Atom        51          52          53          54          55          56          57          58          59          60
 IAtWgt=           1           1           1           1           1           1           1           1           1           1
 AtmWgt=   1.0078250   1.0078250   1.0078250   1.0078250   1.0078250   1.0078250   1.0078250   1.0078250   1.0078250   1.0078250
 NucSpn=           1           1           1           1           1           1           1           1           1           1
 AtZEff=   0.0000000   0.0000000   0.0000000   0.0000000   0.0000000   0.0000000   0.0000000   0.0000000   0.0000000   0.0000000
 NQMom=    0.0000000   0.0000000   0.0000000   0.0000000   0.0000000   0.0000000   0.0000000   0.0000000   0.0000000   0.0000000
 NMagM=    2.7928460   2.7928460   2.7928460   2.7928460   2.7928460   2.7928460   2.7928460   2.7928460   2.7928460   2.7928460

  Atom        61          62          63          64          65          66          67          68
 IAtWgt=           1           1           1           1           1           1           1           1
 AtmWgt=   1.0078250   1.0078250   1.0078250   1.0078250   1.0078250   1.0078250   1.0078250   1.0078250
 NucSpn=           1           1           1           1           1           1           1           1
 AtZEff=   0.0000000   0.0000000   0.0000000   0.0000000   0.0000000   0.0000000   0.0000000   0.0000000
 NQMom=    0.0000000   0.0000000   0.0000000   0.0000000   0.0000000   0.0000000   0.0000000   0.0000000
 NMagM=    2.7928460   2.7928460   2.7928460   2.7928460   2.7928460   2.7928460   2.7928460   2.7928460
 Leave Link  101 at Wed Mar 25 12:57:41 2020, MaxMem= 2684354560 cpu:       0.6
 (Enter /opt/g09gh/gaussian/g09/l103.exe)

 GradGradGradGradGradGradGradGradGradGradGradGradGradGradGradGradGradGrad
 Berny optimization.
 Initialization pass.
                           ----------------------------
                           !    Initial Parameters    !
                           ! (Angstroms and Degrees)  !
 --------------------------                            --------------------------
 ! Name  Definition              Value          Derivative Info.                !
 --------------------------------------------------------------------------------
 ! R1    R(1,2)                  1.4007         estimate D2E/DX2                !
 ! R2    R(1,6)                  1.4007         estimate D2E/DX2                !
 ! R3    R(1,38)                 1.0856         estimate D2E/DX2                !
 ! R4    R(2,3)                  1.405          estimate D2E/DX2                !
 ! R5    R(2,39)                 1.0879         estimate D2E/DX2                !
 ! R6    R(3,4)                  1.4121         estimate D2E/DX2                !
 ! R7    R(3,7)                  1.4934         estimate D2E/DX2                !
 ! R8    R(4,5)                  1.3397         estimate D2E/DX2                !
 ! R9    R(4,40)                 1.0882         estimate D2E/DX2                !
 ! R10   R(5,6)                  1.343          estimate D2E/DX2                !
 ! R11   R(6,41)                 1.0889         estimate D2E/DX2                !
 ! R12   R(7,8)                  1.3984         estimate D2E/DX2                !
 ! R13   R(7,12)                 1.3417         estimate D2E/DX2                !
 ! R14   R(8,9)                  1.4004         estimate D2E/DX2                !
 ! R15   R(8,42)                 1.0837         estimate D2E/DX2                !
 ! R16   R(9,10)                 1.3323         estimate D2E/DX2                !
 ! R17   R(9,43)                 1.0895         estimate D2E/DX2                !
 ! R18   R(10,11)                1.3507         estimate D2E/DX2                !
 ! R19   R(11,12)                1.334          estimate D2E/DX2                !
 ! R20   R(11,13)                1.3858         estimate D2E/DX2                !
 ! R21   R(13,14)                1.4447         estimate D2E/DX2                !
 ! R22   R(13,44)                1.009          estimate D2E/DX2                !
 ! R23   R(14,15)                1.4278         estimate D2E/DX2                !
 ! R24   R(14,19)                1.4004         estimate D2E/DX2                !
 ! R25   R(15,16)                1.4058         estimate D2E/DX2                !
 ! R26   R(15,37)                1.5189         estimate D2E/DX2                !
 ! R27   R(16,17)                1.4002         estimate D2E/DX2                !
 ! R28   R(16,45)                1.0895         estimate D2E/DX2                !
 ! R29   R(17,18)                1.3984         estimate D2E/DX2                !
 ! R30   R(17,46)                1.0834         estimate D2E/DX2                !
 ! R31   R(18,19)                1.4036         estimate D2E/DX2                !
 ! R32   R(18,20)                1.43           estimate D2E/DX2                !
 ! R33   R(19,47)                1.0802         estimate D2E/DX2                !
 ! R34   R(20,21)                1.374          estimate D2E/DX2                !
 ! R35   R(20,48)                1.0105         estimate D2E/DX2                !
 ! R36   R(21,22)                1.5167         estimate D2E/DX2                !
 ! R37   R(21,36)                1.2206         estimate D2E/DX2                !
 ! R38   R(22,23)                1.4054         estimate D2E/DX2                !
 ! R39   R(22,27)                1.4039         estimate D2E/DX2                !
 ! R40   R(23,24)                1.3961         estimate D2E/DX2                !
 ! R41   R(23,49)                1.0877         estimate D2E/DX2                !
 ! R42   R(24,25)                1.4073         estimate D2E/DX2                !
 ! R43   R(24,50)                1.0902         estimate D2E/DX2                !
 ! R44   R(25,26)                1.4086         estimate D2E/DX2                !
 ! R45   R(25,28)                1.5293         estimate D2E/DX2                !
 ! R46   R(26,27)                1.397          estimate D2E/DX2                !
 ! R47   R(26,51)                1.0897         estimate D2E/DX2                !
 ! R48   R(27,52)                1.0871         estimate D2E/DX2                !
 ! R49   R(28,29)                1.4742         estimate D2E/DX2                !
 ! R50   R(28,53)                1.0999         estimate D2E/DX2                !
 ! R51   R(28,54)                1.0996         estimate D2E/DX2                !
 ! R52   R(29,30)                1.4799         estimate D2E/DX2                !
 ! R53   R(29,35)                1.4812         estimate D2E/DX2                !
 ! R54   R(30,31)                1.55           estimate D2E/DX2                !
 ! R55   R(30,55)                1.0573         estimate D2E/DX2                !
 ! R56   R(30,56)                1.586          estimate D2E/DX2                !
 ! R57   R(31,32)                1.4814         estimate D2E/DX2                !
 ! R58   R(31,57)                1.4824         estimate D2E/DX2                !
 ! R59   R(31,58)                1.1652         estimate D2E/DX2                !
 ! R60   R(32,33)                1.4676         estimate D2E/DX2                !
 ! R61   R(32,34)                1.4839         estimate D2E/DX2                !
 ! R62   R(33,59)                1.0958         estimate D2E/DX2                !
 ! R63   R(33,60)                1.0958         estimate D2E/DX2                !
 ! R64   R(33,61)                1.0962         estimate D2E/DX2                !
 ! R65   R(34,35)                1.5518         estimate D2E/DX2                !
 ! R66   R(34,62)                1.1455         estimate D2E/DX2                !
 ! R67   R(34,63)                1.4793         estimate D2E/DX2                !
 ! R68   R(35,64)                1.5804         estimate D2E/DX2                !
 ! R69   R(35,65)                1.1251         estimate D2E/DX2                !
 ! R70   R(37,66)                1.0991         estimate D2E/DX2                !
 ! R71   R(37,67)                1.0992         estimate D2E/DX2                !
 ! R72   R(37,68)                1.0988         estimate D2E/DX2                !
 ! A1    A(2,1,6)              118.2435         estimate D2E/DX2                !
 ! A2    A(2,1,38)             121.1821         estimate D2E/DX2                !
 ! A3    A(6,1,38)             120.5725         estimate D2E/DX2                !
 ! A4    A(1,2,3)              119.3913         estimate D2E/DX2                !
 ! A5    A(1,2,39)             119.8209         estimate D2E/DX2                !
 ! A6    A(3,2,39)             120.7685         estimate D2E/DX2                !
 ! A7    A(2,3,4)              117.1624         estimate D2E/DX2                !
 ! A8    A(2,3,7)              122.8279         estimate D2E/DX2                !
 ! A9    A(4,3,7)              119.9916         estimate D2E/DX2                !
 ! A10   A(3,4,5)              124.062          estimate D2E/DX2                !
 ! A11   A(3,4,40)             119.7955         estimate D2E/DX2                !
 ! A12   A(5,4,40)             116.1355         estimate D2E/DX2                !
 ! A13   A(4,5,6)              117.6124         estimate D2E/DX2                !
 ! A14   A(1,6,5)              123.5155         estimate D2E/DX2                !
 ! A15   A(1,6,41)             120.6827         estimate D2E/DX2                !
 ! A16   A(5,6,41)             115.8017         estimate D2E/DX2                !
 ! A17   A(3,7,8)              126.0975         estimate D2E/DX2                !
 ! A18   A(3,7,12)             112.7457         estimate D2E/DX2                !
 ! A19   A(8,7,12)             121.1541         estimate D2E/DX2                !
 ! A20   A(7,8,9)              114.9074         estimate D2E/DX2                !
 ! A21   A(7,8,42)             123.422          estimate D2E/DX2                !
 ! A22   A(9,8,42)             121.6683         estimate D2E/DX2                !
 ! A23   A(8,9,10)             124.5116         estimate D2E/DX2                !
 ! A24   A(8,9,43)             120.1755         estimate D2E/DX2                !
 ! A25   A(10,9,43)            115.3128         estimate D2E/DX2                !
 ! A26   A(9,10,11)            115.9615         estimate D2E/DX2                !
 ! A27   A(10,11,12)           124.1841         estimate D2E/DX2                !
 ! A28   A(10,11,13)           116.3838         estimate D2E/DX2                !
 ! A29   A(12,11,13)           119.4317         estimate D2E/DX2                !
 ! A30   A(7,12,11)            119.2739         estimate D2E/DX2                !
 ! A31   A(11,13,14)           132.6418         estimate D2E/DX2                !
 ! A32   A(11,13,44)           109.878          estimate D2E/DX2                !
 ! A33   A(14,13,44)           117.2109         estimate D2E/DX2                !
 ! A34   A(13,14,15)           119.5194         estimate D2E/DX2                !
 ! A35   A(13,14,19)           121.6623         estimate D2E/DX2                !
 ! A36   A(15,14,19)           118.8183         estimate D2E/DX2                !
 ! A37   A(14,15,16)           117.166          estimate D2E/DX2                !
 ! A38   A(14,15,37)           123.3928         estimate D2E/DX2                !
 ! A39   A(16,15,37)           119.441          estimate D2E/DX2                !
 ! A40   A(15,16,17)           123.9822         estimate D2E/DX2                !
 ! A41   A(15,16,45)           119.173          estimate D2E/DX2                !
 ! A42   A(17,16,45)           116.8384         estimate D2E/DX2                !
 ! A43   A(16,17,18)           118.1266         estimate D2E/DX2                !
 ! A44   A(16,17,46)           121.667          estimate D2E/DX2                !
 ! A45   A(18,17,46)           120.2011         estimate D2E/DX2                !
 ! A46   A(17,18,19)           119.2714         estimate D2E/DX2                !
 ! A47   A(17,18,20)           126.1781         estimate D2E/DX2                !
 ! A48   A(19,18,20)           114.535          estimate D2E/DX2                !
 ! A49   A(14,19,18)           122.6144         estimate D2E/DX2                !
 ! A50   A(14,19,47)           118.1925         estimate D2E/DX2                !
 ! A51   A(18,19,47)           119.1646         estimate D2E/DX2                !
 ! A52   A(18,20,21)           131.6447         estimate D2E/DX2                !
 ! A53   A(18,20,48)           113.6687         estimate D2E/DX2                !
 ! A54   A(21,20,48)           114.5083         estimate D2E/DX2                !
 ! A55   A(20,21,22)           116.7188         estimate D2E/DX2                !
 ! A56   A(20,21,36)           122.9052         estimate D2E/DX2                !
 ! A57   A(22,21,36)           120.3679         estimate D2E/DX2                !
 ! A58   A(21,22,23)           122.771          estimate D2E/DX2                !
 ! A59   A(21,22,27)           118.4251         estimate D2E/DX2                !
 ! A60   A(23,22,27)           118.8031         estimate D2E/DX2                !
 ! A61   A(22,23,24)           120.4446         estimate D2E/DX2                !
 ! A62   A(22,23,49)           119.6262         estimate D2E/DX2                !
 ! A63   A(24,23,49)           119.9289         estimate D2E/DX2                !
 ! A64   A(23,24,25)           121.3481         estimate D2E/DX2                !
 ! A65   A(23,24,50)           118.5608         estimate D2E/DX2                !
 ! A66   A(25,24,50)           120.0869         estimate D2E/DX2                !
 ! A67   A(24,25,26)           117.5664         estimate D2E/DX2                !
 ! A68   A(24,25,28)           121.131          estimate D2E/DX2                !
 ! A69   A(26,25,28)           121.248          estimate D2E/DX2                !
 ! A70   A(25,26,27)           121.4788         estimate D2E/DX2                !
 ! A71   A(25,26,51)           120.001          estimate D2E/DX2                !
 ! A72   A(27,26,51)           118.5187         estimate D2E/DX2                !
 ! A73   A(22,27,26)           120.252          estimate D2E/DX2                !
 ! A74   A(22,27,52)           118.5771         estimate D2E/DX2                !
 ! A75   A(26,27,52)           121.1451         estimate D2E/DX2                !
 ! A76   A(25,28,29)           118.8401         estimate D2E/DX2                !
 ! A77   A(25,28,53)           108.5565         estimate D2E/DX2                !
 ! A78   A(25,28,54)           108.4607         estimate D2E/DX2                !
 ! A79   A(29,28,53)           107.0344         estimate D2E/DX2                !
 ! A80   A(29,28,54)           106.6985         estimate D2E/DX2                !
 ! A81   A(53,28,54)           106.6371         estimate D2E/DX2                !
 ! A82   A(28,29,30)           119.0494         estimate D2E/DX2                !
 ! A83   A(28,29,35)           118.5933         estimate D2E/DX2                !
 ! A84   A(30,29,35)           110.3455         estimate D2E/DX2                !
 ! A85   A(29,30,31)           114.7163         estimate D2E/DX2                !
 ! A86   A(29,30,55)           110.8555         estimate D2E/DX2                !
 ! A87   A(29,30,56)           106.4197         estimate D2E/DX2                !
 ! A88   A(31,30,55)           112.8126         estimate D2E/DX2                !
 ! A89   A(31,30,56)           105.0152         estimate D2E/DX2                !
 ! A90   A(55,30,56)           106.2688         estimate D2E/DX2                !
 ! A91   A(30,31,32)           114.1383         estimate D2E/DX2                !
 ! A92   A(30,31,57)           106.9197         estimate D2E/DX2                !
 ! A93   A(30,31,58)           111.243          estimate D2E/DX2                !
 ! A94   A(32,31,57)           108.463          estimate D2E/DX2                !
 ! A95   A(32,31,58)           107.9187         estimate D2E/DX2                !
 ! A96   A(57,31,58)           107.9653         estimate D2E/DX2                !
 ! A97   A(31,32,33)           116.7487         estimate D2E/DX2                !
 ! A98   A(31,32,34)           108.9691         estimate D2E/DX2                !
 ! A99   A(33,32,34)           116.273          estimate D2E/DX2                !
 ! A100  A(32,33,59)           111.0692         estimate D2E/DX2                !
 ! A101  A(32,33,60)           110.1965         estimate D2E/DX2                !
 ! A102  A(32,33,61)           110.1325         estimate D2E/DX2                !
 ! A103  A(59,33,60)           108.8399         estimate D2E/DX2                !
 ! A104  A(59,33,61)           108.7574         estimate D2E/DX2                !
 ! A105  A(60,33,61)           107.7654         estimate D2E/DX2                !
 ! A106  A(32,34,35)           114.4468         estimate D2E/DX2                !
 ! A107  A(32,34,62)           109.451          estimate D2E/DX2                !
 ! A108  A(32,34,63)           106.7252         estimate D2E/DX2                !
 ! A109  A(35,34,62)           111.2046         estimate D2E/DX2                !
 ! A110  A(35,34,63)           107.311          estimate D2E/DX2                !
 ! A111  A(62,34,63)           107.3453         estimate D2E/DX2                !
 ! A112  A(29,35,34)           115.1499         estimate D2E/DX2                !
 ! A113  A(29,35,64)           106.9658         estimate D2E/DX2                !
 ! A114  A(29,35,65)           110.4374         estimate D2E/DX2                !
 ! A115  A(34,35,64)           105.3472         estimate D2E/DX2                !
 ! A116  A(34,35,65)           111.6093         estimate D2E/DX2                !
 ! A117  A(64,35,65)           106.7489         estimate D2E/DX2                !
 ! A118  A(15,37,66)           111.3651         estimate D2E/DX2                !
 ! A119  A(15,37,67)           111.4993         estimate D2E/DX2                !
 ! A120  A(15,37,68)           112.9513         estimate D2E/DX2                !
 ! A121  A(66,37,67)           107.5194         estimate D2E/DX2                !
 ! A122  A(66,37,68)           106.6555         estimate D2E/DX2                !
 ! A123  A(67,37,68)           106.516          estimate D2E/DX2                !
 ! D1    D(6,1,2,3)             -0.9701         estimate D2E/DX2                !
 ! D2    D(6,1,2,39)          -179.3823         estimate D2E/DX2                !
 ! D3    D(38,1,2,3)           178.5395         estimate D2E/DX2                !
 ! D4    D(38,1,2,39)            0.1273         estimate D2E/DX2                !
 ! D5    D(2,1,6,5)              0.2311         estimate D2E/DX2                !
 ! D6    D(2,1,6,41)          -179.8875         estimate D2E/DX2                !
 ! D7    D(38,1,6,5)          -179.2816         estimate D2E/DX2                !
 ! D8    D(38,1,6,41)            0.5998         estimate D2E/DX2                !
 ! D9    D(1,2,3,4)              1.3674         estimate D2E/DX2                !
 ! D10   D(1,2,3,7)           -177.0792         estimate D2E/DX2                !
 ! D11   D(39,2,3,4)           179.7643         estimate D2E/DX2                !
 ! D12   D(39,2,3,7)             1.3176         estimate D2E/DX2                !
 ! D13   D(2,3,4,5)             -1.1153         estimate D2E/DX2                !
 ! D14   D(2,3,4,40)           179.8873         estimate D2E/DX2                !
 ! D15   D(7,3,4,5)            177.3777         estimate D2E/DX2                !
 ! D16   D(7,3,4,40)            -1.6198         estimate D2E/DX2                !
 ! D17   D(2,3,7,8)            -77.2607         estimate D2E/DX2                !
 ! D18   D(2,3,7,12)           102.141          estimate D2E/DX2                !
 ! D19   D(4,3,7,8)            104.3351         estimate D2E/DX2                !
 ! D20   D(4,3,7,12)           -76.2633         estimate D2E/DX2                !
 ! D21   D(3,4,5,6)              0.3921         estimate D2E/DX2                !
 ! D22   D(40,4,5,6)           179.4229         estimate D2E/DX2                !
 ! D23   D(4,5,6,1)              0.0697         estimate D2E/DX2                !
 ! D24   D(4,5,6,41)          -179.817          estimate D2E/DX2                !
 ! D25   D(3,7,8,9)            178.3938         estimate D2E/DX2                !
 ! D26   D(3,7,8,42)            -1.0734         estimate D2E/DX2                !
 ! D27   D(12,7,8,9)            -0.9614         estimate D2E/DX2                !
 ! D28   D(12,7,8,42)          179.5715         estimate D2E/DX2                !
 ! D29   D(3,7,12,11)         -178.5762         estimate D2E/DX2                !
 ! D30   D(8,7,12,11)            0.8589         estimate D2E/DX2                !
 ! D31   D(7,8,9,10)             0.4055         estimate D2E/DX2                !
 ! D32   D(7,8,9,43)          -179.4614         estimate D2E/DX2                !
 ! D33   D(42,8,9,10)          179.8829         estimate D2E/DX2                !
 ! D34   D(42,8,9,43)            0.016          estimate D2E/DX2                !
 ! D35   D(8,9,10,11)            0.2456         estimate D2E/DX2                !
 ! D36   D(43,9,10,11)        -179.8817         estimate D2E/DX2                !
 ! D37   D(9,10,11,12)          -0.4025         estimate D2E/DX2                !
 ! D38   D(9,10,11,13)         179.8095         estimate D2E/DX2                !
 ! D39   D(10,11,12,7)          -0.1419         estimate D2E/DX2                !
 ! D40   D(13,11,12,7)         179.6401         estimate D2E/DX2                !
 ! D41   D(10,11,13,14)       -175.8555         estimate D2E/DX2                !
 ! D42   D(10,11,13,44)         -2.154          estimate D2E/DX2                !
 ! D43   D(12,11,13,14)          4.3459         estimate D2E/DX2                !
 ! D44   D(12,11,13,44)        178.0474         estimate D2E/DX2                !
 ! D45   D(11,13,14,15)        163.1848         estimate D2E/DX2                !
 ! D46   D(11,13,14,19)        -16.7223         estimate D2E/DX2                !
 ! D47   D(44,13,14,15)        -10.1532         estimate D2E/DX2                !
 ! D48   D(44,13,14,19)        169.9397         estimate D2E/DX2                !
 ! D49   D(13,14,15,16)        179.9942         estimate D2E/DX2                !
 ! D50   D(13,14,15,37)         -0.1673         estimate D2E/DX2                !
 ! D51   D(19,14,15,16)         -0.096          estimate D2E/DX2                !
 ! D52   D(19,14,15,37)        179.7425         estimate D2E/DX2                !
 ! D53   D(13,14,19,18)        178.7274         estimate D2E/DX2                !
 ! D54   D(13,14,19,47)          0.686          estimate D2E/DX2                !
 ! D55   D(15,14,19,18)         -1.1804         estimate D2E/DX2                !
 ! D56   D(15,14,19,47)       -179.2217         estimate D2E/DX2                !
 ! D57   D(14,15,16,17)          1.1712         estimate D2E/DX2                !
 ! D58   D(14,15,16,45)       -179.7813         estimate D2E/DX2                !
 ! D59   D(37,15,16,17)       -178.674          estimate D2E/DX2                !
 ! D60   D(37,15,16,45)          0.3734         estimate D2E/DX2                !
 ! D61   D(14,15,37,66)         63.5999         estimate D2E/DX2                !
 ! D62   D(14,15,37,67)        -56.4996         estimate D2E/DX2                !
 ! D63   D(14,15,37,68)       -176.4079         estimate D2E/DX2                !
 ! D64   D(16,15,37,66)       -116.5651         estimate D2E/DX2                !
 ! D65   D(16,15,37,67)        123.3355         estimate D2E/DX2                !
 ! D66   D(16,15,37,68)          3.4272         estimate D2E/DX2                !
 ! D67   D(15,16,17,18)         -0.9534         estimate D2E/DX2                !
 ! D68   D(15,16,17,46)        178.208          estimate D2E/DX2                !
 ! D69   D(45,16,17,18)        179.9787         estimate D2E/DX2                !
 ! D70   D(45,16,17,46)         -0.8599         estimate D2E/DX2                !
 ! D71   D(16,17,18,19)         -0.3482         estimate D2E/DX2                !
 ! D72   D(16,17,18,20)        178.1344         estimate D2E/DX2                !
 ! D73   D(46,17,18,19)       -179.5224         estimate D2E/DX2                !
 ! D74   D(46,17,18,20)         -1.0397         estimate D2E/DX2                !
 ! D75   D(17,18,19,14)          1.4179         estimate D2E/DX2                !
 ! D76   D(17,18,19,47)        179.441          estimate D2E/DX2                !
 ! D77   D(20,18,19,14)       -177.2358         estimate D2E/DX2                !
 ! D78   D(20,18,19,47)          0.7873         estimate D2E/DX2                !
 ! D79   D(17,18,20,21)         -8.1438         estimate D2E/DX2                !
 ! D80   D(17,18,20,48)        177.0675         estimate D2E/DX2                !
 ! D81   D(19,18,20,21)        170.4013         estimate D2E/DX2                !
 ! D82   D(19,18,20,48)         -4.3875         estimate D2E/DX2                !
 ! D83   D(18,20,21,22)       -168.0085         estimate D2E/DX2                !
 ! D84   D(18,20,21,36)         13.0262         estimate D2E/DX2                !
 ! D85   D(48,20,21,22)          6.7458         estimate D2E/DX2                !
 ! D86   D(48,20,21,36)       -172.2194         estimate D2E/DX2                !
 ! D87   D(20,21,22,23)         35.852          estimate D2E/DX2                !
 ! D88   D(20,21,22,27)       -144.4819         estimate D2E/DX2                !
 ! D89   D(36,21,22,23)       -145.1549         estimate D2E/DX2                !
 ! D90   D(36,21,22,27)         34.5112         estimate D2E/DX2                !
 ! D91   D(21,22,23,24)       -177.4959         estimate D2E/DX2                !
 ! D92   D(21,22,23,49)          2.7081         estimate D2E/DX2                !
 ! D93   D(27,22,23,24)          2.8392         estimate D2E/DX2                !
 ! D94   D(27,22,23,49)       -176.9567         estimate D2E/DX2                !
 ! D95   D(21,22,27,26)        176.3873         estimate D2E/DX2                !
 ! D96   D(21,22,27,52)         -1.7876         estimate D2E/DX2                !
 ! D97   D(23,22,27,26)         -3.9331         estimate D2E/DX2                !
 ! D98   D(23,22,27,52)        177.892          estimate D2E/DX2                !
 ! D99   D(22,23,24,25)         -0.176          estimate D2E/DX2                !
 ! D100  D(22,23,24,50)        179.0707         estimate D2E/DX2                !
 ! D101  D(49,23,24,25)        179.6194         estimate D2E/DX2                !
 ! D102  D(49,23,24,50)         -1.1339         estimate D2E/DX2                !
 ! D103  D(23,24,25,26)         -1.3834         estimate D2E/DX2                !
 ! D104  D(23,24,25,28)        175.9633         estimate D2E/DX2                !
 ! D105  D(50,24,25,26)        179.3812         estimate D2E/DX2                !
 ! D106  D(50,24,25,28)         -3.2721         estimate D2E/DX2                !
 ! D107  D(24,25,26,27)          0.2676         estimate D2E/DX2                !
 ! D108  D(24,25,26,51)        179.8286         estimate D2E/DX2                !
 ! D109  D(28,25,26,27)       -177.0759         estimate D2E/DX2                !
 ! D110  D(28,25,26,51)          2.4851         estimate D2E/DX2                !
 ! D111  D(24,25,28,29)        -82.8353         estimate D2E/DX2                !
 ! D112  D(24,25,28,53)         39.6865         estimate D2E/DX2                !
 ! D113  D(24,25,28,54)        155.1832         estimate D2E/DX2                !
 ! D114  D(26,25,28,29)         94.4134         estimate D2E/DX2                !
 ! D115  D(26,25,28,53)       -143.0648         estimate D2E/DX2                !
 ! D116  D(26,25,28,54)        -27.5681         estimate D2E/DX2                !
 ! D117  D(25,26,27,22)          2.4137         estimate D2E/DX2                !
 ! D118  D(25,26,27,52)       -179.459          estimate D2E/DX2                !
 ! D119  D(51,26,27,22)       -177.1536         estimate D2E/DX2                !
 ! D120  D(51,26,27,52)          0.9737         estimate D2E/DX2                !
 ! D121  D(25,28,29,30)         74.6677         estimate D2E/DX2                !
 ! D122  D(25,28,29,35)        -64.4194         estimate D2E/DX2                !
 ! D123  D(53,28,29,30)        -48.6094         estimate D2E/DX2                !
 ! D124  D(53,28,29,35)        172.3036         estimate D2E/DX2                !
 ! D125  D(54,28,29,30)       -162.4717         estimate D2E/DX2                !
 ! D126  D(54,28,29,35)         58.4412         estimate D2E/DX2                !
 ! D127  D(28,29,30,31)        -94.4323         estimate D2E/DX2                !
 ! D128  D(28,29,30,55)         34.7733         estimate D2E/DX2                !
 ! D129  D(28,29,30,56)        149.9114         estimate D2E/DX2                !
 ! D130  D(35,29,30,31)         47.7392         estimate D2E/DX2                !
 ! D131  D(35,29,30,55)        176.9448         estimate D2E/DX2                !
 ! D132  D(35,29,30,56)        -67.9171         estimate D2E/DX2                !
 ! D133  D(28,29,35,34)         95.6297         estimate D2E/DX2                !
 ! D134  D(28,29,35,64)       -147.6956         estimate D2E/DX2                !
 ! D135  D(28,29,35,65)        -31.8968         estimate D2E/DX2                !
 ! D136  D(30,29,35,34)        -46.736          estimate D2E/DX2                !
 ! D137  D(30,29,35,64)         69.9387         estimate D2E/DX2                !
 ! D138  D(30,29,35,65)       -174.2625         estimate D2E/DX2                !
 ! D139  D(29,30,31,32)        -52.9579         estimate D2E/DX2                !
 ! D140  D(29,30,31,57)       -172.8956         estimate D2E/DX2                !
 ! D141  D(29,30,31,58)         69.449          estimate D2E/DX2                !
 ! D142  D(55,30,31,32)        178.8148         estimate D2E/DX2                !
 ! D143  D(55,30,31,57)         58.8771         estimate D2E/DX2                !
 ! D144  D(55,30,31,58)        -58.7783         estimate D2E/DX2                !
 ! D145  D(56,30,31,32)         63.5068         estimate D2E/DX2                !
 ! D146  D(56,30,31,57)        -56.4309         estimate D2E/DX2                !
 ! D147  D(56,30,31,58)       -174.0863         estimate D2E/DX2                !
 ! D148  D(30,31,32,33)        -82.1552         estimate D2E/DX2                !
 ! D149  D(30,31,32,34)         52.0634         estimate D2E/DX2                !
 ! D150  D(57,31,32,33)         36.9124         estimate D2E/DX2                !
 ! D151  D(57,31,32,34)        171.1311         estimate D2E/DX2                !
 ! D152  D(58,31,32,33)        153.6379         estimate D2E/DX2                !
 ! D153  D(58,31,32,34)        -72.1435         estimate D2E/DX2                !
 ! D154  D(31,32,33,59)         65.5082         estimate D2E/DX2                !
 ! D155  D(31,32,33,60)        -55.1856         estimate D2E/DX2                !
 ! D156  D(31,32,33,61)       -173.9442         estimate D2E/DX2                !
 ! D157  D(34,32,33,59)        -65.3925         estimate D2E/DX2                !
 ! D158  D(34,32,33,60)        173.9137         estimate D2E/DX2                !
 ! D159  D(34,32,33,61)         55.1551         estimate D2E/DX2                !
 ! D160  D(31,32,34,35)        -50.9856         estimate D2E/DX2                !
 ! D161  D(31,32,34,62)       -176.5712         estimate D2E/DX2                !
 ! D162  D(31,32,34,63)         67.5632         estimate D2E/DX2                !
 ! D163  D(33,32,34,35)         83.4759         estimate D2E/DX2                !
 ! D164  D(33,32,34,62)        -42.1097         estimate D2E/DX2                !
 ! D165  D(33,32,34,63)       -157.9754         estimate D2E/DX2                !
 ! D166  D(32,34,35,29)         50.7239         estimate D2E/DX2                !
 ! D167  D(32,34,35,64)        -66.8659         estimate D2E/DX2                !
 ! D168  D(32,34,35,65)        177.6576         estimate D2E/DX2                !
 ! D169  D(62,34,35,29)        175.3859         estimate D2E/DX2                !
 ! D170  D(62,34,35,64)         57.7961         estimate D2E/DX2                !
 ! D171  D(62,34,35,65)        -57.6805         estimate D2E/DX2                !
 ! D172  D(63,34,35,29)        -67.493          estimate D2E/DX2                !
 ! D173  D(63,34,35,64)        174.9172         estimate D2E/DX2                !
 ! D174  D(63,34,35,65)         59.4406         estimate D2E/DX2                !
 --------------------------------------------------------------------------------
 Trust Radius=3.00D-01 FncErr=1.00D-07 GrdErr=1.00D-06
 Number of steps in this run= 400 maximum allowed number of steps= 408.
 GradGradGradGradGradGradGradGradGradGradGradGradGradGradGradGradGradGrad

 Leave Link  103 at Wed Mar 25 12:57:41 2020, MaxMem= 2684354560 cpu:       0.1
 (Enter /opt/g09gh/gaussian/g09/l202.exe)
 Stoichiometry    C29H31N7O
 Framework group  C1[X(C29H31N7O)]
 Deg. of freedom   198
 Full point group                 C1      NOp   1
 Largest Abelian subgroup         C1      NOp   1
 Largest concise Abelian subgroup C1      NOp   1
                         Standard orientation:                         
 ---------------------------------------------------------------------
 Center     Atomic      Atomic             Coordinates (Angstroms)
 Number     Number       Type             X           Y           Z
 ---------------------------------------------------------------------
      1          6           0        0.587538   -3.554438   -0.117466
      2          6           0       -0.750029   -3.490319    0.293246
      3          6           0       -1.725826   -3.027344   -0.605363
      4          6           0       -1.292632   -2.675822   -1.902543
      5          7           0       -0.018065   -2.738007   -2.310571
      6          6           0        0.897681   -3.169510   -1.428059
      7          6           0       -3.162170   -2.867570   -0.229131
      8          6           0       -4.101886   -3.896236   -0.109646
      9          6           0       -5.378850   -3.484817    0.291858
     10          7           0       -5.720640   -2.221930    0.543574
     11          6           0       -4.744074   -1.302346    0.385528
     12          7           0       -3.496699   -1.590566    0.010469
     13          7           0       -5.091184    0.014723    0.641126
     14          6           0       -4.369429    1.259621    0.512667
     15          6           0       -5.089067    2.492828    0.508253
     16          6           0       -4.337579    3.674037    0.380785
     17          6           0       -2.945169    3.704009    0.236228
     18          6           0       -2.255904    2.487273    0.237590
     19          6           0       -2.974845    1.291436    0.389610
     20          7           0       -0.846757    2.315173    0.065440
     21          6           0        0.145839    3.200566   -0.278979
     22          6           0        1.494021    2.606939   -0.639924
     23          6           0        1.629271    1.390045   -1.329854
     24          6           0        2.894887    0.862190   -1.591677
     25          6           0        4.064904    1.527188   -1.180305
     26          6           0        3.914746    2.762133   -0.519529
     27          6           0        2.653086    3.309202   -0.273561
     28          6           0        5.444722    0.901358   -1.388326
     29          7           0        5.934806   -0.082439   -0.405820
     30          6           0        5.366211   -1.448763   -0.412074
     31          6           0        4.189213   -1.665460    0.572976
     32          7           0        4.486660   -1.268719    1.968940
     33          6           0        5.213785   -2.242477    2.791729
     34          6           0        5.012839    0.118785    1.974380
     35          6           0        6.181652    0.366278    0.984029
     36          8           0       -0.016988    4.410225   -0.283766
     37          6           0       -6.600660    2.579059    0.629345
     38          1           0        1.368414   -3.885252    0.560316
     39          1           0       -1.018298   -3.773596    1.308746
     40          1           0       -2.012861   -2.313820   -2.633590
     41          1           0        1.924228   -3.205446   -1.789563
     42          1           0       -3.873724   -4.938306   -0.300616
     43          1           0       -6.174941   -4.217387    0.420686
     44          1           0       -6.069615    0.071308    0.880856
     45          1           0       -4.853260    4.633787    0.377203
     46          1           0       -2.406133    4.635601    0.112204
     47          1           0       -2.441717    0.352022    0.381285
     48          1           0       -0.542535    1.354927    0.145904
     49          1           0        0.740311    0.859617   -1.663875
     50          1           0        2.963720   -0.091355   -2.115567
     51          1           0        4.794183    3.309644   -0.181348
     52          1           0        2.543777    4.266910    0.229164
     53          1           0        5.461468    0.409954   -2.372197
     54          1           0        6.190796    1.708184   -1.426663
     55          1           0        5.138207   -1.757081   -1.397395
     56          1           0        6.514693   -2.414641    0.101166
     57          1           0        3.871685   -3.113279    0.553925
     58          1           0        3.239185   -1.084633    0.229903
     59          1           0        6.227445   -2.403542    2.407957
     60          1           0        4.682676   -3.200950    2.801570
     61          1           0        5.280990   -1.886704    3.826360
     62          1           0        5.305723    0.411491    3.042419
     63          1           0        3.896240    0.999130    1.566306
     64          1           0        7.388075   -0.491253    1.538106
     65          1           0        6.514915    1.440831    0.996612
     66          1           0       -6.947191    2.195510    1.599349
     67          1           0       -7.101637    1.994942   -0.155524
     68          1           0       -6.979419    3.606897    0.543607
 ---------------------------------------------------------------------
 Rotational constants (GHZ):      0.1368060      0.0611239      0.0467176
 Leave Link  202 at Wed Mar 25 12:57:41 2020, MaxMem= 2684354560 cpu:       0.1
 (Enter /opt/g09gh/gaussian/g09/l301.exe)
 Standard basis: 6-31G(d) (6D, 7F)
 Ernie: Thresh=  0.10000D-02 Tol=  0.10000D-05 Strict=F.
 There are   617 symmetry adapted basis functions of A   symmetry.
 Integral buffers will be    131072 words long.
 Raffenetti 2 integral format.
 Two-electron integral symmetry is turned on.
   617 basis functions,  1160 primitive gaussians,   617 cartesian basis functions
   131 alpha electrons      131 beta electrons
       nuclear repulsion energy      3795.6267772177 Hartrees.
 IExCor= 4639 DFT=T Ex+Corr=wB97XD ExCW=0 ScaHFX=  1.000000
 ScaDFX=  1.000000  1.000000  1.000000  1.000000 ScalE2=  1.000000  1.000000
 IRadAn=      0 IRanWt=     -1 IRanGd=            0 ICorTp=0
  HFx wShort=  0.000000 wLong=  0.200000 cFull=  0.222036 cShort=  0.000000 cLong=  0.777964
  DFx wShort=  0.000000 wLong=  0.200000 cFull=  0.000000 cShort=  0.000000 cLong=  1.000000
 NAtoms=   68 NActive=   68 NUniq=   68 SFac= 7.50D-01 NAtFMM=   80 NAOKFM=F Big=T
 R6Disp: Dispersion energy =        -0.0581295859 Hartrees.
 Nuclear repulsion after empirical dispersion term =     3795.5686476319 Hartrees.
 Leave Link  301 at Wed Mar 25 12:57:41 2020, MaxMem= 2684354560 cpu:       0.3
 (Enter /opt/g09gh/gaussian/g09/l302.exe)
 NPDir=0 NMtPBC=     1 NCelOv=     1 NCel=       1 NClECP=     1 NCelD=      1
         NCelK=      1 NCelE2=     1 NClLst=     1 CellRange=     0.0.
 One-electron integrals computed using PRISM.
 NBasis=   617 RedAO= T  NBF=   617
 NBsUse=   617 1.00D-06 NBFU=   617
 Precomputing XC quadrature grid using
 IXCGrd= 2 IRadAn=           0 IRanWt=          -1 IRanGd=           0 AccXCQ= 1.00D-10.
 NRdTot=    4372 NPtTot=      558940 NUsed=      590441 NTot=      590473
 NSgBfM=   602   602   602   602   602 NAtAll=    68    68.
 Leave Link  302 at Wed Mar 25 12:57:43 2020, MaxMem= 2684354560 cpu:       7.7
 (Enter /opt/g09gh/gaussian/g09/l303.exe)
 DipDrv:  MaxL=1.
 Leave Link  303 at Wed Mar 25 12:57:43 2020, MaxMem= 2684354560 cpu:       0.8
 (Enter /opt/g09gh/gaussian/g09/l401.exe)
 Harris functional with IExCor= 4639 diagonalized for initial guess.
 ExpMin= 1.61D-01 ExpMax= 5.48D+03 ExpMxC= 8.25D+02 IAcc=1 IRadAn=         1 AccDes= 0.00D+00
 HarFok:  IExCor= 4639 AccDes= 0.00D+00 IRadAn=         1 IDoV= 1
 ScaDFX=  1.000000  1.000000  1.000000  1.000000
 FoFCou: FMM=F IPFlag=           0 FMFlag=      100000 FMFlg1=           1
         NFxFlg=           0 DoJE=T BraDBF=F KetDBF=T FulRan=T
         Omega=  0.000000  0.000000  1.000000  0.000000  0.000000 ICntrl=     500 IOpCl=  0
         NMat0=    1 NMatS0=    1 NMatT0=    0 NMatD0=    1 NMtDS0=    0 NMtDT0=    0
         I1Cent=           4 NGrid=           0.
 Petite list used in FoFCou.
 Harris En= -1512.39780602174    
 Initial guess orbital symmetries:
       Occupied  (A) (A) (A) (A) (A) (A) (A) (A) (A) (A) (A) (A)
                 (A) (A) (A) (A) (A) (A) (A) (A) (A) (A) (A) (A)
                 (A) (A) (A) (A) (A) (A) (A) (A) (A) (A) (A) (A)
                 (A) (A) (A) (A) (A) (A) (A) (A) (A) (A) (A) (A)
                 (A) (A) (A) (A) (A) (A) (A) (A) (A) (A) (A) (A)
                 (A) (A) (A) (A) (A) (A) (A) (A) (A) (A) (A) (A)
                 (A) (A) (A) (A) (A) (A) (A) (A) (A) (A) (A) (A)
                 (A) (A) (A) (A) (A) (A) (A) (A) (A) (A) (A) (A)
                 (A) (A) (A) (A) (A) (A) (A) (A) (A) (A) (A) (A)
                 (A) (A) (A) (A) (A) (A) (A) (A) (A) (A) (A) (A)
                 (A) (A) (A) (A) (A) (A) (A) (A) (A) (A) (A)
       Virtual   (A) (A) (A) (A) (A) (A) (A) (A) (A) (A) (A) (A)
                 (A) (A) (A) (A) (A) (A) (A) (A) (A) (A) (A) (A)
                 (A) (A) (A) (A) (A) (A) (A) (A) (A) (A) (A) (A)
                 (A) (A) (A) (A) (A) (A) (A) (A) (A) (A) (A) (A)
                 (A) (A) (A) (A) (A) (A) (A) (A) (A) (A) (A) (A)
                 (A) (A) (A) (A) (A) (A) (A) (A) (A) (A) (A) (A)
                 (A) (A) (A) (A) (A) (A) (A) (A) (A) (A) (A) (A)
                 (A) (A) (A) (A) (A) (A) (A) (A) (A) (A) (A) (A)
                 (A) (A) (A) (A) (A) (A) (A) (A) (A) (A) (A) (A)
                 (A) (A) (A) (A) (A) (A) (A) (A) (A) (A) (A) (A)
                 (A) (A) (A) (A) (A) (A) (A) (A) (A) (A) (A) (A)
                 (A) (A) (A) (A) (A) (A) (A) (A) (A) (A) (A) (A)
                 (A) (A) (A) (A) (A) (A) (A) (A) (A) (A) (A) (A)
                 (A) (A) (A) (A) (A) (A) (A) (A) (A) (A) (A) (A)
                 (A) (A) (A) (A) (A) (A) (A) (A) (A) (A) (A) (A)
                 (A) (A) (A) (A) (A) (A) (A) (A) (A) (A) (A) (A)
                 (A) (A) (A) (A) (A) (A) (A) (A) (A) (A) (A) (A)
                 (A) (A) (A) (A) (A) (A) (A) (A) (A) (A) (A) (A)
                 (A) (A) (A) (A) (A) (A) (A) (A) (A) (A) (A) (A)
                 (A) (A) (A) (A) (A) (A) (A) (A) (A) (A) (A) (A)
                 (A) (A) (A) (A) (A) (A) (A) (A) (A) (A) (A) (A)
                 (A) (A) (A) (A) (A) (A) (A) (A) (A) (A) (A) (A)
                 (A) (A) (A) (A) (A) (A) (A) (A) (A) (A) (A) (A)
                 (A) (A) (A) (A) (A) (A) (A) (A) (A) (A) (A) (A)
                 (A) (A) (A) (A) (A) (A) (A) (A) (A) (A) (A) (A)
                 (A) (A) (A) (A) (A) (A) (A) (A) (A) (A) (A) (A)
                 (A) (A) (A) (A) (A) (A) (A) (A) (A) (A) (A) (A)
                 (A) (A) (A) (A) (A) (A) (A) (A) (A) (A) (A) (A)
                 (A) (A) (A) (A) (A) (A) (A) (A) (A) (A) (A) (A)
                 (A) (A) (A) (A) (A) (A) (A) (A) (A) (A) (A) (A)
                 (A) (A) (A) (A) (A) (A) (A) (A) (A) (A) (A) (A)
                 (A) (A) (A) (A) (A) (A) (A) (A) (A) (A) (A) (A)
                 (A) (A) (A) (A) (A) (A) (A) (A) (A) (A) (A) (A)
                 (A) (A) (A) (A) (A) (A) (A) (A) (A) (A) (A) (A)
                 (A) (A) (A) (A) (A) (A) (A) (A) (A) (A) (A) (A)
                 (A) (A) (A) (A) (A) (A) (A) (A) (A) (A) (A) (A)
                 (A) (A) (A) (A) (A) (A) (A) (A) (A) (A) (A) (A)
                 (A) (A) (A) (A) (A) (A) (A) (A) (A) (A) (A) (A)
                 (A) (A) (A) (A) (A) (A) (A) (A) (A) (A) (A) (A)
                 (A) (A) (A) (A) (A) (A) (A) (A) (A) (A) (A) (A)
                 (A) (A) (A) (A) (A) (A)
 The electronic state of the initial guess is 1-A.
 Leave Link  401 at Wed Mar 25 12:57:46 2020, MaxMem= 2684354560 cpu:      15.5
 (Enter /opt/g09gh/gaussian/g09/l502.exe)
 Closed shell SCF:
 Requested convergence on RMS density matrix=1.00D-08 within 128 cycles.
 Requested convergence on MAX density matrix=1.00D-06.
 Requested convergence on             energy=1.00D-06.
 No special actions if energy rises.
 Using DIIS extrapolation, IDIIS=  1040.
 Integral symmetry usage will be decided dynamically.
       589816 words used for storage of precomputed grid.
 IEnd=     1758396 IEndB=     1758396 NGot=  2684354560 MDV=  2682994111
 LenX=  2682994111 LenY=  2682612805
 Fock matrices will be formed incrementally for  20 cycles.
 Integral accuracy reduced to 1.0D-05 until final iterations.

 Cycle   1  Pass 0  IDiag  1:
 FoFJK:  IHMeth= 1 ICntrl=     0 DoSepK=T KAlg= 1 I1Cent= 0 FoldK=F
 FoFCou: FMM=T IPFlag=           0 FMFlag=      100000 FMFlg1=           1
         NFxFlg=           0 DoJE=T BraDBF=F KetDBF=F FulRan=T
         Omega=  0.000000  0.000000  1.000000  0.000000  0.000000 ICntrl=     500 IOpCl=  0
         NMat0=    1 NMatS0=    1 NMatT0=    0 NMatD0=    1 NMtDS0=    0 NMtDT0=    0
         I1Cent=           0 NGrid=           0.
 Symmetry not used in FoFCou.
 FMM levels:  10  Number of levels for PrismC:   9
 E= -1581.16135416780    
 DIIS: error= 4.64D-02 at cycle   1 NSaved=   1.
 NSaved= 1 IEnMin= 1 EnMin= -1581.16135416780     IErMin= 1 ErrMin= 4.64D-02
 ErrMax= 4.64D-02 EMaxC= 1.00D-01 BMatC= 1.46D+00 BMatP= 1.46D+00
 IDIUse=3 WtCom= 5.36D-01 WtEn= 4.64D-01
 Coeff-Com:  0.100D+01
 Coeff-En:   0.100D+01
 Coeff:      0.100D+01
 Gap=     0.323 Goal=   None    Shift=    0.000
 GapD=    0.323 DampG=1.000 DampE=0.500 DampFc=0.5000 IDamp=-1.
 Damping current iteration by 5.00D-01
 RMSDP=1.86D-03 MaxDP=8.43D-02              OVMax= 1.70D-01

 Cycle   2  Pass 0  IDiag  1:
 RMSU=  6.58D-04    CP:  1.00D+00
 FoFJK:  IHMeth= 1 ICntrl=     0 DoSepK=T KAlg= 1 I1Cent= 0 FoldK=F
 E= -1581.33726328730     Delta-E=       -0.175909119504 Rises=F Damp=T
 DIIS: error= 2.39D-02 at cycle   2 NSaved=   2.
 NSaved= 2 IEnMin= 2 EnMin= -1581.33726328730     IErMin= 2 ErrMin= 2.39D-02
 ErrMax= 2.39D-02 EMaxC= 1.00D-01 BMatC= 3.22D-01 BMatP= 1.46D+00
 IDIUse=3 WtCom= 7.61D-01 WtEn= 2.39D-01
 Coeff-Com: -0.651D+00 0.165D+01
 Coeff-En:   0.000D+00 0.100D+01
 Coeff:     -0.496D+00 0.150D+01
 Gap=     0.313 Goal=   None    Shift=    0.000
 RMSDP=8.78D-04 MaxDP=3.65D-02 DE=-1.76D-01 OVMax= 1.24D-01

 Cycle   3  Pass 0  IDiag  1:
 RMSU=  5.75D-04    CP:  1.00D+00  1.36D+00
 FoFJK:  IHMeth= 1 ICntrl=     0 DoSepK=T KAlg= 1 I1Cent= 0 FoldK=F
 E= -1581.46011434297     Delta-E=       -0.122851055670 Rises=F Damp=F
Erroneous write. Write 1094704 instead of 1525224.
fd = 4
orig len = 1525224 left = 1525224
g_write
