
    -----------------------------------------------------------------------
          Psi4: An Open-Source Ab Initio Electronic Structure Package
                               Psi4 1.3.2 release

                         Git: Rev {HEAD} ecbda83 


    R. M. Parrish, L. A. Burns, D. G. A. Smith, A. C. Simmonett,
    A. E. DePrince III, E. G. Hohenstein, U. Bozkaya, A. Yu. Sokolov,
    R. Di Remigio, R. M. Richard, J. F. Gonthier, A. M. James,
    H. R. McAlexander, A. Kumar, M. Saitow, X. Wang, B. P. Pritchard,
    P. Verma, H. F. Schaefer III, K. Patkowski, R. A. King, E. F. Valeev,
    F. A. Evangelista, J. M. Turney, T. D. Crawford, and C. D. Sherrill,
    J. Chem. Theory Comput. 13(7) pp 3185--3197 (2017).
    (doi: 10.1021/acs.jctc.7b00174)


                         Additional Contributions by
    P. Kraus, H. Kruse, M. H. Lechner, M. C. Schieber, R. A. Shaw,
    A. Alenaizan, R. Galvelis, Z. L. Glick, S. Lehtola, and J. P. Misiewicz

    -----------------------------------------------------------------------


    Psi4 started on: Tuesday, 03 March 2020 06:02PM

    Process ID: 8854
    Host:       node46.bme.utexas.edu
    PSIDATADIR: /home/bdw2292/miniconda3/envs/p4env/share/psi4
    Memory:     500.0 MiB
    Threads:    1
    
  ==> Input File <==

--------------------------------------------------------------------------
molecule { 
0 1
 C    9.970728   -0.247322   -1.239580
 C    9.007798    0.752782   -1.050811
 C    7.682681    0.405186   -0.716709
 C    7.417090   -0.982253   -0.620459
 N    8.322785   -1.951573   -0.805253
 C    9.576546   -1.582215   -1.103229
 C    6.587601    1.420579   -0.501405
 C    6.733120    2.802538   -0.708156
 C    5.582504    3.570338   -0.512157
 N    4.409284    3.076096   -0.133529
 C    4.366095    1.742323    0.076378
 N    5.401323    0.919412   -0.097359
 N    3.120144    1.307368    0.493270
 C    2.482448    0.051517    0.802104
 C    3.155379   -1.052131    1.411752
 C    2.403161   -2.219370    1.632679
 C    1.052341   -2.358552    1.303638
 C    0.396808   -1.265705    0.730137
 C    1.118818   -0.083545    0.488614
 N   -0.979184   -1.246441    0.324802
 C   -1.992576   -2.151971    0.544746
 C   -3.364506   -1.847654   -0.025824
 C   -3.566881   -1.130300   -1.216344
 C   -4.859382   -0.890713   -1.687988
 C   -5.991918   -1.363813   -0.999141
 C   -5.774679   -2.095003    0.184274
 C   -4.485375   -2.347167    0.658487
 C   -7.406567   -1.074277   -1.504078
 N   -8.074653    0.171051   -1.085088
 C   -7.607903    1.456244   -1.653027
 C   -6.568156    2.207185   -0.781788
 N   -6.985355    2.418198    0.623692
 C   -7.871352    3.558642    0.882529
 C   -7.403986    1.115589    1.192678
 C   -8.441421    0.339317    0.340131
 O   -1.826869   -3.171470    1.195136
 C    4.561315   -1.053563    1.986641
 H   10.998925   -0.000311   -1.486887
 H    9.322173    1.788463   -1.152972
 H    6.409998   -1.323226   -0.409073
 H   10.289351   -2.392756   -1.245454
 H    7.649129    3.276647   -1.038189
 H    5.605187    4.647626   -0.673941
 H    2.432220    2.047493    0.508531
 H    2.875569   -3.073850    2.117018
 H    0.517876   -3.279935    1.499317
 H    0.630510    0.763141    0.024631
 H   -1.275865   -0.373492   -0.087460
 H   -2.708952   -0.770253   -1.778366
 H   -4.983046   -0.324113   -2.610686
 H   -6.622742   -2.481337    0.749396
 H   -4.326916   -2.921905    1.567664
 H   -7.390625   -1.073947   -2.603775
 H   -8.059321   -1.904506   -1.197748
 H   -7.284608    1.330124   -2.654753
 H   -8.865277    2.408466   -1.709395
 H   -6.330173    3.518027   -1.403368
 H   -5.475206    1.575835   -0.767584
 H   -8.844648    3.419468    0.398716
 H   -7.418362    4.482393    0.505148
 H   -8.027276    3.678739    1.960682
 H   -7.916309    1.318473    2.445191
 H   -6.228818    0.312429    1.318685
 H   -9.747773    1.230564    0.371419
 H   -8.705043   -0.604143    0.779208
 H    4.935290   -0.046736    2.207417
 H    5.274402   -1.540655    1.312520
 H    4.613275   -1.599237    2.939571
}
memory 20GB
set_num_threads(6)
psi4_io.set_default_path("/scratch/bdw2292")
set freeze_core True
E, wfn = energy('mp2/6-311++G**',return_wfn=True)
oeprop(wfn,"WIBERG_LOWDIN_INDICES")
clean()
--------------------------------------------------------------------------

  Memory set to  18.626 GiB by Python driver.
  Threads set to 6 by Python driver.
    SCF Algorithm Type (re)set to DF.

*** tstart() called on node46.bme.utexas.edu
*** at Tue Mar  3 18:02:00 2020

   => Loading Basis Set <=

    Name: 6-311++G**
    Role: ORBITAL
    Keyword: BASIS
    atoms 1-4, 6-9, 11, 14-19, 21-28, 30-31, 33-35, 37 entry C          line   119 file /home/bdw2292/miniconda3/envs/p4env/share/psi4/basis/6-311ppgss.gbs 
    atoms 5, 10, 12-13, 20, 29, 32                     entry N          line   140 file /home/bdw2292/miniconda3/envs/p4env/share/psi4/basis/6-311ppgss.gbs 
    atoms 36                                           entry O          line   161 file /home/bdw2292/miniconda3/envs/p4env/share/psi4/basis/6-311ppgss.gbs 
    atoms 38-68                                        entry H          line    42 file /home/bdw2292/miniconda3/envs/p4env/share/psi4/basis/6-311ppgss.gbs 


         ---------------------------------------------------------
                                   SCF
               by Justin Turney, Rob Parrish, Andy Simmonett
                          and Daniel G. A. Smith
                              RHF Reference
                        6 Threads,  19073 MiB Core
         ---------------------------------------------------------

  ==> Geometry <==

    Molecular point group: c1
    Full point group: C1

    Geometry (in Angstrom), charge = 0, multiplicity = 1:

       Center              X                  Y                   Z               Mass       
    ------------   -----------------  -----------------  -----------------  -----------------
         C            9.816903733466    -0.197260866295    -1.208065462236    12.000000000000
         C            8.853973733466     0.802843133705    -1.019296462236    12.000000000000
         C            7.528856733466     0.455247133705    -0.685194462236    12.000000000000
         C            7.263265733466    -0.932191866295    -0.588944462236    12.000000000000
         N            8.168960733466    -1.901511866295    -0.773738462236    14.003074004430
         C            9.422721733466    -1.532153866295    -1.071714462236    12.000000000000
         C            6.433776733466     1.470640133705    -0.469890462236    12.000000000000
         C            6.579295733466     2.852599133705    -0.676641462236    12.000000000000
         C            5.428679733466     3.620399133705    -0.480642462236    12.000000000000
         N            4.255459733466     3.126157133705    -0.102014462236    14.003074004430
         C            4.212270733466     1.792384133705     0.107892537764    12.000000000000
         N            5.247498733466     0.969473133705    -0.065844462236    14.003074004430
         N            2.966319733466     1.357429133705     0.524784537764    14.003074004430
         C            2.328623733466     0.101578133705     0.833618537764    12.000000000000
         C            3.001554733466    -1.002069866295     1.443266537764    12.000000000000
         C            2.249336733466    -2.169308866295     1.664193537764    12.000000000000
         C            0.898516733466    -2.308490866295     1.335152537764    12.000000000000
         C            0.242983733466    -1.215643866295     0.761651537764    12.000000000000
         C            0.964993733466    -0.033483866295     0.520128537764    12.000000000000
         N           -1.133008266534    -1.196379866295     0.356316537764    14.003074004430
         C           -2.146400266534    -2.101909866295     0.576260537764    12.000000000000
         C           -3.518330266534    -1.797592866295     0.005690537764    12.000000000000
         C           -3.720705266534    -1.080238866295    -1.184829462236    12.000000000000
         C           -5.013206266534    -0.840651866295    -1.656473462236    12.000000000000
         C           -6.145742266534    -1.313751866295    -0.967626462236    12.000000000000
         C           -5.928503266534    -2.044941866295     0.215788537764    12.000000000000
         C           -4.639199266534    -2.297105866295     0.690001537764    12.000000000000
         C           -7.560391266534    -1.024215866295    -1.472563462236    12.000000000000
         N           -8.228477266534     0.221112133705    -1.053573462236    14.003074004430
         C           -7.761727266534     1.506305133705    -1.621512462236    12.000000000000
         C           -6.721980266534     2.257246133705    -0.750273462236    12.000000000000
         N           -7.139179266534     2.468259133705     0.655206537764    14.003074004430
         C           -8.025176266534     3.608703133705     0.914043537764    12.000000000000
         C           -7.557810266534     1.165650133705     1.224192537764    12.000000000000
         C           -8.595245266534     0.389378133705     0.371645537764    12.000000000000
         O           -1.980693266534    -3.121408866295     1.226650537764    15.994914619570
         C            4.407490733466    -1.003501866295     2.018155537764    12.000000000000
         H           10.845100733466     0.049750133705    -1.455372462236     1.007825032230
         H            9.168348733466     1.838524133705    -1.121457462236     1.007825032230
         H            6.256173733466    -1.273164866295    -0.377558462236     1.007825032230
         H           10.135526733466    -2.342694866295    -1.213939462236     1.007825032230
         H            7.495304733466     3.326708133705    -1.006674462236     1.007825032230
         H            5.451362733466     4.697687133705    -0.642426462236     1.007825032230
         H            2.278395733466     2.097554133705     0.540045537764     1.007825032230
         H            2.721744733466    -3.023788866295     2.148532537764     1.007825032230
         H            0.364051733466    -3.229873866295     1.530831537764     1.007825032230
         H            0.476685733466     0.813202133705     0.056145537764     1.007825032230
         H           -1.429689266534    -0.323430866295    -0.055945462236     1.007825032230
         H           -2.862776266534    -0.720191866295    -1.746851462236     1.007825032230
         H           -5.136870266534    -0.274051866295    -2.579171462236     1.007825032230
         H           -6.776566266534    -2.431275866295     0.780910537764     1.007825032230
         H           -4.480740266534    -2.871843866295     1.599178537764     1.007825032230
         H           -7.544449266534    -1.023885866295    -2.572260462236     1.007825032230
         H           -8.213145266534    -1.854444866295    -1.166233462236     1.007825032230
         H           -7.438432266534     1.380185133705    -2.623238462236     1.007825032230
         H           -9.019101266534     2.458527133705    -1.677880462236     1.007825032230
         H           -6.483997266534     3.568088133705    -1.371853462236     1.007825032230
         H           -5.629030266534     1.625896133705    -0.736069462236     1.007825032230
         H           -8.998472266534     3.469529133705     0.430230537764     1.007825032230
         H           -7.572186266534     4.532454133705     0.536662537764     1.007825032230
         H           -8.181100266534     3.728800133705     1.992196537764     1.007825032230
         H           -8.070133266534     1.368534133705     2.476705537764     1.007825032230
         H           -6.382642266534     0.362490133705     1.350199537764     1.007825032230
         H           -9.901597266534     1.280625133705     0.402933537764     1.007825032230
         H           -8.858867266534    -0.554081866295     0.810722537764     1.007825032230
         H            4.781465733466     0.003325133705     2.238931537764     1.007825032230
         H            5.120577733466    -1.490593866295     1.344034537764     1.007825032230
         H            4.459450733466    -1.549175866295     2.971085537764     1.007825032230

  Running in c1 symmetry.

  Rotational constants: A =      0.00759  B =      0.00094  C =      0.00087 [cm^-1]
  Rotational constants: A =    227.44282  B =     28.04046  C =     26.22402 [MHz]
  Nuclear repulsion = 3501.559664564025297

  Charge       = 0
  Multiplicity = 1
  Electrons    = 262
  Nalpha       = 131
  Nbeta        = 131

  ==> Algorithm <==

  SCF Algorithm Type is DF.
  DIIS enabled.
  MOM disabled.
  Fractional occupation disabled.
  Guess Type is SAD.
  Energy threshold   = 1.00e-08
  Density threshold  = 1.00e-08
  Integral threshold = 0.00e+00

  ==> Primary Basis <==

  Basis Set: 6-311++G**
    Blend: 6-311++G**
    Number of shells: 525
    Number of basis function: 1031
    Number of Cartesian functions: 1068
    Spherical Harmonics?: true
    Max angular momentum: 2

   => Loading Basis Set <=

    Name: (6-311++G** AUX)
    Role: JKFIT
    Keyword: DF_BASIS_SCF
    atoms 1-4, 6-9, 11, 14-19, 21-28, 30-31, 33-35, 37 entry C          line   162 file /home/bdw2292/miniconda3/envs/p4env/share/psi4/basis/aug-cc-pvtz-jkfit.gbs 
    atoms 5, 10, 12-13, 20, 29, 32                     entry N          line   224 file /home/bdw2292/miniconda3/envs/p4env/share/psi4/basis/aug-cc-pvtz-jkfit.gbs 
    atoms 36                                           entry O          line   286 file /home/bdw2292/miniconda3/envs/p4env/share/psi4/basis/aug-cc-pvtz-jkfit.gbs 
    atoms 38-68                                        entry H          line    70 file /home/bdw2292/miniconda3/envs/p4env/share/psi4/basis/aug-cc-pvtz-jkfit.gbs 

  ==> Pre-Iterations <==

   -------------------------------------------------------
    Irrep   Nso     Nmo     Nalpha   Nbeta   Ndocc  Nsocc
   -------------------------------------------------------
     A       1031    1031       0       0       0       0
   -------------------------------------------------------
    Total    1031    1031     131     131     131       0
   -------------------------------------------------------

  ==> Integral Setup <==

  ==> DiskDFJK: Density-Fitted J/K Matrices <==

    J tasked:                  Yes
    K tasked:                  Yes
    wK tasked:                  No
    OpenMP threads:              6
    Integrals threads:           6
    Memory [MiB]:            14305
    Algorithm:                Core
    Integral Cache:           NONE
    Schwarz Cutoff:          1E-12
    Fitting Condition:       1E-10

   => Auxiliary Basis Set <=

  Basis Set: (6-311++G** AUX)
    Blend: AUG-CC-PVTZ-JKFIT
    Number of shells: 1544
    Number of basis function: 5274
    Number of Cartesian functions: 6552
    Spherical Harmonics?: true
    Max angular momentum: 4

  Minimum eigenvalue in the overlap matrix is 1.0528522772E-07.
  Using Symmetric Orthogonalization.

  SCF Guess: Superposition of Atomic Densities via on-the-fly atomic UHF.

  ==> Iterations <==

                           Total Energy        Delta E     RMS |[F,P]|

   @DF-RHF iter SAD: -1571.14809300352704   -1.57115e+03   0.00000e+00 
   @DF-RHF iter   1: -1571.29493997607892   -1.46847e-01   1.22262e-03 DIIS
   @DF-RHF iter   2: -1572.06460501897391   -7.69665e-01   6.60563e-04 DIIS
   @DF-RHF iter   3: -1572.27162542906626   -2.07020e-01   1.69733e-04 DIIS
   @DF-RHF iter   4: -1572.28979426651085   -1.81688e-02   6.72424e-05 DIIS
   @DF-RHF iter   5: -1572.29256738902654   -2.77312e-03   1.33283e-05 DIIS
   @DF-RHF iter   6: -1572.29272505956055   -1.57671e-04   5.93546e-06 DIIS
   @DF-RHF iter   7: -1572.29276113174387   -3.60722e-05   1.97657e-06 DIIS
   @DF-RHF iter   8: -1572.29276678848601   -5.65674e-06   7.67732e-07 DIIS
   @DF-RHF iter   9: -1572.29276769298781   -9.04502e-07   3.09992e-07 DIIS
   @DF-RHF iter  10: -1572.29276788041420   -1.87426e-07   1.44164e-07 DIIS
   @DF-RHF iter  11: -1572.29276792050518   -4.00910e-08   7.03780e-08 DIIS
   @DF-RHF iter  12: -1572.29276793163126   -1.11261e-08   3.01449e-08 DIIS
   @DF-RHF iter  13: -1572.29276793386816   -2.23690e-09   1.25372e-08 DIIS
   @DF-RHF iter  14: -1572.29276793420536   -3.37195e-10   6.13281e-09 DIIS
  Energy and wave function converged.


  ==> Post-Iterations <==

    Orbital Energies [Eh]
    ---------------------

    Doubly Occupied:                                                      

       1A    -20.528476     2A    -15.610530     3A    -15.599944  
       4A    -15.578838     5A    -15.574580     6A    -15.567137  
       7A    -15.564466     8A    -15.561742     9A    -11.372713  
      10A    -11.372577    11A    -11.328658    12A    -11.322972  
      13A    -11.317813    14A    -11.312343    15A    -11.309923  
      16A    -11.307207    17A    -11.303300    18A    -11.299691  
      19A    -11.290765    20A    -11.288429    21A    -11.287860  
      22A    -11.280353    23A    -11.270502    24A    -11.268491  
      25A    -11.267703    26A    -11.267103    27A    -11.259475  
      28A    -11.258466    29A    -11.255905    30A    -11.255717  
      31A    -11.246924    32A    -11.245666    33A    -11.245562  
      34A    -11.244614    35A    -11.238821    36A    -11.228714  
      37A    -11.217588    38A     -1.395120    39A     -1.339500  
      40A     -1.267267    41A     -1.256669    42A     -1.253044  
      43A     -1.239958    44A     -1.206609    45A     -1.202902  
      46A     -1.172527    47A     -1.140804    48A     -1.108224  
      49A     -1.070938    50A     -1.067135    51A     -1.041190  
      52A     -1.039406    53A     -1.034799    54A     -1.008043  
      55A     -1.003448    56A     -0.983753    57A     -0.944434  
      58A     -0.929949    59A     -0.918781    60A     -0.895022  
      61A     -0.872252    62A     -0.863462    63A     -0.852513  
      64A     -0.847465    65A     -0.840186    66A     -0.837390  
      67A     -0.835844    68A     -0.810023    69A     -0.781108  
      70A     -0.753384    71A     -0.741898    72A     -0.730642  
      73A     -0.717495    74A     -0.710824    75A     -0.692676  
      76A     -0.687927    77A     -0.678184    78A     -0.667681  
      79A     -0.661438    80A     -0.657736    81A     -0.652374  
      82A     -0.648464    83A     -0.641452    84A     -0.634626  
      85A     -0.627908    86A     -0.625218    87A     -0.611715  
      88A     -0.610507    89A     -0.606014    90A     -0.603389  
      91A     -0.599438    92A     -0.599026    93A     -0.593723  
      94A     -0.586358    95A     -0.585269    96A     -0.583227  
      97A     -0.581580    98A     -0.567887    99A     -0.565238  
     100A     -0.550185   101A     -0.546469   102A     -0.540595  
     103A     -0.536882   104A     -0.533685   105A     -0.529900  
     106A     -0.524389   107A     -0.512419   108A     -0.511015  
     109A     -0.506785   110A     -0.505392   111A     -0.502637  
     112A     -0.500885   113A     -0.487352   114A     -0.481686  
     115A     -0.448212   116A     -0.445043   117A     -0.436768  
     118A     -0.431142   119A     -0.429056   120A     -0.426343  
     121A     -0.406909   122A     -0.398572   123A     -0.391540  
     124A     -0.387222   125A     -0.368822   126A     -0.356419  
     127A     -0.352125   128A     -0.339358   129A     -0.318614  
     130A     -0.315807   131A     -0.293046  

    Virtual:                                                              

     132A      0.030068   133A      0.032499   134A      0.038965  
     135A      0.041418   136A      0.044630   137A      0.046662  
     138A      0.049617   139A      0.051689   140A      0.054827  
     141A      0.058498   142A      0.059476   143A      0.063135  
     144A      0.064946   145A      0.066437   146A      0.067876  
     147A      0.071032   148A      0.073070   149A      0.074881  
     150A      0.080901   151A      0.082649   152A      0.085842  
     153A      0.086843   154A      0.088782   155A      0.090182  
     156A      0.092076   157A      0.093727   158A      0.097800  
     159A      0.100936   160A      0.102307   161A      0.103864  
     162A      0.107281   163A      0.108389   164A      0.111735  
     165A      0.115086   166A      0.115964   167A      0.119057  
     168A      0.120457   169A      0.122265   170A      0.124315  
     171A      0.126458   172A      0.131366   173A      0.133038  
     174A      0.139437   175A      0.142486   176A      0.144034  
     177A      0.145320   178A      0.147492   179A      0.148365  
     180A      0.149495   181A      0.153131   182A      0.156164  
     183A      0.156980   184A      0.157818   185A      0.161085  
     186A      0.163252   187A      0.165250   188A      0.165959  
     189A      0.167347   190A      0.170765   191A      0.171821  
     192A      0.173681   193A      0.175503   194A      0.177478  
     195A      0.179435   196A      0.180936   197A      0.181840  
     198A      0.183213   199A      0.184192   200A      0.186139  
     201A      0.187207   202A      0.188295   203A      0.190099  
     204A      0.192246   205A      0.193873   206A      0.194712  
     207A      0.196348   208A      0.197957   209A      0.199335  
     210A      0.201703   211A      0.203710   212A      0.206224  
     213A      0.207762   214A      0.209663   215A      0.211883  
     216A      0.212756   217A      0.213307   218A      0.213799  
     219A      0.217739   220A      0.218460   221A      0.221093  
     222A      0.221736   223A      0.224689   224A      0.225389  
     225A      0.227136   226A      0.230911   227A      0.231237  
     228A      0.232439   229A      0.236380   230A      0.238409  
     231A      0.239813   232A      0.240863   233A      0.243481  
     234A      0.244257   235A      0.247993   236A      0.249741  
     237A      0.251785   238A      0.255183   239A      0.256340  
     240A      0.259135   241A      0.262140   242A      0.264543  
     243A      0.267169   244A      0.268829   245A      0.273102  
     246A      0.274089   247A      0.276324   248A      0.277894  
     249A      0.281259   250A      0.283779   251A      0.285642  
     252A      0.288165   253A      0.291750   254A      0.292495  
     255A      0.294055   256A      0.295269   257A      0.297377  
     258A      0.299629   259A      0.301847   260A      0.306030  
     261A      0.307836   262A      0.312957   263A      0.315726  
     264A      0.318685   265A      0.319533   266A      0.322300  
     267A      0.323771   268A      0.325859   269A      0.327791  
     270A      0.329595   271A      0.332714   272A      0.334709  
     273A      0.336560   274A      0.338235   275A      0.339355  
     276A      0.341087   277A      0.343850   278A      0.344587  
     279A      0.346471   280A      0.349519   281A      0.351433  
     282A      0.352427   283A      0.354015   284A      0.355104  
     285A      0.357361   286A      0.361955   287A      0.363558  
     288A      0.364280   289A      0.366454   290A      0.369098  
     291A      0.371113   292A      0.373369   293A      0.375535  
     294A      0.376379   295A      0.378799   296A      0.380863  
     297A      0.382802   298A      0.383508   299A      0.385034  
     300A      0.386818   301A      0.388702   302A      0.389616  
     303A      0.390207   304A      0.391239   305A      0.392696  
     306A      0.395477   307A      0.396810   308A      0.397824  
     309A      0.401256   310A      0.402089   311A      0.402856  
     312A      0.405420   313A      0.406592   314A      0.409355  
     315A      0.410368   316A      0.411667   317A      0.416762  
     318A      0.417831   319A      0.419232   320A      0.421361  
     321A      0.423263   322A      0.423707   323A      0.425222  
     324A      0.428541   325A      0.431772   326A      0.433523  
     327A      0.435952   328A      0.437878   329A      0.441167  
     330A      0.442156   331A      0.443262   332A      0.444644  
     333A      0.445939   334A      0.451625   335A      0.455902  
     336A      0.456299   337A      0.458368   338A      0.459518  
     339A      0.462000   340A      0.464222   341A      0.467231  
     342A      0.469664   343A      0.472973   344A      0.475794  
     345A      0.478082   346A      0.481373   347A      0.482013  
     348A      0.486237   349A      0.488448   350A      0.491708  
     351A      0.492274   352A      0.495925   353A      0.497483  
     354A      0.502389   355A      0.505718   356A      0.507096  
     357A      0.509158   358A      0.511453   359A      0.514284  
     360A      0.518981   361A      0.521776   362A      0.523605  
     363A      0.525385   364A      0.531087   365A      0.531427  
     366A      0.537539   367A      0.540083   368A      0.547585  
     369A      0.549989   370A      0.550490   371A      0.555432  
     372A      0.566848   373A      0.568524   374A      0.570190  
     375A      0.581440   376A      0.590147   377A      0.595128  
     378A      0.600119   379A      0.608634   380A      0.610968  
     381A      0.611182   382A      0.619383   383A      0.620678  
     384A      0.629945   385A      0.636609   386A      0.640900  
     387A      0.658728   388A      0.667228   389A      0.677482  
     390A      0.680937   391A      0.688969   392A      0.691228  
     393A      0.696519   394A      0.699901   395A      0.707460  
     396A      0.711907   397A      0.715556   398A      0.724542  
     399A      0.727870   400A      0.729577   401A      0.733660  
     402A      0.736434   403A      0.740981   404A      0.747639  
     405A      0.752328   406A      0.754108   407A      0.755647  
     408A      0.757237   409A      0.762726   410A      0.763827  
     411A      0.768559   412A      0.769775   413A      0.773860  
     414A      0.776100   415A      0.779688   416A      0.783800  
     417A      0.787568   418A      0.796407   419A      0.799631  
     420A      0.801208   421A      0.803229   422A      0.805733  
     423A      0.809243   424A      0.814414   425A      0.818022  
     426A      0.818643   427A      0.821982   428A      0.827573  
     429A      0.830167   430A      0.834292   431A      0.840451  
     432A      0.843212   433A      0.846284   434A      0.853082  
     435A      0.855748   436A      0.858298   437A      0.865431  
     438A      0.866466   439A      0.869408   440A      0.873210  
     441A      0.875654   442A      0.880240   443A      0.883652  
     444A      0.886909   445A      0.888625   446A      0.890456  
     447A      0.893583   448A      0.897848   449A      0.902747  
     450A      0.908048   451A      0.910941   452A      0.914485  
     453A      0.917950   454A      0.919102   455A      0.926538  
     456A      0.927202   457A      0.928976   458A      0.930021  
     459A      0.934523   460A      0.935173   461A      0.940076  
     462A      0.944341   463A      0.948257   464A      0.951867  
     465A      0.954978   466A      0.956155   467A      0.962057  
     468A      0.964234   469A      0.966930   470A      0.968452  
     471A      0.970959   472A      0.972810   473A      0.975259  
     474A      0.977749   475A      0.981301   476A      0.987278  
     477A      0.991223   478A      0.996755   479A      0.998565  
     480A      1.002849   481A      1.004525   482A      1.010556  
     483A      1.013979   484A      1.018091   485A      1.020961  
     486A      1.022717   487A      1.024789   488A      1.027010  
     489A      1.039116   490A      1.042850   491A      1.050880  
     492A      1.052978   493A      1.057917   494A      1.060808  
     495A      1.062470   496A      1.066112   497A      1.070913  
     498A      1.078519   499A      1.084294   500A      1.085524  
     501A      1.087253   502A      1.088239   503A      1.090951  
     504A      1.103608   505A      1.108699   506A      1.113876  
     507A      1.118267   508A      1.119674   509A      1.130244  
     510A      1.132117   511A      1.133309   512A      1.138650  
     513A      1.141292   514A      1.144871   515A      1.147807  
     516A      1.151061   517A      1.156353   518A      1.160524  
     519A      1.164853   520A      1.166534   521A      1.168116  
     522A      1.172113   523A      1.174575   524A      1.180208  
     525A      1.184671   526A      1.189825   527A      1.198346  
     528A      1.199846   529A      1.203933   530A      1.206323  
     531A      1.209169   532A      1.213572   533A      1.218309  
     534A      1.225825   535A      1.226984   536A      1.230383  
     537A      1.235198   538A      1.240774   539A      1.250062  
     540A      1.254961   541A      1.255603   542A      1.258965  
     543A      1.263608   544A      1.264966   545A      1.272314  
     546A      1.281093   547A      1.282393   548A      1.285548  
     549A      1.288399   550A      1.292093   551A      1.294373  
     552A      1.296055   553A      1.303691   554A      1.307566  
     555A      1.314247   556A      1.325279   557A      1.328005  
     558A      1.339810   559A      1.343661   560A      1.346693  
     561A      1.358019   562A      1.360484   563A      1.361817  
     564A      1.367908   565A      1.373980   566A      1.376129  
     567A      1.383146   568A      1.391437   569A      1.399459  
     570A      1.406602   571A      1.410832   572A      1.424530  
     573A      1.431331   574A      1.434515   575A      1.442807  
     576A      1.447578   577A      1.451877   578A      1.460189  
     579A      1.464976   580A      1.476442   581A      1.478906  
     582A      1.485863   583A      1.486339   584A      1.501447  
     585A      1.509855   586A      1.519304   587A      1.527827  
     588A      1.539762   589A      1.546580   590A      1.547796  
     591A      1.560833   592A      1.567514   593A      1.584189  
     594A      1.588172   595A      1.597209   596A      1.598586  
     597A      1.606885   598A      1.625959   599A      1.630636  
     600A      1.633626   601A      1.650745   602A      1.662215  
     603A      1.665403   604A      1.668263   605A      1.681598  
     606A      1.683626   607A      1.699702   608A      1.709730  
     609A      1.720989   610A      1.723162   611A      1.739774  
     612A      1.749974   613A      1.752084   614A      1.755986  
     615A      1.759352   616A      1.762742   617A      1.764557  
     618A      1.770410   619A      1.775888   620A      1.783845  
     621A      1.786558   622A      1.790481   623A      1.793458  
     624A      1.797502   625A      1.800788   626A      1.806044  
     627A      1.806509   628A      1.820366   629A      1.821024  
     630A      1.825319   631A      1.827385   632A      1.831118  
     633A      1.834736   634A      1.837944   635A      1.841841  
     636A      1.844117   637A      1.849542   638A      1.855863  
     639A      1.857177   640A      1.861826   641A      1.863187  
     642A      1.869946   643A      1.874874   644A      1.880330  
     645A      1.891534   646A      1.896656   647A      1.897833  
     648A      1.901930   649A      1.905670   650A      1.915354  
     651A      1.924812   652A      1.929921   653A      1.934286  
     654A      1.934803   655A      1.940137   656A      1.944343  
     657A      1.946338   658A      1.950347   659A      1.960824  
     660A      1.967029   661A      1.970434   662A      1.973749  
     663A      1.974658   664A      1.979147   665A      1.980708  
     666A      1.986823   667A      1.988649   668A      1.996522  
     669A      2.002028   670A      2.012239   671A      2.012414  
     672A      2.017222   673A      2.020725   674A      2.025512  
     675A      2.027233   676A      2.033741   677A      2.036032  
     678A      2.042815   679A      2.049611   680A      2.051126  
     681A      2.057829   682A      2.060859   683A      2.064560  
     684A      2.079030   685A      2.081534   686A      2.082567  
     687A      2.087215   688A      2.094949   689A      2.099742  
     690A      2.102736   691A      2.111940   692A      2.114137  
     693A      2.120695   694A      2.138658   695A      2.148334  
     696A      2.154107   697A      2.158598   698A      2.160181  
     699A      2.164424   700A      2.169470   701A      2.181388  
     702A      2.182433   703A      2.185444   704A      2.194956  
     705A      2.198478   706A      2.204516   707A      2.206232  
     708A      2.212664   709A      2.216246   710A      2.226727  
     711A      2.230619   712A      2.235966   713A      2.242410  
     714A      2.251478   715A      2.254339   716A      2.256109  
     717A      2.261745   718A      2.266845   719A      2.268692  
     720A      2.273396   721A      2.280828   722A      2.283865  
     723A      2.287487   724A      2.293364   725A      2.295194  
     726A      2.302860   727A      2.309061   728A      2.312274  
     729A      2.320324   730A      2.328747   731A      2.338565  
     732A      2.346909   733A      2.348911   734A      2.352241  
     735A      2.358384   736A      2.363078   737A      2.366394  
     738A      2.374503   739A      2.379931   740A      2.390441  
     741A      2.398491   742A      2.402197   743A      2.407198  
     744A      2.412802   745A      2.417414   746A      2.428986  
     747A      2.438011   748A      2.443830   749A      2.445965  
     750A      2.455639   751A      2.461341   752A      2.473380  
     753A      2.486027   754A      2.492887   755A      2.501637  
     756A      2.511956   757A      2.513057   758A      2.522792  
     759A      2.526421   760A      2.530211   761A      2.557765  
     762A      2.561050   763A      2.573144   764A      2.574687  
     765A      2.584098   766A      2.598001   767A      2.605525  
     768A      2.617909   769A      2.627038   770A      2.634648  
     771A      2.640131   772A      2.647187   773A      2.668443  
     774A      2.670358   775A      2.690967   776A      2.698403  
     777A      2.706337   778A      2.709900   779A      2.719592  
     780A      2.725130   781A      2.737231   782A      2.747034  
     783A      2.761782   784A      2.766371   785A      2.786920  
     786A      2.791438   787A      2.797554   788A      2.798836  
     789A      2.812406   790A      2.820676   791A      2.823134  
     792A      2.827725   793A      2.830966   794A      2.838195  
     795A      2.844546   796A      2.850565   797A      2.867432  
     798A      2.870770   799A      2.881217   800A      2.897264  
     801A      2.903909   802A      2.908617   803A      2.912339  
     804A      2.925657   805A      2.935279   806A      2.938016  
     807A      2.945580   808A      2.962795   809A      2.966300  
     810A      2.970527   811A      2.976020   812A      2.979493  
     813A      2.988546   814A      2.994067   815A      2.997308  
     816A      3.000852   817A      3.004555   818A      3.007031  
     819A      3.010710   820A      3.016432   821A      3.032979  
     822A      3.035418   823A      3.037394   824A      3.045437  
     825A      3.048352   826A      3.052270   827A      3.065714  
     828A      3.066039   829A      3.071083   830A      3.072478  
     831A      3.073987   832A      3.075732   833A      3.084956  
     834A      3.087131   835A      3.091935   836A      3.096192  
     837A      3.101628   838A      3.106333   839A      3.116236  
     840A      3.119076   841A      3.123337   842A      3.125313  
     843A      3.130146   844A      3.133817   845A      3.136254  
     846A      3.145252   847A      3.159330   848A      3.165335  
     849A      3.167352   850A      3.176450   851A      3.191146  
     852A      3.194989   853A      3.200693   854A      3.202731  
     855A      3.204992   856A      3.218045   857A      3.227012  
     858A      3.230291   859A      3.238100   860A      3.245247  
     861A      3.247552   862A      3.251675   863A      3.260351  
     864A      3.272093   865A      3.277397   866A      3.279697  
     867A      3.287111   868A      3.290559   869A      3.297552  
     870A      3.299864   871A      3.308057   872A      3.313517  
     873A      3.321877   874A      3.326076   875A      3.333292  
     876A      3.334524   877A      3.345129   878A      3.349459  
     879A      3.353226   880A      3.354394   881A      3.362317  
     882A      3.365934   883A      3.373120   884A      3.381132  
     885A      3.393948   886A      3.401652   887A      3.405466  
     888A      3.411089   889A      3.412097   890A      3.417062  
     891A      3.425775   892A      3.434110   893A      3.458579  
     894A      3.505399   895A      3.508090   896A      3.518032  
     897A      3.559638   898A      3.565457   899A      3.577607  
     900A      3.588853   901A      3.605740   902A      3.627211  
     903A      3.637184   904A      3.642800   905A      3.645913  
     906A      3.659376   907A      3.668736   908A      3.677842  
     909A      3.720407   910A      3.759328   911A      3.764445  
     912A      3.771166   913A      3.775379   914A      3.785560  
     915A      3.792960   916A      3.811592   917A      3.822329  
     918A      3.838829   919A      3.856814   920A      3.868287  
     921A      3.875052   922A      3.902009   923A      3.910514  
     924A      3.915435   925A      3.925887   926A      3.934273  
     927A      3.941782   928A      3.947639   929A      3.972231  
     930A      3.978673   931A      3.996663   932A      4.007606  
     933A      4.030057   934A      4.054143   935A      4.056166  
     936A      4.079001   937A      4.089093   938A      4.096093  
     939A      4.116273   940A      4.133005   941A      4.137620  
     942A      4.151840   943A      4.183113   944A      4.188124  
     945A      4.194835   946A      4.203581   947A      4.208539  
     948A      4.242437   949A      4.247471   950A      4.320484  
     951A      4.336719   952A      4.357279   953A      4.374935  
     954A      4.379931   955A      4.411838   956A      4.423391  
     957A      4.427410   958A      4.433455   959A      4.433600  
     960A      4.448728   961A      4.459139   962A      4.476971  
     963A      4.523096   964A      4.541680   965A      4.563779  
     966A      4.568105   967A      4.570749   968A      4.594501  
     969A      4.599711   970A      4.666312   971A      4.696174  
     972A      4.763902   973A      4.771489   974A      4.789382  
     975A      4.907874   976A      4.924117   977A      5.003499  
     978A      5.035857   979A      5.220466   980A      5.247458  
     981A      5.253553   982A      5.270293   983A      5.278939  
     984A      5.329200   985A      5.337592   986A      5.375559  
     987A      5.404341   988A      5.600890   989A      5.683239  
     990A      5.696587   991A      5.793209   992A      5.853745  
     993A      5.863329   994A      6.390183   995A     24.754448  
     996A     24.761430   997A     24.808018   998A     24.822372  
     999A     24.837465  1000A     24.938854  1001A     24.942927  
    1002A     25.003988  1003A     25.013046  1004A     25.023350  
    1005A     25.032390  1006A     25.067169  1007A     25.078944  
    1008A     25.084495  1009A     25.102987  1010A     25.105890  
    1011A     25.118682  1012A     25.134701  1013A     25.136903  
    1014A     25.138751  1015A     25.177409  1016A     25.194192  
    1017A     25.210377  1018A     25.230855  1019A     25.234512  
    1020A     25.244543  1021A     25.256428  1022A     25.310610  
    1023A     25.322262  1024A     36.938155  1025A     36.977564  
    1026A     37.020237  1027A     37.060964  1028A     37.082005  
    1029A     37.128558  1030A     37.160973  1031A     51.753229  

    Final Occupation by Irrep:
              A 
    DOCC [   131 ]

  @DF-RHF Final Energy: -1572.29276793420536

   => Energetics <=

    Nuclear Repulsion Energy =           3501.5596645640252973
    One-Electron Energy =               -9101.0050588624344527
    Two-Electron Energy =                4027.1526263642035701
    Total Energy =                      -1572.2927679342055853

Computation Completed


Properties will be evaluated at   0.000000,   0.000000,   0.000000 [a0]

Properties computed using the SCF density matrix

  Nuclear Dipole Moment: [e a0]
     X:   -50.1064      Y:    12.7569      Z:     0.8157

  Electronic Dipole Moment: [e a0]
     X:    50.8169      Y:   -11.1293      Z:    -1.7689

  Dipole Moment: [e a0]
     X:     0.7105      Y:     1.6275      Z:    -0.9532     Total:     2.0155

  Dipole Moment: [D]
     X:     1.8058      Y:     4.1367      Z:    -2.4227     Total:     5.1228


*** tstop() called on node46.bme.utexas.edu at Tue Mar  3 18:16:09 2020
Module time:
	user time   =    4392.49 seconds =      73.21 minutes
	system time =     105.52 seconds =       1.76 minutes
	total time  =        849 seconds =      14.15 minutes
Total time:
	user time   =    4392.49 seconds =      73.21 minutes
	system time =     105.52 seconds =       1.76 minutes
	total time  =        849 seconds =      14.15 minutes

*** tstart() called on node46.bme.utexas.edu
*** at Tue Mar  3 18:16:09 2020


  //>>>>>>>>>>>>>>>>>>>>>>>>>>>>>>>>>>>//
  //               DFMP2               //
  //<<<<<<<<<<<<<<<<<<<<<<<<<<<<<<<<<<<//

   => Loading Basis Set <=

    Name: (6-311++G** AUX)
    Role: RIFIT
    Keyword: DF_BASIS_MP2
    atoms 1-4, 6-9, 11, 14-19, 21-28, 30-31, 33-35, 37 entry C          line   148 file /home/bdw2292/miniconda3/envs/p4env/share/psi4/basis/aug-cc-pvtz-ri.gbs 
    atoms 5, 10, 12-13, 20, 29, 32                     entry N          line   206 file /home/bdw2292/miniconda3/envs/p4env/share/psi4/basis/aug-cc-pvtz-ri.gbs 
    atoms 36                                           entry O          line   264 file /home/bdw2292/miniconda3/envs/p4env/share/psi4/basis/aug-cc-pvtz-ri.gbs 
    atoms 38-68                                        entry H          line    30 file /home/bdw2292/miniconda3/envs/p4env/share/psi4/basis/aug-cc-pvtz-ri.gbs 

	 --------------------------------------------------------
	                          DF-MP2                         
	      2nd-Order Density-Fitted Moller-Plesset Theory     
	              RMP2 Wavefunction,   6 Threads             
	                                                         
	        Rob Parrish, Justin Turney, Andy Simmonett,      
	           Ed Hohenstein, and C. David Sherrill          
	 --------------------------------------------------------

   => Auxiliary Basis Set <=

  Basis Set: (6-311++G** AUX)
    Blend: AUG-CC-PVTZ-RI
    Number of shells: 1470
    Number of basis function: 5348
    Number of Cartesian functions: 6737
    Spherical Harmonics?: true
    Max angular momentum: 4

	 --------------------------------------------------------
	                 NBF =  1031, NAUX =  5348
	 --------------------------------------------------------
	   CLASS    FOCC     OCC    AOCC    AVIR     VIR    FVIR
	   PAIRS      37     131      94     900     900       0
	 --------------------------------------------------------

	-----------------------------------------------------------
	 ==================> DF-MP2 Energies <==================== 
	-----------------------------------------------------------
	 Reference Energy          =   -1572.2927679342053580 [Eh]
	 Singles Energy            =      -0.0000000000000000 [Eh]
	 Same-Spin Energy          =      -1.4703266861023017 [Eh]
	 Opposite-Spin Energy      =      -4.0499225485904766 [Eh]
	 Correlation Energy        =      -5.5202492346927787 [Eh]
	 Total Energy              =   -1577.8130171688981136 [Eh]
	-----------------------------------------------------------
	 ================> DF-SCS-MP2 Energies <================== 
	-----------------------------------------------------------
	 SCS Same-Spin Scale       =       0.3333333333333333 [-]
	 SCS Opposite-Spin Scale   =       1.2000000000000000 [-]
	 SCS Same-Spin Energy      =      -0.4901088953674338 [Eh]
	 SCS Opposite-Spin Energy  =      -4.8599070583085719 [Eh]
	 SCS Correlation Energy    =      -5.3500159536760057 [Eh]
	 SCS Total Energy          =   -1577.6427838878812508 [Eh]
	-----------------------------------------------------------


*** tstop() called on node46.bme.utexas.edu at Tue Mar  3 18:24:09 2020
Module time:
	user time   =    2654.49 seconds =      44.24 minutes
	system time =      24.85 seconds =       0.41 minutes
	total time  =        480 seconds =       8.00 minutes
Total time:
	user time   =    7046.99 seconds =     117.45 minutes
	system time =     130.37 seconds =       2.17 minutes
	total time  =       1329 seconds =      22.15 minutes


Properties will be evaluated at   0.000000,   0.000000,   0.000000 [a0]
OEProp: No title given, name of density matrix used for the following properties is 'SCF density'


  Wiberg Bond Indices using Orthogonal Lowdin Orbitals:

  Irrep: 1 Size: 68 x 68

                 1                   2                   3                   4                   5

    1     0.00000000000000     1.46837239997773     0.12486775690945     0.13965100428072     0.12490472528948
    2     1.46837239997773     0.00000000000000     1.39828848758859     0.12785621608992     0.12258313215174
    3     0.12486775690945     1.39828848758859     0.00000000000000     1.36187203424884     0.12007120614974
    4     0.13965100428072     0.12785621608992     1.36187203424884     0.00000000000000     1.66540626426376
    5     0.12490472528948     0.12258313215174     0.12007120614974     1.66540626426376     0.00000000000000
    6     1.46283516616642     0.13789314901843     0.13542979718409     0.15364723949041     1.63788717614650
    7     0.01478158559090     0.10360232169405     1.02250657457005     0.10345143743412     0.01396470133510
    8     0.00375250619950     0.04303800533020     0.09934859483160     0.02399388700923     0.00221715845533
    9     0.00037981533156     0.00498323030003     0.01512167259080     0.00412469381450     0.00067846485764
   10     0.00042454098623     0.00544727073570     0.00584037616132     0.00612926457553     0.00032423649251
   11     0.00087240384113     0.00334083337950     0.01805302909739     0.00668962650745     0.00042417173516
   12     0.00274236679888     0.02155013252957     0.11740234863657     0.05923053807214     0.00393499331794
   13     0.00017244267050     0.00046985128197     0.00161858813835     0.00073551012955     0.00008229631413
   14     0.00003518803544     0.00008944575581     0.00045949213733     0.00070882937563     0.00011931059983
   15     0.00006234175427     0.00011243599424     0.00070673957954     0.00255875562391     0.00032923421670
   16     0.00001659482781     0.00001856985634     0.00012839946535     0.00044257238140     0.00011801674298
   17     0.00000991005251     0.00001481051014     0.00003830959814     0.00009380793497     0.00001347874383
   18     0.00000659457497     0.00000659331178     0.00002616050017     0.00015016674981     0.00003933455964
   19     0.00001176211533     0.00002364176244     0.00006603774982     0.00006107806216     0.00001376771323
   20     0.00000073134462     0.00000102036814     0.00000527424553     0.00002332307116     0.00000608887636
   21     0.00000054655114     0.00000047827120     0.00000241385308     0.00001061866848     0.00000277305890
   22     0.00000005636947     0.00000005623236     0.00000030813651     0.00000068677449     0.00000017951138
   23     0.00000007539366     0.00000005051990     0.00000026667595     0.00000095857246     0.00000028307864
   24     0.00000001164690     0.00000001908508     0.00000003884559     0.00000011803050     0.00000008439211
   25     0.00000003256641     0.00000001659175     0.00000009774801     0.00000052312668     0.00000014424359
   26     0.00000001195637     0.00000001056521     0.00000003876687     0.00000009852835     0.00000005576989
   27     0.00000005555781     0.00000004582217     0.00000015705417     0.00000073808013     0.00000023361516
   28     0.00000000484002     0.00000000469312     0.00000001300150     0.00000004237178     0.00000001493105
   29     0.00000000272780     0.00000000198463     0.00000000715124     0.00000003477545     0.00000000950204
   30     0.00000000115806     0.00000000237860     0.00000001244960     0.00000000992350     0.00000000722097
   31     0.00000000114395     0.00000000157103     0.00000000785641     0.00000000676254     0.00000000469108
   32     0.00000000090279     0.00000000223078     0.00000000659644     0.00000000711379     0.00000000291239
   33     0.00000000028682     0.00000000045352     0.00000000203934     0.00000000369814     0.00000000143099
   34     0.00000000085599     0.00000000183307     0.00000000456100     0.00000000953782     0.00000000650646
   35     0.00000000203243     0.00000000248004     0.00000000602859     0.00000001604409     0.00000001295568
   36     0.00000024433501     0.00000022474245     0.00000135162586     0.00000553806739     0.00000169681096
   37     0.00057676191909     0.00039725744714     0.00437500046747     0.01760987997095     0.00149993690877
   38     0.88664441641725     0.07948850861428     0.01182437972400     0.00633042083897     0.01075147228936
   39     0.07814947629401     0.87051078106550     0.07247328941326     0.01161541141471     0.00394694771560
   40     0.00564728022266     0.01065935364847     0.07007769157052     0.85153258416939     0.08550756212085
   41     0.07750791079280     0.01192461252544     0.00609804213969     0.01576401587120     0.08757179775587
   42     0.00118631332825     0.01508300165650     0.01462183520316     0.00141311578700     0.00030825246443
   43     0.00004492200549     0.00029202929736     0.00146033379675     0.00031784747736     0.00008010518169
   44     0.00002507567582     0.00008141616383     0.00035334810165     0.00007722164504     0.00000803354500
   45     0.00000167695808     0.00000405344674     0.00001864462895     0.00004393804325     0.00000792875300
   46     0.00000041109292     0.00000072638024     0.00000603106924     0.00000858058732     0.00000090793505
   47     0.00000108037192     0.00000314483021     0.00001545364319     0.00001143219885     0.00000136494623
   48     0.00000009474127     0.00000021051731     0.00000096814511     0.00000221802949     0.00000057695542
   49     0.00000001115884     0.00000001123861     0.00000008773085     0.00000022509955     0.00000007110883
   50     0.00000000075377     0.00000000157604     0.00000000856402     0.00000000559544     0.00000000182759
   51     0.00000000055516     0.00000000041434     0.00000000234231     0.00000000620301     0.00000000496831
   52     0.00000000209833     0.00000000318344     0.00000001680373     0.00000003935785     0.00000000909171
   53     0.00000000033886     0.00000000063977     0.00000000150807     0.00000000457628     0.00000000170034
   54     0.00000000047119     0.00000000029545     0.00000000177520     0.00000000827105     0.00000000218807
   55     0.00000000015013     0.00000000028319     0.00000000096638     0.00000000096504     0.00000000093582
   56     0.00000000023145     0.00000000077611     0.00000000151198     0.00000000264778     0.00000000146877
   57     0.00000000033740     0.00000000042572     0.00000000111696     0.00000000078018     0.00000000058671
   58     0.00000000028831     0.00000000083727     0.00000000310939     0.00000000343822     0.00000000437099
   59     0.00000000007987     0.00000000016386     0.00000000050447     0.00000000089030     0.00000000038383
   60     0.00000000005252     0.00000000008640     0.00000000031739     0.00000000028177     0.00000000015945
   61     0.00000000007803     0.00000000009683     0.00000000033267     0.00000000076902     0.00000000021944
   62     0.00000000019899     0.00000000047297     0.00000000124637     0.00000000137810     0.00000000102357
   63     0.00000000046715     0.00000000083470     0.00000000166429     0.00000000503808     0.00000000309088
   64     0.00000000059078     0.00000000058346     0.00000000340792     0.00000001046335     0.00000000228977
   65     0.00000000017096     0.00000000010905     0.00000000031801     0.00000000082493     0.00000000078935
   66     0.00007489303247     0.00008892666684     0.00100580496193     0.00172597707504     0.00016466381088
   67     0.00033683840646     0.00028225982832     0.00266886062844     0.01385979184034     0.00175193900595
   68     0.00003550301716     0.00002237001887     0.00014383705498     0.00056341151593     0.00010221649615

                 6                   7                   8                   9                  10

    1     1.46283516616642     0.01478158559090     0.00375250619950     0.00037981533156     0.00042454098623
    2     0.13789314901843     0.10360232169405     0.04303800533020     0.00498323030003     0.00544727073570
    3     0.13542979718409     1.02250657457005     0.09934859483160     0.01512167259080     0.00584037616132
    4     0.15364723949041     0.10345143743412     0.02399388700923     0.00412469381450     0.00612926457553
    5     1.63788717614650     0.01396470133510     0.00221715845533     0.00067846485764     0.00032423649251
    6     0.00000000000000     0.00984904450675     0.00690678170651     0.00127838127609     0.00343347609531
    7     0.00984904450675     0.00000000000000     1.38696340208970     0.14665450952113     0.11328600769314
    8     0.00690678170651     1.38696340208970     0.00000000000000     1.43372178958991     0.13213011546237
    9     0.00127838127609     0.14665450952113     1.43372178958991     0.00000000000000     1.66643150523918
   10     0.00343347609531     0.11328600769314     0.13213011546237     1.66643150523918     0.00000000000000
   11     0.00085076785577     0.14330029620775     0.11382336940605     0.15151840431220     1.49695334732104
   12     0.00596506783597     1.52404080993111     0.12455613074937     0.10970863323599     0.10964706007213
   13     0.00006554563722     0.01931691776313     0.02083480869074     0.02520700280458     0.16723243020920
   14     0.00003230226531     0.00263199991167     0.00243053582632     0.00330380864134     0.01780386345445
   15     0.00006970284339     0.00214618884734     0.00192695275352     0.00106571325995     0.00365962911767
   16     0.00001632574980     0.00026264860793     0.00019256339456     0.00012480406493     0.00044457181003
   17     0.00000235437202     0.00022232661925     0.00106762858752     0.00033124355839     0.00108859062479
   18     0.00000568974952     0.00010501940151     0.00016615032378     0.00012736002603     0.00039136475680
   19     0.00000566737880     0.00054987183154     0.00163689308601     0.00091526884669     0.00339580667233
   20     0.00000094341190     0.00001614632314     0.00001493312605     0.00001580646831     0.00005348001644
   21     0.00000042659132     0.00000557355437     0.00000731937684     0.00000700027851     0.00001782997801
   22     0.00000005856758     0.00000095576228     0.00000108279802     0.00000138318408     0.00000353895897
   23     0.00000007364539     0.00000066957436     0.00000083568602     0.00000072224986     0.00000248892021
   24     0.00000002992444     0.00000011111860     0.00000012396751     0.00000013542698     0.00000064044968
   25     0.00000002429563     0.00000017942249     0.00000019053625     0.00000018652507     0.00000018856740
   26     0.00000001905367     0.00000007272352     0.00000012143993     0.00000010492173     0.00000023343259
   27     0.00000005304778     0.00000042702039     0.00000043276993     0.00000045703992     0.00000077317213
   28     0.00000000498770     0.00000003058051     0.00000003207733     0.00000002965194     0.00000006408931
   29     0.00000000205879     0.00000001404474     0.00000001537746     0.00000001442383     0.00000002766386
   30     0.00000000187394     0.00000002308809     0.00000001078397     0.00000000540525     0.00000002788449
   31     0.00000000127875     0.00000002100203     0.00000000917205     0.00000001268566     0.00000003952173
   32     0.00000000220054     0.00000001465770     0.00000000937158     0.00000001471869     0.00000003296506
   33     0.00000000051275     0.00000000247025     0.00000000234947     0.00000000599506     0.00000000997213
   34     0.00000000199338     0.00000001255873     0.00000000906073     0.00000001200342     0.00000002887003
   35     0.00000000520118     0.00000000713440     0.00000000925916     0.00000001785972     0.00000003410874
   36     0.00000025867026     0.00000431567375     0.00000919448341     0.00000275521188     0.00001184036073
   37     0.00037272049657     0.00855231243735     0.00137595919168     0.00104902489736     0.00171044386554
   38     0.08242990136831     0.00130855066591     0.00026120761753     0.00003983107544     0.00002589795306
   39     0.01164601923640     0.01615061432635     0.01566427844442     0.00123904244883     0.00041027193779
   40     0.01454600325340     0.01597101291071     0.00167232576590     0.00040734797407     0.00058479479789
   41     0.87989742990626     0.00055530791977     0.00027401974763     0.00005521131960     0.00010661284535
   42     0.00050639019840     0.07515747441906     0.87546899130814     0.08085197395635     0.01050798014654
   43     0.00004469201109     0.01182505966578     0.07652175586943     0.87508460058775     0.08937780360263
   44     0.00001006690348     0.00202928924668     0.00206327443753     0.00377841106250     0.03223477574045
   45     0.00000162383892     0.00004232803743     0.00002070166380     0.00002625755666     0.00006675248741
   46     0.00000020035318     0.00001650449307     0.00003368063498     0.00001370292391     0.00004549675247
   47     0.00000061780616     0.00007459524146     0.00010510742179     0.00007774939104     0.00030825126112
   48     0.00000013856325     0.00000358294700     0.00000221992232     0.00000272201322     0.00000613500868
   49     0.00000000914603     0.00000026031192     0.00000020594981     0.00000016715256     0.00000043726188
   50     0.00000000046873     0.00000002732489     0.00000001586040     0.00000001152651     0.00000003396517
   51     0.00000000205603     0.00000000767784     0.00000001646766     0.00000001073525     0.00000004446398
   52     0.00000000235996     0.00000006301320     0.00000005938373     0.00000003782139     0.00000009433886
   53     0.00000000033267     0.00000000227040     0.00000000252919     0.00000000191391     0.00000000573748
   54     0.00000000029639     0.00000000343786     0.00000000438343     0.00000000267295     0.00000000697869
   55     0.00000000025181     0.00000000296972     0.00000000182704     0.00000000205436     0.00000000251807
   56     0.00000000023230     0.00000000188093     0.00000000142360     0.00000000134723     0.00000000204633
   57     0.00000000033022     0.00000000407279     0.00000000324072     0.00000000345608     0.00000001979205
   58     0.00000000145328     0.00000001405975     0.00000001407809     0.00000002882536     0.00000005026029
   59     0.00000000009933     0.00000000065253     0.00000000038252     0.00000000073154     0.00000000190366
   60     0.00000000005072     0.00000000038541     0.00000000030629     0.00000000128158     0.00000000448833
   61     0.00000000009141     0.00000000052057     0.00000000038595     0.00000000144995     0.00000000683872
   62     0.00000000025624     0.00000000153058     0.00000000147172     0.00000000346340     0.00000001451932
   63     0.00000000093086     0.00000000495646     0.00000000498255     0.00000000982882     0.00000002385802
   64     0.00000000030588     0.00000000330184     0.00000000095071     0.00000000161977     0.00000000206680
   65     0.00000000035301     0.00000000084014     0.00000000070016     0.00000000108555     0.00000000330205
   66     0.00005300452356     0.00396665656566     0.00060528506067     0.00071605441950     0.00095332070812
   67     0.00031012026551     0.00219494025890     0.00032355745755     0.00019002055400     0.00032889880874
   68     0.00002913784829     0.00042517396255     0.00010774011369     0.00011969424694     0.00009392610382

                11                  12                  13                  14                  15

    1     0.00087240384113     0.00274236679888     0.00017244267050     0.00003518803544     0.00006234175427
    2     0.00334083337950     0.02155013252957     0.00046985128197     0.00008944575581     0.00011243599424
    3     0.01805302909739     0.11740234863657     0.00161858813835     0.00045949213733     0.00070673957954
    4     0.00668962650745     0.05923053807214     0.00073551012955     0.00070882937563     0.00255875562391
    5     0.00042417173516     0.00393499331794     0.00008229631413     0.00011931059983     0.00032923421670
    6     0.00085076785577     0.00596506783597     0.00006554563722     0.00003230226531     0.00006970284339
    7     0.14330029620775     1.52404080993111     0.01931691776313     0.00263199991167     0.00214618884734
    8     0.11382336940605     0.12455613074937     0.02083480869074     0.00243053582632     0.00192695275352
    9     0.15151840431220     0.10970863323599     0.02520700280458     0.00330380864134     0.00106571325995
   10     1.49695334732104     0.10964706007213     0.16723243020920     0.01780386345445     0.00365962911767
   11     0.00000000000000     1.54688714766330     1.26704983028485     0.08165223184757     0.02185676839044
   12     1.54688714766330     0.00000000000000     0.14058518690923     0.02544238290862     0.02054001610354
   13     1.26704983028485     0.14058518690923     0.00000000000000     1.12861798800450     0.10195451473118
   14     0.08165223184757     0.02544238290862     1.12861798800450     0.00000000000000     1.33128844967675
   15     0.02185676839044     0.02054001610354     0.10195451473118     1.33128844967675     0.00000000000000
   16     0.00209264357355     0.00195085988909     0.01357018634176     0.12778571379268     1.42584714303114
   17     0.00386166321132     0.00187965628279     0.01136634563721     0.11943880821524     0.12257562174684
   18     0.00227630224849     0.00076133500708     0.01425161498622     0.12155283699062     0.11977178386524
   19     0.01987365462867     0.00403026914899     0.12426064394276     1.39773773704554     0.12011989534346
   20     0.00028576051615     0.00010199257696     0.00159386734804     0.01438173844478     0.01106373658966
   21     0.00009167171098     0.00004133996882     0.00032927014705     0.00281421215459     0.00583178806904
   22     0.00001757425620     0.00000367787579     0.00006302629031     0.00036842697256     0.00027662026240
   23     0.00000512365530     0.00000377477630     0.00001360963499     0.00012317349374     0.00038971374169
   24     0.00000086269190     0.00000055309577     0.00000213339284     0.00001252425073     0.00004123598432
   25     0.00000108782350     0.00000126184600     0.00000171846835     0.00002980684762     0.00018990726149
   26     0.00000086605202     0.00000032908802     0.00000276258679     0.00001932915722     0.00003032183624
   27     0.00000444959427     0.00000183236139     0.00001336288708     0.00010218727816     0.00031146324037
   28     0.00000011865595     0.00000014741374     0.00000026228668     0.00000290850398     0.00001420534791
   29     0.00000008136222     0.00000007470778     0.00000011646794     0.00000190170178     0.00001055148763
   30     0.00000008947970     0.00000005134407     0.00000012029948     0.00000049823942     0.00000183867284
   31     0.00000004317985     0.00000005433527     0.00000009472665     0.00000073869412     0.00000056763725
   32     0.00000003899609     0.00000001805883     0.00000004331235     0.00000069469518     0.00000039805172
   33     0.00000001704180     0.00000000705653     0.00000001346879     0.00000020208297     0.00000015365432
   34     0.00000004127857     0.00000001934241     0.00000004649431     0.00000082110102     0.00000072835136
   35     0.00000003677581     0.00000002329254     0.00000009011795     0.00000052392679     0.00000150309015
   36     0.00004096489192     0.00002472601100     0.00017342547802     0.00102505862676     0.00352535817448
   37     0.01915566029630     0.04993733021755     0.02569409407607     0.09410108518512     1.05124764532822
   38     0.00009001803946     0.00031050386621     0.00001591885829     0.00000598739171     0.00001105749521
   39     0.00029096757637     0.00107924458965     0.00006873028792     0.00001839806859     0.00001316707638
   40     0.00262149330883     0.02409415982020     0.00025800356482     0.00051712744676     0.00212942278443
   41     0.00004249862028     0.00024314616387     0.00000461957420     0.00000303962663     0.00000634567497
   42     0.00576025008406     0.01066228000546     0.00106514997952     0.00012131560559     0.00009024750993
   43     0.01578946188560     0.00397430447084     0.00140403912589     0.00039665869219     0.00008207304342
   44     0.07065540650422     0.01140806308057     0.93584326385909     0.06448170224270     0.01105263199930
   45     0.00025254282780     0.00019069713484     0.00108164769979     0.01120583080889     0.07359681488605
   46     0.00014305013413     0.00007782144385     0.00049486799115     0.00520695990571     0.01043101616594
   47     0.00243962778468     0.00038482456921     0.02330263510935     0.07505071567045     0.01071858310435
   48     0.00004590492334     0.00001551819227     0.00022708879952     0.00203595662242     0.00114196170900
   49     0.00000164500757     0.00000139895530     0.00000639107040     0.00003781624020     0.00011774833852
   50     0.00000008768965     0.00000003476742     0.00000029976057     0.00000149384556     0.00000158558150
   51     0.00000013951557     0.00000003213010     0.00000057866852     0.00000290325598     0.00000175450314
   52     0.00000056662437     0.00000019883211     0.00000234661652     0.00001453421805     0.00001948071137
   53     0.00000001668508     0.00000001382130     0.00000005216839     0.00000042322545     0.00000150118565
   54     0.00000001640172     0.00000001506266     0.00000004411442     0.00000043186178     0.00000227836364
   55     0.00000000458997     0.00000000706676     0.00000000765175     0.00000007380323     0.00000018915969
   56     0.00000000664010     0.00000000797591     0.00000001097721     0.00000009155397     0.00000044871605
   57     0.00000002076435     0.00000001541276     0.00000001228596     0.00000006327755     0.00000018514946
   58     0.00000003900596     0.00000005977893     0.00000006762658     0.00000062187686     0.00000093534477
   59     0.00000000571172     0.00000000143021     0.00000000343076     0.00000005305530     0.00000003214475
   60     0.00000000419908     0.00000000150154     0.00000000340562     0.00000001470695     0.00000000777030
   61     0.00000000444045     0.00000000132244     0.00000000219250     0.00000000690087     0.00000001581390
   62     0.00000000840791     0.00000000458654     0.00000000888872     0.00000009261292     0.00000015887915
   63     0.00000003181818     0.00000001849372     0.00000007182834     0.00000063573923     0.00000100750841
   64     0.00000001097354     0.00000000487054     0.00000000678687     0.00000020395577     0.00000055992712
   65     0.00000000530270     0.00000000222751     0.00000001199393     0.00000008511187     0.00000011737257
   66     0.01051562167965     0.02150220683062     0.00871612672844     0.01561204847890     0.05644686336864
   67     0.00290977420432     0.01280603435513     0.00161488730380     0.01359873084972     0.05763880707812
   68     0.00075706301955     0.00264423869602     0.00097212047974     0.01107374181357     0.05863634597539

                16                  17                  18                  19                  20

    1     0.00001659482781     0.00000991005251     0.00000659457497     0.00001176211533     0.00000073134462
    2     0.00001856985634     0.00001481051014     0.00000659331178     0.00002364176244     0.00000102036814
    3     0.00012839946535     0.00003830959814     0.00002616050017     0.00006603774982     0.00000527424553
    4     0.00044257238140     0.00009380793497     0.00015016674981     0.00006107806216     0.00002332307116
    5     0.00011801674298     0.00001347874383     0.00003933455964     0.00001376771323     0.00000608887636
    6     0.00001632574980     0.00000235437202     0.00000568974952     0.00000566737880     0.00000094341190
    7     0.00026264860793     0.00022232661925     0.00010501940151     0.00054987183154     0.00001614632314
    8     0.00019256339456     0.00106762858752     0.00016615032378     0.00163689308601     0.00001493312605
    9     0.00012480406493     0.00033124355839     0.00012736002603     0.00091526884669     0.00001580646831
   10     0.00044457181003     0.00108859062479     0.00039136475680     0.00339580667233     0.00005348001644
   11     0.00209264357355     0.00386166321132     0.00227630224849     0.01987365462867     0.00028576051615
   12     0.00195085988909     0.00187965628279     0.00076133500708     0.00403026914899     0.00010199257696
   13     0.01357018634176     0.01136634563721     0.01425161498622     0.12426064394276     0.00159386734804
   14     0.12778571379268     0.11943880821524     0.12155283699062     1.39773773704554     0.01438173844478
   15     1.42584714303114     0.12257562174684     0.11977178386524     0.12011989534346     0.01106373658966
   16     0.00000000000000     1.45858210763483     0.13476014377988     0.12843014610406     0.01384130802092
   17     1.45858210763483     0.00000000000000     1.39189622041059     0.12118076799355     0.10345771546663
   18     0.13476014377988     1.39189622041059     0.00000000000000     1.37518686625058     1.12364320798604
   19     0.12843014610406     0.12118076799355     1.37518686625058     0.00000000000000     0.12389301327799
   20     0.01384130802092     0.10345771546663     1.12364320798604     0.12389301327799     0.00000000000000
   21     0.00286355478683     0.03164935100797     0.08631561700668     0.02269237745508     1.31449384750271
   22     0.00036404780857     0.00328652123834     0.01446128754337     0.00202748176951     0.10203780711379
   23     0.00014510356413     0.00122277150358     0.00356457828332     0.00102313622792     0.04116302225388
   24     0.00002302699727     0.00016493390398     0.00039265712207     0.00012104083122     0.00349539320656
   25     0.00002953085686     0.00028256157573     0.00038651145379     0.00025286077494     0.00346408680698
   26     0.00002022133288     0.00013118376778     0.00048003715923     0.00011050429804     0.00241295490705
   27     0.00010587514184     0.00089412511800     0.00225826422649     0.00067409837790     0.01754194840107
   28     0.00000281103707     0.00002438312854     0.00003749922162     0.00002015244723     0.00027485953411
   29     0.00000169035001     0.00001429946349     0.00001990499207     0.00001300081714     0.00016532671031
   30     0.00000043333760     0.00000284170130     0.00000426495637     0.00000248048104     0.00003196943227
   31     0.00000046610258     0.00000269928886     0.00000402319413     0.00000271545326     0.00003167594383
   32     0.00000012689602     0.00000091523336     0.00000273541634     0.00000112827502     0.00000790024879
   33     0.00000006417809     0.00000045286399     0.00000060261576     0.00000038082963     0.00000194616181
   34     0.00000044360099     0.00000244506908     0.00000503114694     0.00000319866467     0.00003107780656
   35     0.00000055680387     0.00000347747153     0.00000579170662     0.00000246690663     0.00003431781532
   36     0.00387439555089     0.05221626188865     0.03255569664070     0.00544347562945     0.19213433179714
   37     0.12044645272408     0.01536822781628     0.00726560529896     0.01322814936368     0.00067714937186
   38     0.00000218655597     0.00000037366604     0.00000043875515     0.00000078727391     0.00000006672429
   39     0.00000212126388     0.00000102147561     0.00000050946751     0.00000340573763     0.00000012107539
   40     0.00038626885770     0.00003800029356     0.00007509888534     0.00003443122724     0.00001086776187
   41     0.00000231787469     0.00000021901832     0.00000052415905     0.00000047430638     0.00000010135395
   42     0.00001311950077     0.00003864734874     0.00000930375532     0.00006709378155     0.00000094908584
   43     0.00001272451598     0.00001234449676     0.00001346554030     0.00006300433733     0.00000164240958
   44     0.00150880202361     0.00146910584370     0.00198018552403     0.02025634967816     0.00023869727362
   45     0.86833779704923     0.07968518524897     0.01175270810128     0.00546739494506     0.00104114553166
   46     0.07768127398728     0.85750106799237     0.07493028992044     0.01120104159835     0.01465939736614
   47     0.00614685266707     0.01103693187845     0.07312111975157     0.85915959506174     0.02354563981806
   48     0.00141697593750     0.01017591650069     0.06218310044505     0.02126335691382     0.93997215641279
   49     0.00005513815582     0.00037001163322     0.00134838236168     0.00041924600660     0.01517525965099
   50     0.00000237004878     0.00001439898872     0.00003191212475     0.00001034775326     0.00021145477003
   51     0.00000245265721     0.00001584358558     0.00006593661140     0.00001730415024     0.00027860178494
   52     0.00002789569362     0.00019377612793     0.00025493394798     0.00007140735181     0.00162847970946
   53     0.00000050961377     0.00000352591835     0.00000632657470     0.00000269592554     0.00003409248865
   54     0.00000048161368     0.00000435015117     0.00000693244297     0.00000368022458     0.00005315396333
   55     0.00000006801757     0.00000038787584     0.00000072854836     0.00000031019026     0.00000484227274
   56     0.00000011913137     0.00000064669596     0.00000072223013     0.00000070666964     0.00000728572539
   57     0.00000004955305     0.00000030801351     0.00000026718095     0.00000045227839     0.00000234829439
   58     0.00000071799784     0.00000445442893     0.00000630570375     0.00000379206407     0.00002989385226
   59     0.00000001754259     0.00000009026869     0.00000008698230     0.00000010203537     0.00000038732270
   60     0.00000000624484     0.00000004654465     0.00000009208400     0.00000003338284     0.00000033053260
   61     0.00000001070108     0.00000004749893     0.00000008500422     0.00000002711061     0.00000031250143
   62     0.00000003859652     0.00000029714908     0.00000036052499     0.00000025740824     0.00000242000507
   63     0.00000038094487     0.00000330349475     0.00000587305512     0.00000346845275     0.00003224118994
   64     0.00000014521701     0.00000107212925     0.00000084876456     0.00000089807998     0.00000805803885
   65     0.00000008634363     0.00000046940802     0.00000137158448     0.00000041580494     0.00000786060329
   66     0.01058687092452     0.00132667577033     0.00086518457887     0.00116901591815     0.00011134104216
   67     0.01768477213132     0.00129317729112     0.00342513062576     0.00118148965989     0.00040104237140
   68     0.02485226661270     0.00213638364711     0.00159147289290     0.00115995182913     0.00019916678329

                21                  22                  23                  24                  25

    1     0.00000054655114     0.00000005636947     0.00000007539366     0.00000001164690     0.00000003256641
    2     0.00000047827120     0.00000005623236     0.00000005051990     0.00000001908508     0.00000001659175
    3     0.00000241385308     0.00000030813651     0.00000026667595     0.00000003884559     0.00000009774801
    4     0.00001061866848     0.00000068677449     0.00000095857246     0.00000011803050     0.00000052312668
    5     0.00000277305890     0.00000017951138     0.00000028307864     0.00000008439211     0.00000014424359
    6     0.00000042659132     0.00000005856758     0.00000007364539     0.00000002992444     0.00000002429563
    7     0.00000557355437     0.00000095576228     0.00000066957436     0.00000011111860     0.00000017942249
    8     0.00000731937684     0.00000108279802     0.00000083568602     0.00000012396751     0.00000019053625
    9     0.00000700027851     0.00000138318408     0.00000072224986     0.00000013542698     0.00000018652507
   10     0.00001782997801     0.00000353895897     0.00000248892021     0.00000064044968     0.00000018856740
   11     0.00009167171098     0.00001757425620     0.00000512365530     0.00000086269190     0.00000108782350
   12     0.00004133996882     0.00000367787579     0.00000377477630     0.00000055309577     0.00000126184600
   13     0.00032927014705     0.00006302629031     0.00001360963499     0.00000213339284     0.00000171846835
   14     0.00281421215459     0.00036842697256     0.00012317349374     0.00001252425073     0.00002980684762
   15     0.00583178806904     0.00027662026240     0.00038971374169     0.00004123598432     0.00018990726149
   16     0.00286355478683     0.00036404780857     0.00014510356413     0.00002302699727     0.00002953085686
   17     0.03164935100797     0.00328652123834     0.00122277150358     0.00016493390398     0.00028256157573
   18     0.08631561700668     0.01446128754337     0.00356457828332     0.00039265712207     0.00038651145379
   19     0.02269237745508     0.00202748176951     0.00102313622792     0.00012104083122     0.00025286077494
   20     1.31449384750271     0.10203780711379     0.04116302225388     0.00349539320656     0.00346408680698
   21     0.00000000000000     0.97376277399968     0.10508059523334     0.01449329723230     0.01106249393818
   22     0.97376277399968     0.00000000000000     1.40272330943951     0.12761148719316     0.12408682245690
   23     0.10508059523334     1.40272330943951     0.00000000000000     1.46095210326812     0.12597066073955
   24     0.01449329723230     0.12761148719316     1.46095210326812     0.00000000000000     1.40235894157387
   25     0.01106249393818     0.12408682245690     0.12597066073955     1.40235894157387     0.00000000000000
   26     0.01475921045821     0.12704645367865     0.12953324305593     0.12529027967547     1.39660171015150
   27     0.11088019654887     1.38438621266893     0.12363275518730     0.13066881156835     0.12745739042584
   28     0.00072531985841     0.00907566111474     0.01448135501276     0.10886463165877     1.01647954702804
   29     0.00039281943723     0.00442353498230     0.00202318884991     0.02204671732132     0.08787344662950
   30     0.00008502057439     0.00095572744646     0.00182435632558     0.01458026686294     0.01972637715296
   31     0.00007218239511     0.00130706217917     0.00824572322716     0.02271256150910     0.01691249003945
   32     0.00006251637045     0.00065039716305     0.00091284455660     0.00257060066107     0.00389476155212
   33     0.00000812451606     0.00010601956201     0.00021622323456     0.00064141302961     0.00105289592077
   34     0.00010166196733     0.00219157690772     0.00219549797418     0.00625735086981     0.02109599406034
   35     0.00010016021592     0.00106260654492     0.00097252246830     0.00488381784748     0.02136784798161
   36     2.17451113927203     0.13800110563524     0.02604495206334     0.00332014777183     0.00639261258452
[...]
   15     0.00000044871605     0.00000018514946     0.00000093534477     0.00000003214475     0.00000000777030
   16     0.00000011913137     0.00000004955305     0.00000071799784     0.00000001754259     0.00000000624484
   17     0.00000064669596     0.00000030801351     0.00000445442893     0.00000009026869     0.00000004654465
   18     0.00000072223013     0.00000026718095     0.00000630570375     0.00000008698230     0.00000009208400
   19     0.00000070666964     0.00000045227839     0.00000379206407     0.00000010203537     0.00000003338284
   20     0.00000728572539     0.00000234829439     0.00002989385226     0.00000038732270     0.00000033053260
   21     0.00002617941567     0.00000689720829     0.00006276609047     0.00000182530504     0.00000071868076
   22     0.00024169378090     0.00010871703451     0.00125875265350     0.00001205037964     0.00001146934448
   23     0.00034134118748     0.00022595160885     0.00698798254227     0.00002222431659     0.00002884021882
   24     0.00079930571394     0.00071474544499     0.01893882394926     0.00008196125130     0.00007471183876
   25     0.00146122626140     0.00058560610334     0.01007835373691     0.00017534806150     0.00010024086945
   26     0.00050268495700     0.00019186961325     0.00265556106391     0.00008236644978     0.00004064983003
   27     0.00014629108799     0.00009620805043     0.00173285052716     0.00002326288334     0.00002472493628
   28     0.01243206083175     0.00102347747850     0.00558760156294     0.00069709860618     0.00012275446563
   29     0.06556643255445     0.01366382995905     0.01214784281356     0.00333040334381     0.00074838773641
   30     0.77373912253816     0.05863894612744     0.04679269246674     0.01303061411455     0.00409525801779
   31     0.05132810101558     0.82276211231272     0.82918462304164     0.01656059365352     0.02160077831839
   32     0.01417811509728     0.05143428432473     0.05963345242574     0.06739420046850     0.06246223840874
   33     0.01607269128540     0.02460212010815     0.01136538055800     0.91076467656629     0.91981556743989
   34     0.00841311930893     0.01576898112611     0.01891027148912     0.01663106091744     0.01275827828875
   35     0.02344391531656     0.00183492840426     0.00707020614249     0.01271844894865     0.00180480243971
   36     0.00001583140610     0.00000502131000     0.00003901839031     0.00000107303677     0.00000054620144
   37     0.00000002821020     0.00000001905682     0.00000012303897     0.00000000398924     0.00000000193634
   38     0.00000000002474     0.00000000000916     0.00000000002760     0.00000000000933     0.00000000000436
   39     0.00000000003422     0.00000000002723     0.00000000003670     0.00000000000418     0.00000000000234
   40     0.00000000052847     0.00000000016402     0.00000000103511     0.00000000022056     0.00000000003112
   41     0.00000000001881     0.00000000001847     0.00000000006505     0.00000000000946     0.00000000000280
   42     0.00000000004869     0.00000000011910     0.00000000029455     0.00000000003683     0.00000000002683
   43     0.00000000003857     0.00000000023975     0.00000000270526     0.00000000004145     0.00000000004417
   44     0.00000000221281     0.00000000635363     0.00000001517910     0.00000000082004     0.00000000121060
   45     0.00000000910885     0.00000000168869     0.00000009003206     0.00000000195522     0.00000000031248
   46     0.00000005728689     0.00000002818584     0.00000173316805     0.00000000795008     0.00000000637863
   47     0.00000019769155     0.00000059651997     0.00000183316828     0.00000001579757     0.00000009251863
   48     0.00001595147889     0.00000621866463     0.00001524748263     0.00000031094914     0.00000034921914
   49     0.00004745601686     0.00002379490657     0.00054661942855     0.00000206080031     0.00000230951694
   50     0.00009920328808     0.00018635139704     0.00370879499645     0.00003830834679     0.00001956353597
   51     0.00013309022523     0.00001584007212     0.00015242480945     0.00003367287106     0.00000689349138
   52     0.00001341935723     0.00000338884430     0.00004717366278     0.00000228640290     0.00000128091653
   53     0.00124285226142     0.00008798603250     0.00084263162605     0.00006477594794     0.00002010583183
   54     0.00049640731711     0.00041995638795     0.00032552247767     0.00006557343777     0.00002393308818
   55     0.02485573355760     0.00599614801899     0.00775921217357     0.00060594163256     0.00017243663844
   56     0.00000000000000     0.01051313147746     0.01714821125179     0.00831918493029     0.00169935371735
   57     0.01051313147746     0.00000000000000     0.02012264753928     0.00340657163412     0.00799888505248
   58     0.01714821125179     0.02012264753928     0.00000000000000     0.00094994209365     0.00103860974037
   59     0.00831918493029     0.00340657163412     0.00094994209365     0.00000000000000     0.03490938813823
   60     0.00169935371735     0.00799888505248     0.00103860974037     0.03490938813823     0.00000000000000
   61     0.00072001134752     0.00123376126222     0.00070918078878     0.03495841485854     0.03780906485207
   62     0.00040373296195     0.00151342357017     0.00093196472892     0.00319410785797     0.00114989000585
   63     0.00083186066069     0.00102989199494     0.00490776632873     0.00099520236829     0.00066862209076
   64     0.00638680312958     0.00041191295143     0.00094691962819     0.00809196196772     0.00068233037901
   65     0.00095325618021     0.00042250559866     0.00044800130204     0.00057367397330     0.00022162995423
   66     0.00000000413978     0.00000000105855     0.00000000697836     0.00000000034708     0.00000000011865
   67     0.00000002254344     0.00000000894593     0.00000002518715     0.00000000170032     0.00000000028024
   68     0.00000000948462     0.00000000364603     0.00000001739023     0.00000000089785     0.00000000034616

                61                  62                  63                  64                  65

    1     0.00000000007803     0.00000000019899     0.00000000046715     0.00000000059078     0.00000000017096
    2     0.00000000009683     0.00000000047297     0.00000000083470     0.00000000058346     0.00000000010905
    3     0.00000000033267     0.00000000124637     0.00000000166429     0.00000000340792     0.00000000031801
    4     0.00000000076902     0.00000000137810     0.00000000503808     0.00000001046335     0.00000000082493
    5     0.00000000021944     0.00000000102357     0.00000000309088     0.00000000228977     0.00000000078935
    6     0.00000000009141     0.00000000025624     0.00000000093086     0.00000000030588     0.00000000035301
    7     0.00000000052057     0.00000000153058     0.00000000495646     0.00000000330184     0.00000000084014
    8     0.00000000038595     0.00000000147172     0.00000000498255     0.00000000095071     0.00000000070016
    9     0.00000000144995     0.00000000346340     0.00000000982882     0.00000000161977     0.00000000108555
   10     0.00000000683872     0.00000001451932     0.00000002385802     0.00000000206680     0.00000000330205
   11     0.00000000444045     0.00000000840791     0.00000003181818     0.00000001097354     0.00000000530270
   12     0.00000000132244     0.00000000458654     0.00000001849372     0.00000000487054     0.00000000222751
   13     0.00000000219250     0.00000000888872     0.00000007182834     0.00000000678687     0.00000001199393
   14     0.00000000690087     0.00000009261292     0.00000063573923     0.00000020395577     0.00000008511187
   15     0.00000001581390     0.00000015887915     0.00000100750841     0.00000055992712     0.00000011737257
   16     0.00000001070108     0.00000003859652     0.00000038094487     0.00000014521701     0.00000008634363
   17     0.00000004749893     0.00000029714908     0.00000330349475     0.00000107212925     0.00000046940802
   18     0.00000008500422     0.00000036052499     0.00000587305512     0.00000084876456     0.00000137158448
   19     0.00000002711061     0.00000025740824     0.00000346845275     0.00000089807998     0.00000041580494
   20     0.00000031250143     0.00000242000507     0.00003224118994     0.00000805803885     0.00000786060329
   21     0.00000104030110     0.00001128358917     0.00011798684805     0.00003808676257     0.00001931814501
   22     0.00001323023369     0.00013998190788     0.00247949614478     0.00030128523436     0.00018635981611
   23     0.00002408118731     0.00011858745463     0.00234623445263     0.00022973199385     0.00019681384844
   24     0.00004560772323     0.00028589176555     0.00492024499129     0.00059321232762     0.00056250080425
   25     0.00010487031450     0.00071921796173     0.01413672177687     0.00147523390990     0.00570124269851
   26     0.00007080374316     0.00073749487641     0.02076841129842     0.00091554514566     0.00560622054195
   27     0.00003512624395     0.00025634851377     0.00875119649959     0.00040818248128     0.00045712284175
   28     0.00012212921286     0.00105908207692     0.00649391871752     0.01224022663405     0.01902941276742
   29     0.00071161254822     0.01247644042392     0.01202890339372     0.06523134459934     0.05997093183398
   30     0.00182542740955     0.00200044070603     0.00722047755510     0.02342243924367     0.01198299287343
   31     0.01279888845804     0.01495814643455     0.01848146958996     0.00838087245409     0.00268570209559
   32     0.06262757909122     0.05257292443006     0.05979998910403     0.01386026952360     0.01004693966601
   33     0.91972684283702     0.02270030824172     0.01227657479555     0.01581497364847     0.00173934280567
   34     0.02055986770590     0.84167548611401     0.78345319311915     0.05012493572749     0.06225959008367
   35     0.00395237592931     0.05743763715420     0.04426763071528     0.77047075526510     0.89797929742043
   36     0.00000057101142     0.00000471291404     0.00008140215977     0.00001530969742     0.00000616112771
   37     0.00000000228807     0.00000001279451     0.00000008973488     0.00000003886140     0.00000000984288
   38     0.00000000000433     0.00000000001044     0.00000000002819     0.00000000000983     0.00000000000877
   39     0.00000000000368     0.00000000002093     0.00000000007183     0.00000000001762     0.00000000002361
   40     0.00000000016084     0.00000000036181     0.00000000234896     0.00000000338744     0.00000000029819
   41     0.00000000000242     0.00000000001982     0.00000000006045     0.00000000003818     0.00000000001752
   42     0.00000000002761     0.00000000012075     0.00000000021654     0.00000000011370     0.00000000008582
   43     0.00000000004031     0.00000000012367     0.00000000028865     0.00000000014682     0.00000000012526
   44     0.00000000154551     0.00000000161611     0.00000001355374     0.00000000542500     0.00000000148355
   45     0.00000000067471     0.00000000323874     0.00000004878904     0.00000000617012     0.00000001823576
   46     0.00000000646529     0.00000002802558     0.00000100837015     0.00000007824339     0.00000019547729
   47     0.00000000813221     0.00000002545492     0.00000031606939     0.00000005329004     0.00000006416839
   48     0.00000016955710     0.00000151014358     0.00000907049461     0.00000404307622     0.00000133925267
   49     0.00000119040300     0.00000529827252     0.00007113919930     0.00001834175682     0.00002186364865
   50     0.00001061697586     0.00002009438420     0.00038729897340     0.00014856331111     0.00007593183314
   51     0.00001557015064     0.00011920680840     0.00343039159024     0.00010768431101     0.00234744463582
   52     0.00000311476255     0.00002665494954     0.00068854921682     0.00004999594251     0.00002778063572
   53     0.00002214463023     0.00036271468740     0.00038944144337     0.00055205727348     0.00108127100954
   54     0.00002148907885     0.00010361980888     0.00088467138259     0.00121997768317     0.00541839834165
   55     0.00021972295180     0.00038334106025     0.00048148920952     0.00095272579836     0.00112917379169
   56     0.00072001134752     0.00040373296195     0.00083186066069     0.00638680312958     0.00095325618021
   57     0.00123376126222     0.00151342357017     0.00102989199494     0.00041191295143     0.00042250559866
   58     0.00070918078878     0.00093196472892     0.00490776632873     0.00094691962819     0.00044800130204
   59     0.03495841485854     0.00319410785797     0.00099520236829     0.00809196196772     0.00057367397330
   60     0.03780906485207     0.00114989000585     0.00066862209076     0.00068233037901     0.00022162995423
   61     0.00000000000000     0.00722055225202     0.00105873065220     0.00171849851447     0.00016059589379
   62     0.00722055225202     0.00000000000000     0.01806618913913     0.01000457255154     0.00579659048212
   63     0.00105873065220     0.01806618913913     0.00000000000000     0.02253892012004     0.00839412560658
   64     0.00171849851447     0.01000457255154     0.02253892012004     0.00000000000000     0.02447342570782
   65     0.00016059589379     0.00579659048212     0.00839412560658     0.02447342570782     0.00000000000000
   66     0.00000000014720     0.00000000178463     0.00000001062653     0.00000000515060     0.00000000210887
   67     0.00000000045076     0.00000000764597     0.00000003977787     0.00000002831694     0.00000000533419
   68     0.00000000060393     0.00000000436311     0.00000002475344     0.00000001463079     0.00000000262399

                66                  67                  68

    1     0.00007489303247     0.00033683840646     0.00003550301716
    2     0.00008892666684     0.00028225982832     0.00002237001887
    3     0.00100580496193     0.00266886062844     0.00014383705498
    4     0.00172597707504     0.01385979184034     0.00056341151593
    5     0.00016466381088     0.00175193900595     0.00010221649615
    6     0.00005300452356     0.00031012026551     0.00002913784829
    7     0.00396665656566     0.00219494025890     0.00042517396255
    8     0.00060528506067     0.00032355745755     0.00010774011369
    9     0.00071605441950     0.00019002055400     0.00011969424694
   10     0.00095332070812     0.00032889880874     0.00009392610382
   11     0.01051562167965     0.00290977420432     0.00075706301955
   12     0.02150220683062     0.01280603435513     0.00264423869602
   13     0.00871612672844     0.00161488730380     0.00097212047974
   14     0.01561204847890     0.01359873084972     0.01107374181357
   15     0.05644686336864     0.05763880707812     0.05863634597539
   16     0.01058687092452     0.01768477213132     0.02485226661270
   17     0.00132667577033     0.00129317729112     0.00213638364711
   18     0.00086518457887     0.00342513062576     0.00159147289290
   19     0.00116901591815     0.00118148965989     0.00115995182913
   20     0.00011134104216     0.00040104237140     0.00019916678329
   21     0.00006662050606     0.00024520477336     0.00011764980437
   22     0.00000546151529     0.00001342000460     0.00000980254799
   23     0.00000484691805     0.00001813469754     0.00000833299605
   24     0.00000052630301     0.00000192248987     0.00000102628631
   25     0.00000157039504     0.00000907936645     0.00000396823577
   26     0.00000039030294     0.00000136500377     0.00000067341635
   27     0.00000306159769     0.00001429727659     0.00000709347237
   28     0.00000014774516     0.00000064498417     0.00000035347010
   29     0.00000007855745     0.00000050937740     0.00000022652360
   30     0.00000001179120     0.00000009964077     0.00000005839135
   31     0.00000001154432     0.00000002622366     0.00000001069230
   32     0.00000000385786     0.00000001261052     0.00000001137894
   33     0.00000000168236     0.00000000609739     0.00000000455938
   34     0.00000001463225     0.00000003576722     0.00000002271338
   35     0.00000000947665     0.00000007055231     0.00000003393134
   36     0.00005258990802     0.00014069593948     0.00006819906691
   37     0.89948010822309     0.90369965308391     0.91482978007761
   38     0.00000500144481     0.00002571101458     0.00000213931119
   39     0.00001234632871     0.00002850740937     0.00000411108269
   40     0.00128104724865     0.00958624031242     0.00053508202009
   41     0.00000343844318     0.00002167426256     0.00000238667906
   42     0.00004005126854     0.00004490711997     0.00001414297703
   43     0.00003332682597     0.00002089045163     0.00000772247579
   44     0.00053167655769     0.00014846463443     0.00014150639161
   45     0.00132185515884     0.00258906115720     0.00702897280870
   46     0.00027168700895     0.00013460090133     0.00012199802941
   47     0.00022375043175     0.00021218756049     0.00030516611976
   48     0.00003048817997     0.00004773695737     0.00004349957201
   49     0.00000209569602     0.00000607870808     0.00000183997376
   50     0.00000005010358     0.00000008651118     0.00000004685572
   51     0.00000007487695     0.00000009564422     0.00000008776785
   52     0.00000080304770     0.00000076217291     0.00000058638994
   53     0.00000002198177     0.00000007911890     0.00000002936129
   54     0.00000002281006     0.00000012270087     0.00000004329289
   55     0.00000000133306     0.00000001054019     0.00000000470003
   56     0.00000000413978     0.00000002254344     0.00000000948462
   57     0.00000000105855     0.00000000894593     0.00000000364603
   58     0.00000000697836     0.00000002518715     0.00000001739023
   59     0.00000000034708     0.00000000170032     0.00000000089785
   60     0.00000000011865     0.00000000028024     0.00000000034616
   61     0.00000000014720     0.00000000045076     0.00000000060393
   62     0.00000000178463     0.00000000764597     0.00000000436311
   63     0.00000001062653     0.00000003977787     0.00000002475344
   64     0.00000000515060     0.00000002831694     0.00000001463079
   65     0.00000000210887     0.00000000533419     0.00000000262399
   66     0.00000000000000     0.03501424873076     0.03966681089586
   67     0.03501424873076     0.00000000000000     0.03826616910563
   68     0.03966681089586     0.03826616910563     0.00000000000000



  Atomic Valences: 

 #  #
 Irrep: 1
      1:  4.3941336
      2:  4.4265311
      3:  4.6069993
      4:  4.5777218
      5:  3.8848271
      6:  4.5460236
      7:  4.7459380
      8:  4.3732420
      9:  4.5293569
     10:  3.8709169
     11:  5.0132973
     12:  3.9603670
     13:  4.0403588
     14:  4.6735045
     15:  4.6316730
     16:  4.4452290
     17:  4.4077169
     18:  4.6645646
     19:  4.3885740
     20:  4.0680591
     21:  5.0007207
     22:  4.6169287
     23:  4.4423372
     24:  4.4728119
     25:  4.7152552
     26:  4.4723153
     27:  4.4359734
     28:  4.4922516
     29:  4.2524128
     30:  4.5628900
     31:  4.5763386
     32:  4.2263768
     33:  4.2980824
     34:  4.5707972
     35:  4.5595783
     36:  2.7726738
     37:  4.1931890
     38:  1.0989898
     39:  1.1032996
     40:  1.1133452
     41:  1.0912533
     42:  1.1108593
     43:  1.0866026
     44:  1.1699065
     45:  1.0987414
     46:  1.1069844
     47:  1.1073901
     48:  1.1813462
     49:  1.1047537
     50:  1.1062559
     51:  1.1049560
     52:  1.0976723
     53:  1.1062847
     54:  1.1063730
     55:  1.1345701
     56:  1.0425982
     57:  1.0450605
     58:  1.0930979
     59:  1.1377394
     60:  1.1101153
     61:  1.1085034
     62:  1.0564612
     63:  1.0625059
     64:  1.0418432
     65:  1.1299877
     66:  1.1142608
     67:  1.1250940
     68:  1.1068554


    Psi4 stopped on: Tuesday, 03 March 2020 06:24PM
    Psi4 wall time for execution: 0:22:10.13

*** Psi4 exiting successfully. Buy a developer a beer!
