
    -----------------------------------------------------------------------
          Psi4: An Open-Source Ab Initio Electronic Structure Package
                               Psi4 1.3.2 release

                         Git: Rev {HEAD} ecbda83 


    R. M. Parrish, L. A. Burns, D. G. A. Smith, A. C. Simmonett,
    A. E. DePrince III, E. G. Hohenstein, U. Bozkaya, A. Yu. Sokolov,
    R. Di Remigio, R. M. Richard, J. F. Gonthier, A. M. James,
    H. R. McAlexander, A. Kumar, M. Saitow, X. Wang, B. P. Pritchard,
    P. Verma, H. F. Schaefer III, K. Patkowski, R. A. King, E. F. Valeev,
    F. A. Evangelista, J. M. Turney, T. D. Crawford, and C. D. Sherrill,
    J. Chem. Theory Comput. 13(7) pp 3185--3197 (2017).
    (doi: 10.1021/acs.jctc.7b00174)


                         Additional Contributions by
    P. Kraus, H. Kruse, M. H. Lechner, M. C. Schieber, R. A. Shaw,
    A. Alenaizan, R. Galvelis, Z. L. Glick, S. Lehtola, and J. P. Misiewicz

    -----------------------------------------------------------------------


    Psi4 started on: Friday, 24 April 2020 11:59AM

    Process ID: 73169
    Host:       node49.bme.utexas.edu
    PSIDATADIR: /home/bdw2292/miniconda3/envs/p4env/share/psi4
    Memory:     500.0 MiB
    Threads:    1
    
  ==> Input File <==

--------------------------------------------------------------------------
molecule { 
0 1
 C   -1.585710    5.082299   -0.992361
 C   -2.878335    4.541829   -0.989451
 C   -3.075084    3.189971   -0.644623
 C   -1.909210    2.466936   -0.291474
 N   -0.667695    2.968695   -0.281386
 C   -0.516575    4.254210   -0.633828
 C   -4.425672    2.519170   -0.621641
 C   -5.656197    3.178972   -0.776929
 C   -6.797490    2.374186   -0.683299
 N   -6.773034    1.059952   -0.474272
 C   -5.549270    0.506048   -0.355503
 N   -4.404238    1.187435   -0.423727
 N   -5.541762   -0.862763   -0.152925
 C   -4.500475   -1.817062    0.131454
 C   -4.844037   -3.079759    0.703923
 C   -3.791739   -3.963897    0.994398
 C   -2.443534   -3.681089    0.748072
 C   -2.120884   -2.456363    0.154107
 C   -3.152081   -1.549761   -0.140168
 N   -0.798885   -2.017817   -0.172713
 C    0.435242   -2.521221    0.168598
 C    1.596214   -1.607901   -0.158516
 C    2.533629   -1.994224   -1.127605
 C    3.571840   -1.129512   -1.482804
 C    3.709455    0.139198   -0.885876
 C    2.776887    0.495572    0.107544
 C    1.742158   -0.365814    0.478719
 C    4.854868    1.078736   -1.267922
 N    6.114140    1.050847   -0.505530
 C    6.970663   -0.154559   -0.594061
 C    6.752808   -1.194605    0.535630
 N    6.837112   -0.626057    1.902403
 C    8.184666   -0.442933    2.454452
 C    5.920993    0.536197    1.988998
 C    6.134292    1.592126    0.873239
 O    0.606623   -3.615094    0.679775
 C   -6.271148   -3.488366    1.029382
 H   -1.409473    6.118257   -1.265963
 H   -3.708310    5.182395   -1.277433
 H   -1.981540    1.430599    0.023734
 H    0.506361    4.627027   -0.618824
 H   -5.765086    4.245157   -0.932612
 H   -7.801495    2.787988   -0.772790
 H   -6.492974   -1.192149   -0.086863
 H   -4.019143   -4.929050    1.445563
 H   -1.660361   -4.385373    1.000100
 H   -2.908591   -0.607682   -0.604066
 H   -0.762213   -1.139217   -0.671729
 H    2.429587   -2.966660   -1.602005
 H    4.287575   -1.453172   -2.238004
 H    2.849431    1.466340    0.597341
 H    1.019284   -0.068029    1.234227
 H    5.120438    0.883204   -2.316876
 H    4.480398    2.111088   -1.221111
 H    6.854070   -0.664835   -1.657924
 H    8.371556    0.306434   -0.507094
 H    7.571601   -2.131916    0.431532
 H    5.433683   -1.766716    0.405007
 H    8.743818    0.307882    1.884826
 H    8.736432   -1.389648    2.427267
 H    8.123840   -0.120310    3.500143
 H    6.057343    1.098006    3.170459
 H    4.659156    0.050023    1.921597
 H    7.469751    2.185376    1.079631
 H    5.374059    2.462364    0.978229
 H   -6.920052   -3.505105    0.142083
 H   -6.723777   -2.798692    1.747510
 H   -6.333798   -4.485671    1.472542
}
memory 20GB
set_num_threads(6)
psi4_io.set_default_path("/scratch/bdw2292")
set freeze_core True
E, wfn = energy('mp2/6-311+G*',return_wfn=True)
oeprop(wfn,"WIBERG_LOWDIN_INDICES")
clean()
--------------------------------------------------------------------------

  Memory set to  18.626 GiB by Python driver.
  Threads set to 6 by Python driver.
    SCF Algorithm Type (re)set to DF.

*** tstart() called on node49.bme.utexas.edu
*** at Fri Apr 24 11:59:32 2020

   => Loading Basis Set <=

    Name: 6-311+G*
    Role: ORBITAL
    Keyword: BASIS
    atoms 1-4, 6-9, 11, 14-19, 21-28, 30-31, 33-35, 37 entry C          line   130 file /home/bdw2292/miniconda3/envs/p4env/share/psi4/basis/6-311pgs.gbs 
    atoms 5, 10, 12-13, 20, 29, 32                     entry N          line   151 file /home/bdw2292/miniconda3/envs/p4env/share/psi4/basis/6-311pgs.gbs 
    atoms 36                                           entry O          line   172 file /home/bdw2292/miniconda3/envs/p4env/share/psi4/basis/6-311pgs.gbs 
    atoms 38-68                                        entry H          line    47 file /home/bdw2292/miniconda3/envs/p4env/share/psi4/basis/6-311pgs.gbs 


         ---------------------------------------------------------
                                   SCF
               by Justin Turney, Rob Parrish, Andy Simmonett
                          and Daniel G. A. Smith
                              RHF Reference
                        6 Threads,  19073 MiB Core
         ---------------------------------------------------------

  ==> Geometry <==

    Molecular point group: c1
    Full point group: C1

    Geometry (in Angstrom), charge = 0, multiplicity = 1:

       Center              X                  Y                   Z               Mass       
    ------------   -----------------  -----------------  -----------------  -----------------
         C           -1.436352598629     5.056752686004    -0.995962820418    12.000000000000
         C           -2.728977598629     4.516282686004    -0.993052820418    12.000000000000
         C           -2.925726598629     3.164424686004    -0.648224820418    12.000000000000
         C           -1.759852598629     2.441389686004    -0.295075820418    12.000000000000
         N           -0.518337598629     2.943148686004    -0.284987820418    14.003074004430
         C           -0.367217598629     4.228663686004    -0.637429820418    12.000000000000
         C           -4.276314598629     2.493623686004    -0.625242820418    12.000000000000
         C           -5.506839598629     3.153425686004    -0.780530820418    12.000000000000
         C           -6.648132598629     2.348639686004    -0.686900820418    12.000000000000
         N           -6.623676598629     1.034405686004    -0.477873820418    14.003074004430
         C           -5.399912598629     0.480501686004    -0.359104820418    12.000000000000
         N           -4.254880598629     1.161888686004    -0.427328820418    14.003074004430
         N           -5.392404598629    -0.888309313996    -0.156526820418    14.003074004430
         C           -4.351117598629    -1.842608313996     0.127852179582    12.000000000000
         C           -4.694679598629    -3.105305313996     0.700321179582    12.000000000000
         C           -3.642381598629    -3.989443313996     0.990796179582    12.000000000000
         C           -2.294176598629    -3.706635313996     0.744470179582    12.000000000000
         C           -1.971526598629    -2.481909313996     0.150505179582    12.000000000000
         C           -3.002723598629    -1.575307313996    -0.143769820418    12.000000000000
         N           -0.649527598629    -2.043363313996    -0.176314820418    14.003074004430
         C            0.584599401371    -2.546767313996     0.164996179582    12.000000000000
         C            1.745571401371    -1.633447313996    -0.162117820418    12.000000000000
         C            2.682986401371    -2.019770313996    -1.131206820418    12.000000000000
         C            3.721197401371    -1.155058313996    -1.486405820418    12.000000000000
         C            3.858812401371     0.113651686004    -0.889477820418    12.000000000000
         C            2.926244401371     0.470025686004     0.103942179582    12.000000000000
         C            1.891515401371    -0.391360313996     0.475117179582    12.000000000000
         C            5.004225401371     1.053189686004    -1.271523820418    12.000000000000
         N            6.263497401371     1.025300686004    -0.509131820418    14.003074004430
         C            7.120020401371    -0.180105313996    -0.597662820418    12.000000000000
         C            6.902165401371    -1.220151313996     0.532028179582    12.000000000000
         N            6.986469401371    -0.651603313996     1.898801179582    14.003074004430
         C            8.334023401371    -0.468479313996     2.450850179582    12.000000000000
         C            6.070350401371     0.510650686004     1.985396179582    12.000000000000
         C            6.283649401371     1.566579686004     0.869637179582    12.000000000000
         O            0.755980401371    -3.640640313996     0.676173179582    15.994914619570
         C           -6.121790598629    -3.513912313996     1.025780179582    12.000000000000
         H           -1.260115598629     6.092710686004    -1.269564820418     1.007825032230
         H           -3.558952598629     5.156848686004    -1.281034820418     1.007825032230
         H           -1.832182598629     1.405052686004     0.020132179582     1.007825032230
         H            0.655718401371     4.601480686004    -0.622425820418     1.007825032230
         H           -5.615728598629     4.219610686004    -0.936213820418     1.007825032230
         H           -7.652137598629     2.762441686004    -0.776391820418     1.007825032230
         H           -6.343616598629    -1.217695313996    -0.090464820418     1.007825032230
         H           -3.869785598629    -4.954596313996     1.441961179582     1.007825032230
         H           -1.511003598629    -4.410919313996     0.996498179582     1.007825032230
         H           -2.759233598629    -0.633228313996    -0.607667820418     1.007825032230
         H           -0.612855598629    -1.164763313996    -0.675330820418     1.007825032230
         H            2.578944401371    -2.992206313996    -1.605606820418     1.007825032230
         H            4.436932401371    -1.478718313996    -2.241605820418     1.007825032230
         H            2.998788401371     1.440793686004     0.593739179582     1.007825032230
         H            1.168641401371    -0.093575313996     1.230625179582     1.007825032230
         H            5.269795401371     0.857657686004    -2.320477820418     1.007825032230
         H            4.629755401371     2.085541686004    -1.224712820418     1.007825032230
         H            7.003427401371    -0.690381313996    -1.661525820418     1.007825032230
         H            8.520913401371     0.280887686004    -0.510695820418     1.007825032230
         H            7.720958401371    -2.157462313996     0.427930179582     1.007825032230
         H            5.583040401371    -1.792262313996     0.401405179582     1.007825032230
         H            8.893175401371     0.282335686004     1.881224179582     1.007825032230
         H            8.885789401371    -1.415194313996     2.423665179582     1.007825032230
         H            8.273197401371    -0.145856313996     3.496541179582     1.007825032230
         H            6.206700401371     1.072459686004     3.166857179582     1.007825032230
         H            4.808513401371     0.024476686004     1.917995179582     1.007825032230
         H            7.619108401371     2.159829686004     1.076029179582     1.007825032230
         H            5.523416401371     2.436817686004     0.974627179582     1.007825032230
         H           -6.770694598629    -3.530651313996     0.138481179582     1.007825032230
         H           -6.574419598629    -2.824238313996     1.743908179582     1.007825032230
         H           -6.184440598629    -4.511217313996     1.468940179582     1.007825032230

  Running in c1 symmetry.

  Rotational constants: A =      0.00506  B =      0.00157  C =      0.00125 [cm^-1]
  Rotational constants: A =    151.77860  B =     46.96120  C =     37.57746 [MHz]
  Nuclear repulsion = 3680.865285744993344

  Charge       = 0
  Multiplicity = 1
  Electrons    = 262
  Nalpha       = 131
  Nbeta        = 131

  ==> Algorithm <==

  SCF Algorithm Type is DF.
  DIIS enabled.
  MOM disabled.
  Fractional occupation disabled.
  Guess Type is SAD.
  Energy threshold   = 1.00e-08
  Density threshold  = 1.00e-08
  Integral threshold = 0.00e+00

  ==> Primary Basis <==

  Basis Set: 6-311+G*
    Blend: 6-311+G*
    Number of shells: 463
    Number of basis function: 907
    Number of Cartesian functions: 944
    Spherical Harmonics?: true
    Max angular momentum: 2

   => Loading Basis Set <=

    Name: (6-311+G* AUX)
    Role: JKFIT
    Keyword: DF_BASIS_SCF
    atoms 1-4, 6-9, 11, 14-19, 21-28, 30-31, 33-35, 37 entry C          line   200 file /home/bdw2292/miniconda3/envs/p4env/share/psi4/basis/heavy-aug-cc-pvtz-jkfit.gbs 
    atoms 5, 10, 12-13, 20, 29, 32                     entry N          line   262 file /home/bdw2292/miniconda3/envs/p4env/share/psi4/basis/heavy-aug-cc-pvtz-jkfit.gbs 
    atoms 36                                           entry O          line   324 file /home/bdw2292/miniconda3/envs/p4env/share/psi4/basis/heavy-aug-cc-pvtz-jkfit.gbs 
    atoms 38-68                                        entry H          line   116 file /home/bdw2292/miniconda3/envs/p4env/share/psi4/basis/heavy-aug-cc-pvtz-jkfit.gbs 

  ==> Pre-Iterations <==

   -------------------------------------------------------
    Irrep   Nso     Nmo     Nalpha   Nbeta   Ndocc  Nsocc
   -------------------------------------------------------
     A        907     907       0       0       0       0
   -------------------------------------------------------
    Total     907     907     131     131     131       0
   -------------------------------------------------------

  ==> Integral Setup <==

  ==> DiskDFJK: Density-Fitted J/K Matrices <==

    J tasked:                  Yes
    K tasked:                  Yes
    wK tasked:                  No
    OpenMP threads:              6
    Integrals threads:           6
    Memory [MiB]:            14305
    Algorithm:                Core
    Integral Cache:           NONE
    Schwarz Cutoff:          1E-12
    Fitting Condition:       1E-10

   => Auxiliary Basis Set <=

  Basis Set: (6-311+G* AUX)
    Blend: HEAVY-AUG-CC-PVTZ-JKFIT
    Number of shells: 1420
    Number of basis function: 4778
    Number of Cartesian functions: 5932
    Spherical Harmonics?: true
    Max angular momentum: 4

  Minimum eigenvalue in the overlap matrix is 1.8241439145E-07.
  Using Symmetric Orthogonalization.

  SCF Guess: Superposition of Atomic Densities via on-the-fly atomic UHF.

  ==> Iterations <==

                           Total Energy        Delta E     RMS |[F,P]|

   @DF-RHF iter SAD: -1571.03032288547752   -1.57103e+03   0.00000e+00 
   @DF-RHF iter   1: -1571.34402732822082   -3.13704e-01   1.37333e-03 DIIS
   @DF-RHF iter   2: -1572.09929683660766   -7.55270e-01   7.24370e-04 DIIS
   @DF-RHF iter   3: -1572.28838306460671   -1.89086e-01   1.86286e-04 DIIS
   @DF-RHF iter   4: -1572.30481067981100   -1.64276e-02   7.39870e-05 DIIS
   @DF-RHF iter   5: -1572.30729374621774   -2.48307e-03   1.52961e-05 DIIS
   @DF-RHF iter   6: -1572.30744050151020   -1.46755e-04   6.62204e-06 DIIS
   @DF-RHF iter   7: -1572.30747435047874   -3.38490e-05   2.20024e-06 DIIS
   @DF-RHF iter   8: -1572.30747975736926   -5.40689e-06   8.85949e-07 DIIS
   @DF-RHF iter   9: -1572.30748069713036   -9.39761e-07   3.65706e-07 DIIS
   @DF-RHF iter  10: -1572.30748087809593   -1.80966e-07   1.62223e-07 DIIS
   @DF-RHF iter  11: -1572.30748091326450   -3.51686e-08   7.40708e-08 DIIS
   @DF-RHF iter  12: -1572.30748092220188   -8.93738e-09   2.93181e-08 DIIS
   @DF-RHF iter  13: -1572.30748092385261   -1.65073e-09   1.27528e-08 DIIS
   @DF-RHF iter  14: -1572.30748092407407   -2.21462e-10   6.06009e-09 DIIS
  Energy and wave function converged.


  ==> Post-Iterations <==

    Orbital Energies [Eh]
    ---------------------

    Doubly Occupied:                                                      

       1A    -20.526138     2A    -15.604007     3A    -15.603921  
       4A    -15.583578     5A    -15.572868     6A    -15.568467  
       7A    -15.567324     8A    -15.552609     9A    -11.374306  
      10A    -11.365320    11A    -11.333967    12A    -11.313586  
      13A    -11.309768    14A    -11.307099    15A    -11.304568  
      16A    -11.303461    17A    -11.302327    18A    -11.299382  
      19A    -11.298236    20A    -11.293271    21A    -11.288242  
      22A    -11.278489    23A    -11.276468    24A    -11.264337  
      25A    -11.257564    26A    -11.253910    27A    -11.252268  
      28A    -11.252220    29A    -11.251399    30A    -11.247715  
      31A    -11.247254    32A    -11.246671    33A    -11.243962  
      34A    -11.240939    35A    -11.234756    36A    -11.232779  
      37A    -11.226145    38A     -1.388903    39A     -1.345037  
      40A     -1.276139    41A     -1.253683    42A     -1.243092  
      43A     -1.242842    44A     -1.209107    45A     -1.197434  
      46A     -1.162508    47A     -1.140704    48A     -1.114856  
      49A     -1.074935    50A     -1.060480    51A     -1.047283  
      52A     -1.038085    53A     -1.024672    54A     -1.008691  
      55A     -0.990438    56A     -0.975709    57A     -0.947367  
      58A     -0.926426    59A     -0.925419    60A     -0.900807  
      61A     -0.871643    62A     -0.866165    63A     -0.857093  
      64A     -0.842315    65A     -0.834996    66A     -0.825744  
      67A     -0.825045    68A     -0.805045    69A     -0.779739  
      70A     -0.754459    71A     -0.737949    72A     -0.731552  
      73A     -0.721767    74A     -0.700773    75A     -0.694072  
      76A     -0.682842    77A     -0.673497    78A     -0.666029  
      79A     -0.659498    80A     -0.656854    81A     -0.653301  
      82A     -0.643394    83A     -0.640571    84A     -0.629614  
      85A     -0.623200    86A     -0.619536    87A     -0.612926  
      88A     -0.607179    89A     -0.603297    90A     -0.602857  
      91A     -0.599220    92A     -0.596084    93A     -0.592898  
      94A     -0.586336    95A     -0.584367    96A     -0.582021  
      97A     -0.580094    98A     -0.570544    99A     -0.565350  
     100A     -0.559551   101A     -0.549727   102A     -0.543539  
     103A     -0.530394   104A     -0.526288   105A     -0.524402  
     106A     -0.520704   107A     -0.514467   108A     -0.510001  
     109A     -0.506502   110A     -0.506052   111A     -0.501697  
     112A     -0.495455   113A     -0.485720   114A     -0.481417  
     115A     -0.457432   116A     -0.451007   117A     -0.439692  
     118A     -0.434901   119A     -0.427609   120A     -0.426204  
     121A     -0.413639   122A     -0.405413   123A     -0.398480  
     124A     -0.379594   125A     -0.373005   126A     -0.344962  
     127A     -0.343527   128A     -0.342214   129A     -0.315365  
     130A     -0.310805   131A     -0.291015  

    Virtual:                                                              

     132A      0.043745   133A      0.047976   134A      0.054441  
     135A      0.062599   136A      0.066850   137A      0.069794  
     138A      0.070226   139A      0.073098   140A      0.075492  
     141A      0.080028   142A      0.081026   143A      0.084608  
     144A      0.086758   145A      0.089914   146A      0.090990  
     147A      0.092423   148A      0.097423   149A      0.097826  
     150A      0.098317   151A      0.099062   152A      0.103481  
     153A      0.105711   154A      0.107655   155A      0.109235  
     156A      0.113052   157A      0.115085   158A      0.116603  
     159A      0.119009   160A      0.122100   161A      0.124096  
     162A      0.127132   163A      0.129525   164A      0.130915  
     165A      0.133513   166A      0.137204   167A      0.138060  
     168A      0.139203   169A      0.141506   170A      0.145867  
     171A      0.147521   172A      0.148963   173A      0.152792  
     174A      0.154911   175A      0.158502   176A      0.161926  
     177A      0.163097   178A      0.166630   179A      0.168169  
     180A      0.171912   181A      0.173756   182A      0.175262  
     183A      0.178571   184A      0.181132   185A      0.183105  
     186A      0.184020   187A      0.188836   188A      0.189843  
     189A      0.193724   190A      0.196377   191A      0.197656  
     192A      0.200656   193A      0.202952   194A      0.203985  
     195A      0.206813   196A      0.210897   197A      0.214588  
     198A      0.216865   199A      0.217639   200A      0.220647  
     201A      0.223410   202A      0.225820   203A      0.226668  
     204A      0.228899   205A      0.231343   206A      0.233152  
     207A      0.236156   208A      0.240000   209A      0.242246  
     210A      0.244378   211A      0.249387   212A      0.250642  
     213A      0.253324   214A      0.254926   215A      0.259025  
     216A      0.261128   217A      0.261310   218A      0.262742  
     219A      0.264687   220A      0.265841   221A      0.268697  
     222A      0.272838   223A      0.274382   224A      0.276408  
     225A      0.280646   226A      0.281300   227A      0.284558  
     228A      0.285440   229A      0.286468   230A      0.288663  
     231A      0.290189   232A      0.293217   233A      0.295782  
     234A      0.298193   235A      0.302415   236A      0.303700  
     237A      0.306521   238A      0.307455   239A      0.309231  
     240A      0.309599   241A      0.310765   242A      0.312104  
     243A      0.314209   244A      0.316344   245A      0.317498  
     246A      0.325633   247A      0.327924   248A      0.328661  
     249A      0.330100   250A      0.330892   251A      0.332230  
     252A      0.334050   253A      0.334597   254A      0.338138  
     255A      0.338680   256A      0.342076   257A      0.342439  
     258A      0.346760   259A      0.347334   260A      0.349499  
     261A      0.351600   262A      0.352714   263A      0.355878  
     264A      0.358230   265A      0.359796   266A      0.360418  
     267A      0.361489   268A      0.365487   269A      0.365984  
     270A      0.368897   271A      0.369402   272A      0.372333  
     273A      0.374855   274A      0.376344   275A      0.379148  
     276A      0.380846   277A      0.382004   278A      0.384188  
     279A      0.387819   280A      0.389380   281A      0.390435  
     282A      0.391355   283A      0.393631   284A      0.394494  
     285A      0.396929   286A      0.398589   287A      0.401890  
     288A      0.402742   289A      0.403755   290A      0.406403  
     291A      0.410870   292A      0.413161   293A      0.414017  
     294A      0.416540   295A      0.419992   296A      0.420755  
     297A      0.422944   298A      0.425539   299A      0.426860  
     300A      0.427785   301A      0.431040   302A      0.433519  
     303A      0.436318   304A      0.438636   305A      0.441862  
     306A      0.442956   307A      0.446775   308A      0.447770  
     309A      0.451296   310A      0.453432   311A      0.454063  
     312A      0.459392   313A      0.462562   314A      0.465559  
     315A      0.469843   316A      0.471832   317A      0.476010  
     318A      0.481595   319A      0.482970   320A      0.488198  
     321A      0.490229   322A      0.493335   323A      0.494390  
     324A      0.496868   325A      0.499641   326A      0.505522  
     327A      0.509505   328A      0.512635   329A      0.515580  
     330A      0.517618   331A      0.520335   332A      0.526395  
     333A      0.529514   334A      0.531109   335A      0.534198  
     336A      0.538216   337A      0.544273   338A      0.548928  
     339A      0.551576   340A      0.552703   341A      0.558005  
     342A      0.562088   343A      0.569957   344A      0.574785  
     345A      0.579892   346A      0.582453   347A      0.583660  
     348A      0.587569   349A      0.591272   350A      0.594279  
     351A      0.611041   352A      0.612942   353A      0.615977  
     354A      0.622388   355A      0.625190   356A      0.631385  
     357A      0.645420   358A      0.649255   359A      0.653962  
     360A      0.660705   361A      0.668559   362A      0.681032  
     363A      0.687011   364A      0.689653   365A      0.697071  
     366A      0.702133   367A      0.707775   368A      0.712753  
     369A      0.717310   370A      0.719791   371A      0.721127  
     372A      0.726898   373A      0.727898   374A      0.732853  
     375A      0.735580   376A      0.738810   377A      0.746854  
     378A      0.753397   379A      0.754951   380A      0.757005  
     381A      0.759149   382A      0.764265   383A      0.764365  
     384A      0.767139   385A      0.772020   386A      0.776196  
     387A      0.780013   388A      0.787755   389A      0.789536  
     390A      0.792429   391A      0.794874   392A      0.797828  
     393A      0.804162   394A      0.805792   395A      0.810240  
     396A      0.815971   397A      0.821408   398A      0.823580  
     399A      0.828211   400A      0.833912   401A      0.837909  
     402A      0.840417   403A      0.848222   404A      0.849998  
     405A      0.853073   406A      0.853877   407A      0.856246  
     408A      0.858216   409A      0.867307   410A      0.872145  
     411A      0.875290   412A      0.878818   413A      0.879695  
     414A      0.881654   415A      0.888311   416A      0.890319  
     417A      0.892727   418A      0.893823   419A      0.902522  
     420A      0.904325   421A      0.908064   422A      0.911273  
     423A      0.915358   424A      0.915501   425A      0.916646  
     426A      0.918682   427A      0.921665   428A      0.926359  
     429A      0.927677   430A      0.930412   431A      0.936462  
     432A      0.937074   433A      0.939988   434A      0.943456  
     435A      0.944295   436A      0.947673   437A      0.949225  
     438A      0.954173   439A      0.958060   440A      0.959917  
     441A      0.961794   442A      0.963919   443A      0.964485  
     444A      0.968533   445A      0.970117   446A      0.978868  
     447A      0.986010   448A      0.989764   449A      0.993700  
     450A      0.996142   451A      1.001818   452A      1.004973  
     453A      1.010395   454A      1.015633   455A      1.022490  
     456A      1.028396   457A      1.033673   458A      1.034759  
     459A      1.038432   460A      1.045751   461A      1.050764  
     462A      1.057331   463A      1.057740   464A      1.061363  
     465A      1.069710   466A      1.070335   467A      1.077548  
     468A      1.084083   469A      1.085780   470A      1.095101  
     471A      1.095969   472A      1.106137   473A      1.112867  
     474A      1.115691   475A      1.117317   476A      1.122140  
     477A      1.130889   478A      1.135694   479A      1.136423  
     480A      1.139288   481A      1.142605   482A      1.148760  
     483A      1.150808   484A      1.158178   485A      1.160790  
     486A      1.162598   487A      1.169569   488A      1.172822  
     489A      1.176920   490A      1.179306   491A      1.180626  
     492A      1.188296   493A      1.189125   494A      1.194128  
     495A      1.203406   496A      1.206995   497A      1.216740  
     498A      1.217809   499A      1.224632   500A      1.232695  
     501A      1.234603   502A      1.237867   503A      1.244333  
     504A      1.245631   505A      1.251323   506A      1.257832  
     507A      1.258436   508A      1.262517   509A      1.265315  
     510A      1.272541   511A      1.279362   512A      1.282605  
     513A      1.285578   514A      1.291358   515A      1.294850  
     516A      1.298603   517A      1.305823   518A      1.311974  
     519A      1.314792   520A      1.323420   521A      1.329191  
     522A      1.334976   523A      1.340938   524A      1.346297  
     525A      1.358015   526A      1.364277   527A      1.373151  
     528A      1.381898   529A      1.387663   530A      1.396832  
     531A      1.406009   532A      1.415180   533A      1.433673  
     534A      1.445315   535A      1.450046   536A      1.451115  
     537A      1.455556   538A      1.461059   539A      1.467229  
     540A      1.470170   541A      1.473489   542A      1.478528  
     543A      1.484301   544A      1.493938   545A      1.507739  
     546A      1.513491   547A      1.527195   548A      1.534670  
     549A      1.543352   550A      1.547513   551A      1.549536  
     552A      1.552443   553A      1.558820   554A      1.582176  
     555A      1.586814   556A      1.588905   557A      1.595323  
     558A      1.602868   559A      1.617855   560A      1.623633  
     561A      1.640198   562A      1.645529   563A      1.656368  
     564A      1.662228   565A      1.676141   566A      1.694890  
     567A      1.700417   568A      1.713298   569A      1.716324  
     570A      1.733291   571A      1.749201   572A      1.753405  
     573A      1.765214   574A      1.773838   575A      1.788573  
     576A      1.790195   577A      1.796568   578A      1.801631  
     579A      1.809665   580A      1.820508   581A      1.824664  
     582A      1.831956   583A      1.835791   584A      1.840454  
     585A      1.843553   586A      1.852048   587A      1.855785  
     588A      1.856499   589A      1.863428   590A      1.866692  
     591A      1.868052   592A      1.871667   593A      1.875673  
     594A      1.876819   595A      1.881025   596A      1.887132  
     597A      1.890763   598A      1.896765   599A      1.919687  
     600A      1.927982   601A      1.933348   602A      1.937293  
     603A      1.944645   604A      1.959151   605A      1.963881  
     606A      1.970446   607A      1.991473   608A      1.997068  
     609A      2.002062   610A      2.020800   611A      2.032135  
     612A      2.033930   613A      2.041466   614A      2.045044  
     615A      2.051236   616A      2.061031   617A      2.071473  
     618A      2.077260   619A      2.083131   620A      2.086404  
     621A      2.090595   622A      2.093027   623A      2.104175  
     624A      2.112592   625A      2.116117   626A      2.122090  
     627A      2.128166   628A      2.138579   629A      2.146811  
     630A      2.155163   631A      2.162907   632A      2.169373  
     633A      2.178697   634A      2.185335   635A      2.192167  
     636A      2.203464   637A      2.207454   638A      2.215761  
     639A      2.219174   640A      2.223682   641A      2.225132  
     642A      2.231893   643A      2.238949   644A      2.240893  
     645A      2.250602   646A      2.255171   647A      2.256377  
     648A      2.260396   649A      2.270585   650A      2.275261  
     651A      2.279814   652A      2.288960   653A      2.291222  
     654A      2.300919   655A      2.314913   656A      2.346518  
     657A      2.369190   658A      2.377250   659A      2.378616  
     660A      2.388581   661A      2.401460   662A      2.426200  
     663A      2.433064   664A      2.437729   665A      2.448542  
     666A      2.469324   667A      2.472127   668A      2.490615  
     669A      2.506626   670A      2.519454   671A      2.538703  
     672A      2.549043   673A      2.560923   674A      2.569089  
     675A      2.601765   676A      2.626008   677A      2.635904  
     678A      2.642341   679A      2.643306   680A      2.647906  
     681A      2.650561   682A      2.655616   683A      2.662005  
     684A      2.666643   685A      2.675841   686A      2.677757  
     687A      2.681311   688A      2.683273   689A      2.685162  
     690A      2.692365   691A      2.720446   692A      2.724218  
     693A      2.740353   694A      2.761836   695A      2.769481  
     696A      2.770694   697A      2.781031   698A      2.793073  
     699A      2.802851   700A      2.805168   701A      2.825034  
     702A      2.833535   703A      2.842508   704A      2.858713  
     705A      2.859749   706A      2.873337   707A      2.878493  
     708A      2.881682   709A      2.891968   710A      2.899185  
     711A      2.910795   712A      2.914960   713A      2.916847  
     714A      2.933261   715A      2.943331   716A      2.952150  
     717A      2.957334   718A      2.979113   719A      2.981529  
     720A      2.990883   721A      3.005107   722A      3.014034  
     723A      3.015614   724A      3.032629   725A      3.033800  
     726A      3.039134   727A      3.043411   728A      3.045134  
     729A      3.051024   730A      3.062280   731A      3.068295  
     732A      3.081324   733A      3.088861   734A      3.093843  
     735A      3.101885   736A      3.117082   737A      3.130597  
     738A      3.135471   739A      3.149805   740A      3.151444  
     741A      3.156251   742A      3.171659   743A      3.182945  
     744A      3.189291   745A      3.204297   746A      3.208883  
     747A      3.219879   748A      3.222859   749A      3.226632  
     750A      3.236342   751A      3.239301   752A      3.258515  
     753A      3.268367   754A      3.279238   755A      3.285752  
     756A      3.292772   757A      3.296124   758A      3.309408  
     759A      3.323973   760A      3.335977   761A      3.339657  
     762A      3.343751   763A      3.349274   764A      3.356687  
     765A      3.365524   766A      3.368103   767A      3.383739  
     768A      3.386630   769A      3.396472   770A      3.401281  
     771A      3.418094   772A      3.420968   773A      3.433339  
     774A      3.445891   775A      3.475013   776A      3.500350  
     777A      3.518756   778A      3.535308   779A      3.542265  
     780A      3.562991   781A      3.564948   782A      3.568277  
     783A      3.582452   784A      3.593608   785A      3.609187  
     786A      3.621854   787A      3.627503   788A      3.634263  
     789A      3.646205   790A      3.670393   791A      3.686367  
     792A      3.697705   793A      3.703747   794A      3.718208  
     795A      3.720172   796A      3.725977   797A      3.743880  
     798A      3.745342   799A      3.759934   800A      3.762570  
     801A      3.768500   802A      3.771707   803A      3.776661  
     804A      3.777714   805A      3.786776   806A      3.804399  
     807A      3.807267   808A      3.812486   809A      3.817242  
     810A      3.828075   811A      3.854959   812A      3.859229  
     813A      3.869953   814A      3.875026   815A      3.898988  
     816A      3.911401   817A      3.926058   818A      3.936536  
     819A      3.960273   820A      4.007534   821A      4.027533  
     822A      4.030977   823A      4.049901   824A      4.063352  
     825A      4.084537   826A      4.094339   827A      4.104634  
     828A      4.129297   829A      4.157044   830A      4.180336  
     831A      4.216831   832A      4.285672   833A      4.341145  
     834A      4.359093   835A      4.384693   836A      4.406738  
     837A      4.410267   838A      4.413241   839A      4.418125  
     840A      4.437190   841A      4.439945   842A      4.461610  
     843A      4.480711   844A      4.490709   845A      4.519761  
     846A      4.548343   847A      4.595080   848A      4.618432  
     849A      4.683220   850A      4.713322   851A      4.850094  
     852A      4.870552   853A      4.947879   854A      4.994431  
     855A      5.023707   856A      5.052596   857A      5.098511  
     858A      5.187110   859A      5.211353   860A      5.220374  
     861A      5.241933   862A      5.275982   863A      5.345387  
     864A      5.554101   865A      5.647055   866A      5.701854  
     867A      5.765543   868A      5.827725   869A      5.858559  
     870A      6.370799   871A     24.549069   872A     24.595196  
     873A     24.633256   874A     24.679253   875A     24.719534  
     876A     24.723858   877A     24.793838   878A     24.806454  
     879A     24.809802   880A     24.875496   881A     24.896892  
     882A     24.972111   883A     25.005234   884A     25.010022  
     885A     25.015411   886A     25.020763   887A     25.041203  
     888A     25.058304   889A     25.067417   890A     25.092167  
     891A     25.132414   892A     25.149734   893A     25.183635  
     894A     25.186627   895A     25.193093   896A     25.196563  
     897A     25.199545   898A     25.276350   899A     25.283690  
     900A     36.921093   901A     36.943913   902A     36.968261  
     903A     36.988817   904A     37.043326   905A     37.097596  
     906A     37.139875   907A     51.747353  

    Final Occupation by Irrep:
              A 
    DOCC [   131 ]

  @DF-RHF Final Energy: -1572.30748092407407

   => Energetics <=

    Nuclear Repulsion Energy =           3680.8652857449933435
    One-Electron Energy =               -9460.0163791052618762
    Two-Electron Energy =                4206.8436124361942348
    Total Energy =                      -1572.3074809240742979

Computation Completed


Properties will be evaluated at   0.000000,   0.000000,   0.000000 [a0]

Properties computed using the SCF density matrix

  Nuclear Dipole Moment: [e a0]
     X:    43.3566      Y:     0.7868      Z:     7.1067

  Electronic Dipole Moment: [e a0]
     X:   -44.5967      Y:     1.6940      Z:    -8.0355

  Dipole Moment: [e a0]
     X:    -1.2401      Y:     2.4809      Z:    -0.9288     Total:     2.9249

  Dipole Moment: [D]
     X:    -3.1520      Y:     6.3057      Z:    -2.3609     Total:     7.4344


*** tstop() called on node49.bme.utexas.edu at Fri Apr 24 12:08:49 2020
Module time:
	user time   =    3050.65 seconds =      50.84 minutes
	system time =      25.47 seconds =       0.42 minutes
	total time  =        557 seconds =       9.28 minutes
Total time:
	user time   =    3050.65 seconds =      50.84 minutes
	system time =      25.47 seconds =       0.42 minutes
	total time  =        557 seconds =       9.28 minutes

*** tstart() called on node49.bme.utexas.edu
*** at Fri Apr 24 12:08:49 2020


  //>>>>>>>>>>>>>>>>>>>>>>>>>>>>>>>>>>>//
  //               DFMP2               //
  //<<<<<<<<<<<<<<<<<<<<<<<<<<<<<<<<<<<//

   => Loading Basis Set <=

    Name: (6-311+G* AUX)
    Role: RIFIT
    Keyword: DF_BASIS_MP2
    atoms 1-4, 6-9, 11, 14-19, 21-28, 30-31, 33-35, 37 entry C          line   148 file /home/bdw2292/miniconda3/envs/p4env/share/psi4/basis/heavy-aug-cc-pvtz-ri.gbs 
    atoms 5, 10, 12-13, 20, 29, 32                     entry N          line   206 file /home/bdw2292/miniconda3/envs/p4env/share/psi4/basis/heavy-aug-cc-pvtz-ri.gbs 
    atoms 36                                           entry O          line   264 file /home/bdw2292/miniconda3/envs/p4env/share/psi4/basis/heavy-aug-cc-pvtz-ri.gbs 
    atoms 38-68                                        entry H          line    44 file /home/bdw2292/miniconda3/envs/p4env/share/psi4/basis/heavy-aug-cc-pvtz-ri.gbs 

	 --------------------------------------------------------
	                          DF-MP2                         
	      2nd-Order Density-Fitted Moller-Plesset Theory     
	              RMP2 Wavefunction,   6 Threads             
	                                                         
	        Rob Parrish, Justin Turney, Andy Simmonett,      
	           Ed Hohenstein, and C. David Sherrill          
	 --------------------------------------------------------

   => Auxiliary Basis Set <=

  Basis Set: (6-311+G* AUX)
    Blend: HEAVY-AUG-CC-PVTZ-RI
    Number of shells: 1346
    Number of basis function: 4852
    Number of Cartesian functions: 6117
    Spherical Harmonics?: true
    Max angular momentum: 4

	 --------------------------------------------------------
	                 NBF =   907, NAUX =  4852
	 --------------------------------------------------------
	   CLASS    FOCC     OCC    AOCC    AVIR     VIR    FVIR
	   PAIRS      37     131      94     776     776       0
	 --------------------------------------------------------

	-----------------------------------------------------------
	 ==================> DF-MP2 Energies <==================== 
	-----------------------------------------------------------
	 Reference Energy          =   -1572.3074809240740706 [Eh]
	 Singles Energy            =      -0.0000000000000000 [Eh]
	 Same-Spin Energy          =      -1.4486883703540727 [Eh]
	 Opposite-Spin Energy      =      -3.8931270881889350 [Eh]
	 Correlation Energy        =      -5.3418154585430075 [Eh]
	 Total Energy              =   -1577.6492963826169671 [Eh]
	-----------------------------------------------------------
	 ================> DF-SCS-MP2 Energies <================== 
	-----------------------------------------------------------
	 SCS Same-Spin Scale       =       0.3333333333333333 [-]
	 SCS Opposite-Spin Scale   =       1.2000000000000000 [-]
	 SCS Same-Spin Energy      =      -0.4828961234513576 [Eh]
	 SCS Opposite-Spin Energy  =      -4.6717525058267215 [Eh]
	 SCS Correlation Energy    =      -5.1546486292780793 [Eh]
	 SCS Total Energy          =   -1577.4621295533520424 [Eh]
	-----------------------------------------------------------


*** tstop() called on node49.bme.utexas.edu at Fri Apr 24 12:14:21 2020
Module time:
	user time   =    1806.41 seconds =      30.11 minutes
	system time =      19.40 seconds =       0.32 minutes
	total time  =        332 seconds =       5.53 minutes
Total time:
	user time   =    4857.06 seconds =      80.95 minutes
	system time =      44.87 seconds =       0.75 minutes
	total time  =        889 seconds =      14.82 minutes


Properties will be evaluated at   0.000000,   0.000000,   0.000000 [a0]
OEProp: No title given, name of density matrix used for the following properties is 'SCF density'


  Wiberg Bond Indices using Orthogonal Lowdin Orbitals:

  Irrep: 1 Size: 68 x 68

                 1                   2                   3                   4                   5

    1     0.00000000000000     1.51173459357087     0.12961848456940     0.14767178448848     0.12940242312532
    2     1.51173459357087     0.00000000000000     1.42316915886280     0.13129783711228     0.12574117760737
    3     0.12961848456940     1.42316915886280     0.00000000000000     1.38360983856125     0.12317534710231
    4     0.14767178448848     0.13129783711228     1.38360983856125     0.00000000000000     1.68642146053935
    5     0.12940242312532     0.12574117760737     0.12317534710231     1.68642146053935     0.00000000000000
    6     1.50987534266550     0.14368865011269     0.13993014525255     0.15761096402969     1.65237097101984
    7     0.01553363831699     0.10589982571758     1.02815075691962     0.10703812502985     0.01460472272677
    8     0.00410547725167     0.04649448830471     0.10115669969121     0.02504954129813     0.00239512646370
    9     0.00045798996309     0.00527827388216     0.01555119401319     0.00438527042025     0.00074433532523
   10     0.00045488123765     0.00559247899365     0.00602966228552     0.00626385491824     0.00034924410297
   11     0.00094970275101     0.00352432549053     0.01840587082566     0.00733972952236     0.00049758569337
   12     0.00299792087672     0.02248929167394     0.12039615111175     0.06461853840418     0.00424422936194
   13     0.00018225872535     0.00053149337768     0.00171633016928     0.00094717095169     0.00009388937228
   14     0.00004331104721     0.00012124938159     0.00062614325461     0.00140494273368     0.00011634612545
   15     0.00001341395772     0.00003062058274     0.00008971173122     0.00017154075695     0.00001860695910
   16     0.00000365958596     0.00000862539333     0.00005519677334     0.00029628531637     0.00001356449531
   17     0.00001315618656     0.00002181995013     0.00006824701741     0.00030770439181     0.00004044729828
   18     0.00003518919408     0.00006477706812     0.00031530613885     0.00187277951149     0.00018316740103
   19     0.00019439095792     0.00028158747927     0.00209134815651     0.01075755100657     0.00055083549755
   20     0.00005772191584     0.00006738796691     0.00029107301978     0.00273871409386     0.00038093783805
   21     0.00001769661542     0.00001762311426     0.00005091106886     0.00040306641232     0.00012430028088
   22     0.00006702520963     0.00004364655827     0.00003533232085     0.00058079879061     0.00097898645849
   23     0.00002009531001     0.00001369333411     0.00002164765173     0.00021762867995     0.00082705862250
   24     0.00001511877068     0.00001178819025     0.00002352201729     0.00035671174038     0.00078035968538
   25     0.00002890659229     0.00004108768937     0.00004221974414     0.00012789158036     0.00082723033502
   26     0.00021782057103     0.00017071316821     0.00024545011652     0.00158000445550     0.01043681194667
   27     0.00032287212871     0.00019667693859     0.00024010638686     0.00352044251219     0.01043113700207
   28     0.00001741588799     0.00001324629773     0.00001122098810     0.00002171560368     0.00007125712575
   29     0.00000155553830     0.00000103054644     0.00000125347264     0.00001162570977     0.00003086867286
   30     0.00000119156132     0.00000068113943     0.00000096256885     0.00000798232756     0.00001259869425
   31     0.00000219050822     0.00000164887656     0.00000158362563     0.00001528555459     0.00002821886689
   32     0.00000182113705     0.00000074459668     0.00000194555628     0.00001328591934     0.00002128576802
   33     0.00000029205336     0.00000014205915     0.00000044480037     0.00000290194012     0.00000494878733
   34     0.00000336914775     0.00000133939638     0.00000549197127     0.00003241872343     0.00006852883819
   35     0.00000289009598     0.00000121137088     0.00000155336638     0.00000843077596     0.00002401609728
   36     0.00000279727176     0.00000314431940     0.00001452192550     0.00013089008410     0.00004035755073
   37     0.00000381081568     0.00001120698885     0.00004952860566     0.00005167730864     0.00000409217992
   38     0.84221846447693     0.05687201182755     0.00960758632580     0.00272345193762     0.00793417032893
   39     0.05358408649451     0.82963943117122     0.05215562737869     0.00958638251314     0.00126374114983
   40     0.00207175309885     0.00824489319052     0.04974890115826     0.81081803096985     0.06222391393890
   41     0.05500115338523     0.00972944006820     0.00258589640024     0.01281763042054     0.06465481585649
   42     0.00075947959835     0.01076017325023     0.01125027073985     0.00058401741639     0.00016971872699
   43     0.00003773739079     0.00020943167439     0.00109527874910     0.00026323227017     0.00006432759272
   44     0.00001375468134     0.00005014291165     0.00023496514595     0.00004141291277     0.00000583366991
   45     0.00000070022214     0.00000166138042     0.00000859862495     0.00001896408817     0.00000185734959
   46     0.00000126504178     0.00000199368698     0.00000649851975     0.00002098883389     0.00000707230948
   47     0.00004582317061     0.00006709530043     0.00123036864840     0.00466009909630     0.00023659479357
   48     0.00002465598870     0.00001922725327     0.00006579780675     0.00081825916296     0.00013833597607
   49     0.00000091916867     0.00000053966307     0.00000081151321     0.00000453821861     0.00000726404767
   50     0.00000080137488     0.00000054273803     0.00000070549131     0.00000751836777     0.00000650213916
   51     0.00000625624735     0.00000446075288     0.00001296216682     0.00003999299935     0.00036687239788
   52     0.00002078304756     0.00001007701419     0.00000890507531     0.00069462005567     0.00055038874299
   53     0.00000057849692     0.00000032614105     0.00000026353822     0.00000379900764     0.00000799577862
   54     0.00000150510655     0.00000035799150     0.00000063845502     0.00000282444093     0.00001803628987
   55     0.00000056608871     0.00000018137177     0.00000024794388     0.00000122024020     0.00000373590546
   56     0.00000013113322     0.00000034647685     0.00000032015402     0.00000444340247     0.00000499221886
   57     0.00000002136281     0.00000004383149     0.00000009996981     0.00000014424071     0.00000108885695
   58     0.00000207011244     0.00000152802580     0.00000172346181     0.00002101753943     0.00003392765057
   59     0.00000001722939     0.00000002330525     0.00000005221003     0.00000029768924     0.00000035071063
   60     0.00000002254778     0.00000001273777     0.00000001434966     0.00000014611088     0.00000044585125
   61     0.00000001470564     0.00000000570660     0.00000001828627     0.00000034340691     0.00000041127037
   62     0.00000007183593     0.00000004838457     0.00000023510551     0.00000073702559     0.00000180362693
   63     0.00000272000043     0.00000105499106     0.00000354843435     0.00001628722141     0.00004208636902
   64     0.00000084724923     0.00000028081731     0.00000044991393     0.00000531824891     0.00001307158458
   65     0.00000079221122     0.00000023930268     0.00000036547969     0.00000187678259     0.00000402982085
   66     0.00000077209175     0.00000153569671     0.00001092618214     0.00000823059026     0.00000061196866
   67     0.00000069990165     0.00000139326887     0.00000610650424     0.00000927092135     0.00000044921542
   68     0.00000031344778     0.00000072537369     0.00000389890069     0.00000784251858     0.00000033967118

                 6                   7                   8                   9                  10

    1     1.50987534266550     0.01553363831699     0.00410547725167     0.00045798996309     0.00045488123765
    2     0.14368865011269     0.10589982571758     0.04649448830471     0.00527827388216     0.00559247899365
    3     0.13993014525255     1.02815075691962     0.10115669969121     0.01555119401319     0.00602966228552
    4     0.15761096402969     0.10703812502985     0.02504954129813     0.00438527042025     0.00626385491824
    5     1.65237097101984     0.01460472272677     0.00239512646370     0.00074433532523     0.00034924410297
    6     0.00000000000000     0.01029717786586     0.00733779370637     0.00133143917221     0.00345980798186
    7     0.01029717786586     0.00000000000000     1.40908430071937     0.15000463342740     0.11315112692900
    8     0.00733779370637     1.40908430071937     0.00000000000000     1.47560625988844     0.13600557349616
    9     0.00133143917221     0.15000463342740     1.47560625988844     0.00000000000000     1.68230181250669
   10     0.00345980798186     0.11315112692900     0.13600557349616     1.68230181250669     0.00000000000000
   11     0.00091231446101     0.14295512174330     0.11679485394270     0.15465994067327     1.51354985889477
   12     0.00628902115030     1.53448446066370     0.12881545298514     0.11325782377266     0.11105895540281
   13     0.00008235600731     0.01985237296029     0.02213811914026     0.02554243573533     0.16713309010754
   14     0.00005763654980     0.00308228116425     0.00266839136112     0.00346830552944     0.01771730299243
   15     0.00000850713883     0.00056073882431     0.00155104198251     0.00101430939558     0.00336248489802
   16     0.00000547704425     0.00019057775017     0.00021959713301     0.00018502959437     0.00053921485077
   17     0.00000799666998     0.00028031932156     0.00139068010060     0.00047100697571     0.00134387531316
   18     0.00004779564960     0.00057902864072     0.00028693997458     0.00016751254582     0.00047113394269
   19     0.00021938052506     0.00600505074455     0.00337195459565     0.00166917632921     0.00461439719050
   20     0.00005883340152     0.00012614768696     0.00003073503597     0.00002266904669     0.00006718299237
   21     0.00002136528354     0.00002432960102     0.00001075444408     0.00000771332323     0.00002047395094
   22     0.00011587590956     0.00000913127898     0.00000367301927     0.00000223392753     0.00000498431162
   23     0.00026149108871     0.00000597965233     0.00000239736886     0.00000087551367     0.00000144836279
   24     0.00014184889933     0.00000527312598     0.00000179715022     0.00000063868823     0.00000054374126
   25     0.00022468804389     0.00000600670021     0.00000378843989     0.00000058988057     0.00000079560404
   26     0.00162496863630     0.00003546374917     0.00001850283194     0.00000309308355     0.00000208704663
   27     0.00108521349711     0.00004440838628     0.00001570368871     0.00000429582998     0.00000363459549
   28     0.00004386841413     0.00000160114078     0.00000094068853     0.00000016370405     0.00000038548047
   29     0.00002967204681     0.00000026754725     0.00000012242991     0.00000002654745     0.00000002537541
   30     0.00001787454575     0.00000019513477     0.00000013312171     0.00000002804893     0.00000002507489
   31     0.00003395562003     0.00000037827336     0.00000018036444     0.00000005568626     0.00000005454206
   32     0.00001270676182     0.00000039954859     0.00000016121131     0.00000002856724     0.00000002292388
   33     0.00000366713683     0.00000018055983     0.00000002699797     0.00000001316896     0.00000000664557
   34     0.00001991471540     0.00000070773800     0.00000029748562     0.00000004043075     0.00000004642026
   35     0.00001676220344     0.00000057550595     0.00000013295244     0.00000004051439     0.00000004414107
   36     0.00000913381674     0.00001318251636     0.00000945963269     0.00000523170633     0.00001304417226
   37     0.00000329207350     0.00018567234798     0.00017215624995     0.00017026917023     0.00091821331706
   38     0.05966261899528     0.00092819614735     0.00017533713101     0.00003390478993     0.00001767043750
   39     0.00972689386811     0.01302703800120     0.01119931123419     0.00077568297448     0.00019169980222
   40     0.01188254043127     0.01230900246942     0.00075768784652     0.00020225420682     0.00023386888142
   41     0.84033601178717     0.00033749764393     0.00008109742347     0.00002602726879     0.00001162516726
   42     0.00021368308884     0.05533641172367     0.82717901225547     0.05781644862315     0.00717917499060
   43     0.00003628123325     0.00943279314285     0.05390950863651     0.83786415854108     0.06634420666864
   44     0.00000435589659     0.00114005675310     0.00063578471491     0.00204517322531     0.01884778392714
   45     0.00000062035226     0.00001892293342     0.00000856309712     0.00002430964316     0.00005281889207
   46     0.00000147144736     0.00001761003534     0.00000586135572     0.00000519065567     0.00001278973345
   47     0.00007508199884     0.00263538800120     0.00040015261655     0.00022366462251     0.00021564379944
   48     0.00001674622179     0.00003468934595     0.00000831650147     0.00000257176640     0.00001032749737
   49     0.00000573535106     0.00000033697335     0.00000012528266     0.00000005787567     0.00000014885459
   50     0.00000502080354     0.00000019488172     0.00000004628680     0.00000002968038     0.00000002991589
   51     0.00022646053485     0.00000157693575     0.00000055670155     0.00000010783310     0.00000006196324
   52     0.00004484283771     0.00000251514911     0.00000056102069     0.00000025710108     0.00000034752319
   53     0.00000429554026     0.00000006561037     0.00000003026607     0.00000001434051     0.00000000814755
   54     0.00000256662312     0.00000014054014     0.00000007419904     0.00000001678110     0.00000001558527
   55     0.00000832915968     0.00000007579879     0.00000003565895     0.00000000682697     0.00000000745931
   56     0.00000598204957     0.00000006345824     0.00000005055975     0.00000001102408     0.00000000723219
   57     0.00000053194417     0.00000001156520     0.00000000325678     0.00000000078794     0.00000000093549
   58     0.00003582367087     0.00000035472244     0.00000018797528     0.00000005647930     0.00000003948913
   59     0.00000037661966     0.00000006458283     0.00000000355680     0.00000000410666     0.00000000125232
   60     0.00000049938062     0.00000001219408     0.00000000225067     0.00000000052991     0.00000000058743
   61     0.00000022718369     0.00000000489147     0.00000000096171     0.00000000069712     0.00000000020620
   62     0.00000065040649     0.00000007833402     0.00000001714736     0.00000000171896     0.00000000113600
   63     0.00001155697677     0.00000036161687     0.00000019599042     0.00000002335759     0.00000001612597
   64     0.00001324501218     0.00000005598984     0.00000007515265     0.00000000370150     0.00000000641943
   65     0.00000395269993     0.00000018657750     0.00000001951848     0.00000000609249     0.00000000463860
   66     0.00000029268026     0.00003453900587     0.00005972700322     0.00001893051140     0.00010921724986
   67     0.00000033990360     0.00002664034414     0.00009407495635     0.00001698140024     0.00015672124391
   68     0.00000017094738     0.00001460652528     0.00000511821421     0.00000340082436     0.00003389441321

                11                  12                  13                  14                  15

    1     0.00094970275101     0.00299792087672     0.00018225872535     0.00004331104721     0.00001341395772
    2     0.00352432549053     0.02248929167394     0.00053149337768     0.00012124938159     0.00003062058274
    3     0.01840587082566     0.12039615111175     0.00171633016928     0.00062614325461     0.00008971173122
    4     0.00733972952236     0.06461853840418     0.00094717095169     0.00140494273368     0.00017154075695
    5     0.00049758569337     0.00424422936194     0.00009388937228     0.00011634612545     0.00001860695910
    6     0.00091231446101     0.00628902115030     0.00008235600731     0.00005763654980     0.00000850713883
    7     0.14295512174330     1.53448446066370     0.01985237296029     0.00308228116425     0.00056073882431
    8     0.11679485394270     0.12881545298514     0.02213811914026     0.00266839136112     0.00155104198251
    9     0.15465994067327     0.11325782377266     0.02554243573533     0.00346830552944     0.00101430939558
   10     1.51354985889477     0.11105895540281     0.16713309010754     0.01771730299243     0.00336248489802
   11     0.00000000000000     1.54021938850373     1.30107859187011     0.08535033586755     0.01847283180417
   12     1.54021938850373     0.00000000000000     0.14466638268308     0.03038645783248     0.00372862471870
   13     1.30107859187011     0.14466638268308     0.00000000000000     1.15112696537936     0.10932352279033
   14     0.08535033586755     0.03038645783248     1.15112696537936     0.00000000000000     1.32541038116668
   15     0.01847283180417     0.00372862471870     0.10932352279033     1.32541038116668     0.00000000000000
   16     0.00257217052672     0.00127088320366     0.01521128852837     0.12876837553939     1.46845275302391
   17     0.00434746152085     0.00262517669436     0.01297565647126     0.12389807307236     0.12864374445974
   18     0.00265467486960     0.00496689680710     0.01381117933546     0.12609359848700     0.12176391633695
   19     0.03010966098057     0.05655614729440     0.11435830731189     1.42824339201375     0.12169564629008
   20     0.00037702154948     0.00101872214663     0.00139501452842     0.01578901316903     0.01184721699466
   21     0.00008150572907     0.00013629833586     0.00034411980094     0.00297417441035     0.00589257115498
   22     0.00001985073826     0.00003537398428     0.00006780094865     0.00042423514411     0.00046716507879
   23     0.00000603597972     0.00000575618085     0.00001725040382     0.00011016938971     0.00023248172488
   24     0.00000147930331     0.00000263432069     0.00000272895002     0.00002193814506     0.00005656672062
   25     0.00000132167037     0.00000377338407     0.00000321859763     0.00002057129202     0.00003640077632
   26     0.00000397802892     0.00001368302059     0.00000413070576     0.00002111907787     0.00005855722903
   27     0.00001299396808     0.00007440538327     0.00001887428047     0.00013118023037     0.00031716311067
   28     0.00000025214798     0.00000075950853     0.00000045235851     0.00000257050840     0.00000357125968
   29     0.00000008826254     0.00000011197494     0.00000015856732     0.00000103709081     0.00000221381727
   30     0.00000006546735     0.00000008426977     0.00000009186597     0.00000051253598     0.00000059406696
   31     0.00000009934267     0.00000023061124     0.00000011309344     0.00000076841798     0.00000106112764
   32     0.00000006112682     0.00000009021092     0.00000004211208     0.00000049524827     0.00000025011042
   33     0.00000001679774     0.00000002169759     0.00000001354753     0.00000012105594     0.00000009307936
   34     0.00000017382826     0.00000019266181     0.00000011271924     0.00000057276311     0.00000094298253
   35     0.00000008285012     0.00000014974951     0.00000006409203     0.00000047973619     0.00000044573031
   36     0.00005141176684     0.00006439224084     0.00017681004716     0.00111700316409     0.00354098156352
   37     0.00432135102116     0.00096101501556     0.04301661404836     0.10111432185481     1.11475232458276
   38     0.00007168057269     0.00024905542614     0.00001154704340     0.00000772380470     0.00000083837322
   39     0.00014689748892     0.00037219323313     0.00005189791458     0.00002274593943     0.00000462095061
   40     0.00181740516162     0.01768574378100     0.00020426231099     0.00071202561683     0.00006898833508
   41     0.00002582954364     0.00009112250297     0.00000415306844     0.00000342058788     0.00000069532605
   42     0.00285975722719     0.00756154887364     0.00030487548072     0.00004429591930     0.00001432614799
   43     0.01304644848101     0.00138694616555     0.00081377517304     0.00029586139100     0.00004461922244
   44     0.04501023781392     0.00613740710682     0.79125041528461     0.03767657999636     0.00987019084318
   45     0.00033237455557     0.00004110142315     0.00088395495367     0.00938824419032     0.05409765180639
   46     0.00003922715761     0.00009260282729     0.00014167865717     0.00217219110958     0.00829696624870
   47     0.00713945062114     0.02391298845553     0.01189052131257     0.05097156256574     0.00749960104413
   48     0.00005798200970     0.00036714416281     0.00007438698663     0.00118694799198     0.00033535828504
   49     0.00000051187838     0.00000072244438     0.00000157513647     0.00000972715003     0.00000607770138
   50     0.00000018461744     0.00000010165394     0.00000034180999     0.00000268091089     0.00000481513439
   51     0.00000023165680     0.00000053798339     0.00000026455007     0.00000175580333     0.00000172008347
   52     0.00000093925206     0.00000492882546     0.00000214076905     0.00001061733797     0.00006545873482
   53     0.00000002440719     0.00000003120318     0.00000004500513     0.00000030209352     0.00000021149439
   54     0.00000002632689     0.00000004735747     0.00000004731926     0.00000035601830     0.00000073941739
   55     0.00000000955124     0.00000002306306     0.00000001425621     0.00000003295069     0.00000005164997
   56     0.00000003226980     0.00000002263523     0.00000002472448     0.00000020289751     0.00000017377954
   57     0.00000000668669     0.00000000286807     0.00000000304559     0.00000002034150     0.00000002787535
   58     0.00000004735495     0.00000014549981     0.00000004495831     0.00000043831630     0.00000062313806
   59     0.00000000225141     0.00000000520742     0.00000000288010     0.00000002128153     0.00000001917005
   60     0.00000000226068     0.00000000417514     0.00000000076493     0.00000000226864     0.00000001465424
   61     0.00000000082676     0.00000000173112     0.00000000108528     0.00000000375623     0.00000001392687
   62     0.00000000585802     0.00000000989041     0.00000000425098     0.00000001252451     0.00000002031677
   63     0.00000010267335     0.00000019436402     0.00000002858038     0.00000025202715     0.00000046507660
   64     0.00000004657426     0.00000002285393     0.00000002068069     0.00000012606441     0.00000020446199
   65     0.00000000935444     0.00000002372435     0.00000001109614     0.00000003291532     0.00000002949893
   66     0.00068333404138     0.00019557708524     0.00759705125339     0.01384727983039     0.04138949783902
   67     0.00076272429961     0.00021195392018     0.00769678979796     0.01369848570921     0.04195726055765
   68     0.00019538700750     0.00006080428518     0.00166150686646     0.00678287231969     0.04508070097726

                16                  17                  18                  19                  20

    1     0.00000365958596     0.00001315618656     0.00003518919408     0.00019439095792     0.00005772191584
    2     0.00000862539333     0.00002181995013     0.00006477706812     0.00028158747927     0.00006738796691
    3     0.00005519677334     0.00006824701741     0.00031530613885     0.00209134815651     0.00029107301978
    4     0.00029628531637     0.00030770439181     0.00187277951149     0.01075755100657     0.00273871409386
    5     0.00001356449531     0.00004044729828     0.00018316740103     0.00055083549755     0.00038093783805
    6     0.00000547704425     0.00000799666998     0.00004779564960     0.00021938052506     0.00005883340152
    7     0.00019057775017     0.00028031932156     0.00057902864072     0.00600505074455     0.00012614768696
    8     0.00021959713301     0.00139068010060     0.00028693997458     0.00337195459565     0.00003073503597
    9     0.00018502959437     0.00047100697571     0.00016751254582     0.00166917632921     0.00002266904669
   10     0.00053921485077     0.00134387531316     0.00047113394269     0.00461439719050     0.00006718299237
   11     0.00257217052672     0.00434746152085     0.00265467486960     0.03010966098057     0.00037702154948
   12     0.00127088320366     0.00262517669436     0.00496689680710     0.05655614729440     0.00101872214663
   13     0.01521128852837     0.01297565647126     0.01381117933546     0.11435830731189     0.00139501452842
   14     0.12876837553939     0.12389807307236     0.12609359848700     1.42824339201375     0.01578901316903
   15     1.46845275302391     0.12864374445974     0.12176391633695     0.12169564629008     0.01184721699466
   16     0.00000000000000     1.48974154126300     0.13681759155118     0.13210509488134     0.01468212194971
   17     1.48974154126300     0.00000000000000     1.42434228856167     0.12527226485390     0.10857633558483
   18     0.13681759155118     1.42434228856167     0.00000000000000     1.38890362398153     1.15283092197163
   19     0.13210509488134     0.12527226485390     1.38890362398153     0.00000000000000     0.13032984663986
   20     0.01468212194971     0.10857633558483     1.15283092197163     0.13032984663986     0.00000000000000
   21     0.00310194288724     0.03365592598886     0.08965405798581     0.02369908532664     1.34490973836701
   22     0.00042961938195     0.00385033004514     0.01580879686249     0.00261184011705     0.11839710579669
   23     0.00013637863615     0.00093248752360     0.00285072625551     0.00064772326936     0.02312382378714
   24     0.00002885120726     0.00020921224368     0.00052451763758     0.00015918794235     0.00310611640800
   25     0.00002366588853     0.00017406743441     0.00068776839539     0.00011521710306     0.00346611361248
   26     0.00003139485353     0.00022451778923     0.00055973896713     0.00016360189017     0.00433925091765
   27     0.00017199181094     0.00123835864914     0.00458107485829     0.00114557500530     0.04197964995072
   28     0.00000326364819     0.00001979673277     0.00006617449051     0.00001394953129     0.00028452087627
   29     0.00000139673276     0.00000860592176     0.00003416719385     0.00000602681162     0.00012680616382
   30     0.00000069463033     0.00000381169680     0.00001194677813     0.00000413458982     0.00003856575722
   31     0.00000085653339     0.00000648056544     0.00001383677851     0.00000632579610     0.00004357701756
   32     0.00000027012275     0.00000224058533     0.00000924986376     0.00000411133865     0.00001145185448
   33     0.00000010865423     0.00000066686770     0.00000186712168     0.00000087770088     0.00000358957321
   34     0.00000086309700     0.00000563797238     0.00001403399274     0.00000670078486     0.00004797864510
   35     0.00000076721675     0.00000368859824     0.00000936812104     0.00000277794832     0.00003507808858
   36     0.00360928244157     0.05042624264803     0.03204770572463     0.00570676805901     0.19913260134133
   37     0.12279272298004     0.01591547809717     0.00765554950085     0.01531707293947     0.00080456126487
   38     0.00000047564150     0.00000086846192     0.00000643857071     0.00002450197608     0.00000509980104
   39     0.00000148650727     0.00000221793532     0.00000420000575     0.00002701369214     0.00000440348683
   40     0.00013200704896     0.00011919897286     0.00114710569998     0.00527614896876     0.00091325338602
   41     0.00000056542003     0.00000106259442     0.00000236378005     0.00001110674219     0.00000416370746
   42     0.00000531060295     0.00000529337940     0.00002311756288     0.00011971390943     0.00000724952303
   43     0.00001131068076     0.00000513352151     0.00001287855263     0.00007113089159     0.00000111913555
   44     0.00068357099324     0.00028096563581     0.00076139709973     0.00649856043812     0.00018355194258
   45     0.83138785538615     0.05601369477310     0.00973718157909     0.00227632621758     0.00072667844333
   46     0.05510548142172     0.81120694755232     0.05432864150948     0.00888988990584     0.01091814383236
   47     0.00222282982575     0.00810270287233     0.05155835458543     0.79122864860986     0.01903946461184
   48     0.00074189787116     0.00610546389777     0.03907111393601     0.01464857343247     0.79467881975566
   49     0.00001127966719     0.00004354275866     0.00012117576405     0.00003053512682     0.00116767650960
   50     0.00000266764907     0.00002017287017     0.00004543960369     0.00001627544684     0.00021310563131
   51     0.00000195773985     0.00001119077105     0.00002645012154     0.00000957971552     0.00012235524078
   52     0.00001640550000     0.00018565668901     0.00096196783692     0.00026381879375     0.00695973573672
   53     0.00000051285927     0.00000212065810     0.00001173677939     0.00000247314824     0.00004951533980
   54     0.00000058996679     0.00000286804335     0.00001044984175     0.00000256351042     0.00004935491072
   55     0.00000009457392     0.00000031788424     0.00000064564693     0.00000021392930     0.00000590282832
   56     0.00000014533700     0.00000108245413     0.00000524121645     0.00000204665832     0.00000536770964
   57     0.00000003558836     0.00000011083102     0.00000037453642     0.00000024681816     0.00000194227198
   58     0.00000023506785     0.00000296633109     0.00000787619215     0.00000481975071     0.00001596570916
   59     0.00000002360438     0.00000008051078     0.00000015356182     0.00000009036090     0.00000062039335
   60     0.00000002236941     0.00000004750897     0.00000013195741     0.00000007912369     0.00000026963331
   61     0.00000000866252     0.00000004721824     0.00000005917178     0.00000008693041     0.00000026626774
   62     0.00000001094583     0.00000006514405     0.00000026088422     0.00000010809582     0.00000182707591
   63     0.00000029180076     0.00000220340684     0.00000697757485     0.00000349153563     0.00002890217965
   64     0.00000008014095     0.00000118215572     0.00000273427096     0.00000111131053     0.00000601606708
   65     0.00000009560233     0.00000036665775     0.00000077210717     0.00000024038276     0.00000507134823
   66     0.01268857933169     0.00086051827991     0.00278100047234     0.00079281379069     0.00035594579043
   67     0.01283533735574     0.00082139329765     0.00275442914782     0.00085108677635     0.00033114661778
   68     0.01959077033433     0.00143236659736     0.00033570548838     0.00072872337733     0.00006942902637

                21                  22                  23                  24                  25

    1     0.00001769661542     0.00006702520963     0.00002009531001     0.00001511877068     0.00002890659229
    2     0.00001762311426     0.00004364655827     0.00001369333411     0.00001178819025     0.00004108768937
    3     0.00005091106886     0.00003533232085     0.00002164765173     0.00002352201729     0.00004221974414
    4     0.00040306641232     0.00058079879061     0.00021762867995     0.00035671174038     0.00012789158036
    5     0.00012430028088     0.00097898645849     0.00082705862250     0.00078035968538     0.00082723033502
    6     0.00002136528354     0.00011587590956     0.00026149108871     0.00014184889933     0.00022468804389
    7     0.00002432960102     0.00000913127898     0.00000597965233     0.00000527312598     0.00000600670021
    8     0.00001075444408     0.00000367301927     0.00000239736886     0.00000179715022     0.00000378843989
    9     0.00000771332323     0.00000223392753     0.00000087551367     0.00000063868823     0.00000058988057
   10     0.00002047395094     0.00000498431162     0.00000144836279     0.00000054374126     0.00000079560404
   11     0.00008150572907     0.00001985073826     0.00000603597972     0.00000147930331     0.00000132167037
   12     0.00013629833586     0.00003537398428     0.00000575618085     0.00000263432069     0.00000377338407
   13     0.00034411980094     0.00006780094865     0.00001725040382     0.00000272895002     0.00000321859763
   14     0.00297417441035     0.00042423514411     0.00011016938971     0.00002193814506     0.00002057129202
   15     0.00589257115498     0.00046716507879     0.00023248172488     0.00005656672062     0.00003640077632
   16     0.00310194288724     0.00042961938195     0.00013637863615     0.00002885120726     0.00002366588853
   17     0.03365592598886     0.00385033004514     0.00093248752360     0.00020921224368     0.00017406743441
   18     0.08965405798581     0.01580879686249     0.00285072625551     0.00052451763758     0.00068776839539
   19     0.02369908532664     0.00261184011705     0.00064772326936     0.00015918794235     0.00011521710306
   20     1.34490973836701     0.11839710579669     0.02312382378714     0.00310611640800     0.00346611361248
   21     0.00000000000000     0.97124874886054     0.11389604068184     0.01544920308612     0.01061373619983
   22     0.97124874886054     0.00000000000000     1.41974950361747     0.13280726517292     0.12692030990177
   23     0.11389604068184     1.41974950361747     0.00000000000000     1.51204721470718     0.13034569103309
   24     0.01544920308612     0.13280726517292     1.51204721470718     0.00000000000000     1.42679026140633
   25     0.01061373619983     0.12692030990177     0.13034569103309     1.42679026140633     0.00000000000000
   26     0.01542685577583     0.13320575594271     0.13945744096279     0.12982334098041     1.43022755100433
   27     0.11104814308806     1.42662482133135     0.12787925527852     0.13822047376767     0.13105561381044
   28     0.00087008653018     0.00982602114536     0.01593887022802     0.11574752660316     1.05576758006030
   29     0.00037130591191     0.00450148618074     0.00215620085519     0.02256364062577     0.09143165601811
   30     0.00013271164702     0.00123347292172     0.00226122179789     0.01789844527359     0.02439860897209
   31     0.00013445463796     0.00239673665557     0.01023955789396     0.02550479578089     0.02376123999062
   32     0.00006490346021     0.00068960425800     0.00112356117459     0.00274019991527     0.00451094910556
   33     0.00001542082255     0.00014595789986     0.00033295849895     0.00088133592326     0.00147538762067
   34     0.00008985360392     0.00164405209879     0.00237840955495     0.00461362585952     0.02031508845191
   35     0.00012021967800     0.00112347750810     0.00108031907084     0.00512728729492     0.02258617934302
   36     2.20779582840757     0.14029901872366     0.04019007705354     0.00356563112448     0.00439272093993
   37     0.00034651348363     0.00005033127400     0.00001868952618     0.00000425726990     0.00000295006845
   38     0.00000127773027     0.00000145719011     0.00000275709238     0.00000234715182     0.00000159968037
   39     0.00000065851925     0.00000168390134     0.00000142320064     0.00000163488943     0.00000178416951
   40     0.00014473625413     0.00006939442278     0.00000989536120     0.00000823935734     0.00000985229591
   41     0.00000120619380     0.00000525501725     0.00000199854247     0.00000202561877     0.00000766804248
   42     0.00000174265825     0.00000093122545     0.00000013312544     0.00000008427612     0.00000011671377
   43     0.00000071647562     0.00000030073306     0.00000009475521     0.00000004768919     0.00000011615114
   44     0.00004562346850     0.00001217546584     0.00000218840862     0.00000056003785     0.00000075233051
   45     0.00017160688666     0.00004551817618     0.00001993866983     0.00000246527897     0.00000437688189
   46     0.00726485335041     0.00041381064511     0.00011628272161     0.00002628687410     0.00002568690595
   47     0.00163869696868     0.00022651524291     0.00004283346977     0.00001335288834     0.00001876957441
   48     0.04555737166972     0.01312831350988     0.00224909919941     0.00048528152231     0.00053553163279
   49     0.01642769586054     0.05451530854540     0.82559963285978     0.05481926736350     0.00893610919985
   50     0.00101684161457     0.00917098832617     0.05544227087202     0.82439260177651     0.05361257370271
   51     0.00100942954823     0.00913516433918     0.00197832609912     0.00893256151703     0.05341984164771
   52     0.01573017316802     0.05509571409679     0.00900077911836     0.00202598186054     0.00893850762579
   53     0.00010127182016     0.00060273351965     0.00105062438333     0.01620278321614     0.04283462745465
   54     0.00010890497828     0.00083616834891     0.00080908851192     0.00773066349173     0.04234909602920
   55     0.00001540488312     0.00008095900049     0.00023785179862     0.00486640229921     0.00503375206290
   56     0.00004450902553     0.00031608076149     0.00042151875963     0.00084049471151     0.00131265299446
   57     0.00000551258742     0.00006762689314     0.00010927408287     0.00043699217538     0.00041892344180
   58     0.00006742656208     0.00179041603171     0.00640885459750     0.01638208070143     0.01220256023944
   59     0.00000170052267     0.00000631948481     0.00000973659378     0.00005659353008     0.00007110052446
   60     0.00000115197574     0.00001105705051     0.00003795874545     0.00007960886811     0.00007839174840
   61     0.00000065566900     0.00000810283777     0.00001844033210     0.00003168170104     0.00007133250589
[...]
   15     0.00000017377954     0.00000002787535     0.00000062313806     0.00000001917005     0.00000001465424
   16     0.00000014533700     0.00000003558836     0.00000023506785     0.00000002360438     0.00000002236941
   17     0.00000108245413     0.00000011083102     0.00000296633109     0.00000008051078     0.00000004750897
   18     0.00000524121645     0.00000037453642     0.00000787619215     0.00000015356182     0.00000013195741
   19     0.00000204665832     0.00000024681816     0.00000481975071     0.00000009036090     0.00000007912369
   20     0.00000536770964     0.00000194227198     0.00001596570916     0.00000062039335     0.00000026963331
   21     0.00004450902553     0.00000551258742     0.00006742656208     0.00000170052267     0.00000115197574
   22     0.00031608076149     0.00006762689314     0.00179041603171     0.00000631948481     0.00001105705051
   23     0.00042151875963     0.00010927408287     0.00640885459750     0.00000973659378     0.00003795874545
   24     0.00084049471151     0.00043699217538     0.01638208070143     0.00005659353008     0.00007960886811
   25     0.00131265299446     0.00041892344180     0.01220256023944     0.00007110052446     0.00007839174840
   26     0.00059893170164     0.00020016790638     0.00432741968074     0.00005655193579     0.00004235200048
   27     0.00025114997576     0.00004962425606     0.00184661323986     0.00001160399378     0.00002121338026
   28     0.01092850214036     0.00064447473197     0.00540123947002     0.00023160487225     0.00003982459257
   29     0.05950127168924     0.00909122328582     0.00926892587048     0.00133040873606     0.00011490833544
   30     0.79215392996191     0.04597031761685     0.03655175850912     0.00832154920983     0.00238383409219
   31     0.04204225917131     0.84126757536878     0.76937510691395     0.01275393899189     0.01492391846862
   32     0.01125700539930     0.04395921861890     0.05271270567073     0.04907418302656     0.04782658247051
   33     0.01302486634771     0.01722221007076     0.01133129014297     0.89217893722621     0.90376108944559
   34     0.00656025302026     0.01194795231994     0.01602330587908     0.01271826307974     0.01042504346482
   35     0.01786397937456     0.00120458259122     0.00569081174557     0.00837955528011     0.00099249102124
   36     0.00000554477127     0.00000229684209     0.00002508610571     0.00000029020886     0.00000045824527
   37     0.00000006320904     0.00000000904020     0.00000007776438     0.00000000357271     0.00000000297528
   38     0.00000004816287     0.00000000557042     0.00000025519098     0.00000000099360     0.00000000424948
   39     0.00000002132645     0.00000000272122     0.00000015233580     0.00000000299411     0.00000000155157
   40     0.00000005666742     0.00000001741549     0.00000025670907     0.00000000225560     0.00000000208567
   41     0.00000008244767     0.00000002204568     0.00000054046492     0.00000000416579     0.00000000719773
   42     0.00000000255514     0.00000000020268     0.00000001836686     0.00000000012825     0.00000000002205
   43     0.00000000078894     0.00000000021107     0.00000000628444     0.00000000015570     0.00000000010825
   44     0.00000000282982     0.00000000034167     0.00000000765344     0.00000000046076     0.00000000036787
   45     0.00000002370084     0.00000000453630     0.00000004907220     0.00000000447514     0.00000000022733
   46     0.00000009049409     0.00000000209990     0.00000005170130     0.00000001412108     0.00000000102661
   47     0.00000001930630     0.00000001744048     0.00000013874944     0.00000000590564     0.00000000176496
   48     0.00000060970282     0.00000018138398     0.00000979407935     0.00000009281732     0.00000008035611
   49     0.00000080224680     0.00001027409932     0.00015108020531     0.00000045794777     0.00000019275247
   50     0.00002508048829     0.00004370893063     0.00099423552861     0.00003093297779     0.00000685940402
   51     0.00007985421385     0.00001268438102     0.00007041349206     0.00003578027986     0.00000754004268
   52     0.00000169719878     0.00000166575580     0.00000447180015     0.00000034962616     0.00000034215745
   53     0.00069190436337     0.00004244123450     0.00016506352781     0.00003512778582     0.00000493624788
   54     0.00010436443886     0.00026303790934     0.00002520776669     0.00003565455329     0.00000819196452
   55     0.00657817811791     0.00179280954799     0.00369076573781     0.00012715376528     0.00002100131612
   56     0.00000000000000     0.00400949381960     0.01882357534069     0.00172783599596     0.00027118531923
   57     0.00400949381960     0.00000000000000     0.00668088160995     0.00094790318087     0.00175752160154
   58     0.01882357534069     0.00668088160995     0.00000000000000     0.00011403070141     0.00067055363681
   59     0.00172783599596     0.00094790318087     0.00011403070141     0.00000000000000     0.00743328284011
   60     0.00027118531923     0.00175752160154     0.00067055363681     0.00743328284011     0.00000000000000
   61     0.00008766938859     0.00055755515562     0.00015333404301     0.00742484712144     0.00933841584278
   62     0.00007221001812     0.00058089696356     0.00065248916338     0.00103594771977     0.00058753414960
   63     0.00007737777163     0.00048699610410     0.00094311052571     0.00009310989312     0.00014152712792
   64     0.00064137956072     0.00004348302641     0.00006865186162     0.00176290786846     0.00009075475866
   65     0.00028312540283     0.00033179100405     0.00002251033212     0.00013381540334     0.00014549109039
   66     0.00000000226299     0.00000000026890     0.00000001133500     0.00000000026824     0.00000000050274
   67     0.00000000715978     0.00000000045846     0.00000002381642     0.00000000040913     0.00000000010491
   68     0.00000000393843     0.00000000024081     0.00000000394174     0.00000000016904     0.00000000036412

                61                  62                  63                  64                  65

    1     0.00000001470564     0.00000007183593     0.00000272000043     0.00000084724923     0.00000079221122
    2     0.00000000570660     0.00000004838457     0.00000105499106     0.00000028081731     0.00000023930268
    3     0.00000001828627     0.00000023510551     0.00000354843435     0.00000044991393     0.00000036547969
    4     0.00000034340691     0.00000073702559     0.00001628722141     0.00000531824891     0.00000187678259
    5     0.00000041127037     0.00000180362693     0.00004208636902     0.00001307158458     0.00000402982085
    6     0.00000022718369     0.00000065040649     0.00001155697677     0.00001324501218     0.00000395269993
    7     0.00000000489147     0.00000007833402     0.00000036161687     0.00000005598984     0.00000018657750
    8     0.00000000096171     0.00000001714736     0.00000019599042     0.00000007515265     0.00000001951848
    9     0.00000000069712     0.00000000171896     0.00000002335759     0.00000000370150     0.00000000609249
   10     0.00000000020620     0.00000000113600     0.00000001612597     0.00000000641943     0.00000000463860
   11     0.00000000082676     0.00000000585802     0.00000010267335     0.00000004657426     0.00000000935444
   12     0.00000000173112     0.00000000989041     0.00000019436402     0.00000002285393     0.00000002372435
   13     0.00000000108528     0.00000000425098     0.00000002858038     0.00000002068069     0.00000001109614
   14     0.00000000375623     0.00000001252451     0.00000025202715     0.00000012606441     0.00000003291532
   15     0.00000001392687     0.00000002031677     0.00000046507660     0.00000020446199     0.00000002949893
   16     0.00000000866252     0.00000001094583     0.00000029180076     0.00000008014095     0.00000009560233
   17     0.00000004721824     0.00000006514405     0.00000220340684     0.00000118215572     0.00000036665775
   18     0.00000005917178     0.00000026088422     0.00000697757485     0.00000273427096     0.00000077210717
   19     0.00000008693041     0.00000010809582     0.00000349153563     0.00000111131053     0.00000024038276
   20     0.00000026626774     0.00000182707591     0.00002890217965     0.00000601606708     0.00000507134823
   21     0.00000065566900     0.00000292001042     0.00002707644235     0.00003669504939     0.00001506015577
   22     0.00000810283777     0.00005375124858     0.00099513810736     0.00025707025952     0.00007283897717
   23     0.00001844033210     0.00004857522988     0.00134227327694     0.00016179643079     0.00005817483012
   24     0.00003168170104     0.00015069970472     0.00257441827615     0.00052204738477     0.00019345518682
   25     0.00007133250589     0.00037930303960     0.00916811304132     0.00125065030680     0.00429747593403
   26     0.00008937965228     0.00049499865916     0.01813975981689     0.00089316897013     0.00457840882665
   27     0.00003394680903     0.00011604624499     0.00627561950777     0.00045657561904     0.00020108317231
   28     0.00004306545809     0.00066374657858     0.00474012150676     0.01100995832633     0.01666014628425
   29     0.00012063387200     0.00995497092518     0.00908998896073     0.05984470741753     0.04195287826262
   30     0.00100118795799     0.00119602544559     0.00540869639164     0.01786837404207     0.01003595070059
   31     0.01036701890128     0.01271640838308     0.01532192569794     0.00646223162610     0.00123805927507
   32     0.04788600269690     0.04453707794437     0.04992553462746     0.01122285912000     0.00810374199976
   33     0.90381678748749     0.01863489800048     0.01041791419872     0.01295714645572     0.00082866066576
   34     0.01513795966706     0.83455131552932     0.78638539965577     0.04261170606809     0.04257335077991
   35     0.00236343400825     0.04769770762790     0.03537016432399     0.79418453633379     0.84680408811800
   36     0.00000040731225     0.00000206604972     0.00001785625552     0.00000850123141     0.00000592896472
   37     0.00000000139210     0.00000000213977     0.00000012122274     0.00000003217552     0.00000000999084
   38     0.00000000190650     0.00000000259830     0.00000006835119     0.00000006177436     0.00000001601083
   39     0.00000000093345     0.00000000382076     0.00000007120764     0.00000002642859     0.00000000757694
   40     0.00000000233060     0.00000001789523     0.00000086643846     0.00000006036922     0.00000013702014
   41     0.00000000062753     0.00000003407568     0.00000015898976     0.00000018618542     0.00000014900290
   42     0.00000000008164     0.00000000018645     0.00000001172564     0.00000000044197     0.00000000268380
   43     0.00000000001957     0.00000000010911     0.00000000480044     0.00000000142338     0.00000000044444
   44     0.00000000016701     0.00000000060995     0.00000000951411     0.00000000090343     0.00000000183021
   45     0.00000000031032     0.00000000150969     0.00000004555375     0.00000002449198     0.00000001025847
   46     0.00000000694999     0.00000000904637     0.00000014726059     0.00000014740738     0.00000011620974
   47     0.00000000230821     0.00000000631276     0.00000004538860     0.00000006344313     0.00000000747576
   48     0.00000021474879     0.00000015173769     0.00001276308145     0.00000075771172     0.00000137738669
   49     0.00000032218922     0.00000077641901     0.00000074500274     0.00000348548994     0.00000602411241
   50     0.00000407180933     0.00001298508315     0.00001043263115     0.00008045283278     0.00003021101291
   51     0.00001125208794     0.00008257474592     0.00104101662001     0.00001916412586     0.00043312762425
   52     0.00000015457307     0.00001023804944     0.00013264011855     0.00000161740827     0.00000709673084
   53     0.00000786807375     0.00030809304077     0.00002874818708     0.00008487008937     0.00038210283480
   54     0.00000482677342     0.00004120841291     0.00017367919321     0.00070139856235     0.00165406021772
   55     0.00015035385528     0.00038581657441     0.00002475563506     0.00032426906079     0.00042573921846
   56     0.00008766938859     0.00007221001812     0.00007737777163     0.00064137956072     0.00028312540283
   57     0.00055755515562     0.00058089696356     0.00048699610410     0.00004348302641     0.00033179100405
   58     0.00015333404301     0.00065248916338     0.00094311052571     0.00006865186162     0.00002251033212
   59     0.00742484712144     0.00103594771977     0.00009310989312     0.00176290786846     0.00013381540334
   60     0.00933841584278     0.00058753414960     0.00014152712792     0.00009075475866     0.00014549109039
   61     0.00000000000000     0.00186899432478     0.00059284455240     0.00026750781991     0.00002031067265
   62     0.00186899432478     0.00000000000000     0.00682121211902     0.00439413303414     0.00180362647879
   63     0.00059284455240     0.00682121211902     0.00000000000000     0.01630976880770     0.00340452084477
   64     0.00026750781991     0.00439413303414     0.01630976880770     0.00000000000000     0.00646920148530
   65     0.00002031067265     0.00180362647879     0.00340452084477     0.00646920148530     0.00000000000000
   66     0.00000000014130     0.00000000083128     0.00000002668446     0.00000000370162     0.00000000450328
   67     0.00000000086467     0.00000000053692     0.00000001536328     0.00000001150475     0.00000000042513
   68     0.00000000018971     0.00000000019718     0.00000000438896     0.00000000227248     0.00000000083077

                66                  67                  68

    1     0.00000077209175     0.00000069990165     0.00000031344778
    2     0.00000153569671     0.00000139326887     0.00000072537369
    3     0.00001092618214     0.00000610650424     0.00000389890069
    4     0.00000823059026     0.00000927092135     0.00000784251858
    5     0.00000061196866     0.00000044921542     0.00000033967118
    6     0.00000029268026     0.00000033990360     0.00000017094738
    7     0.00003453900587     0.00002664034414     0.00001460652528
    8     0.00005972700322     0.00009407495635     0.00000511821421
    9     0.00001893051140     0.00001698140024     0.00000340082436
   10     0.00010921724986     0.00015672124391     0.00003389441321
   11     0.00068333404138     0.00076272429961     0.00019538700750
   12     0.00019557708524     0.00021195392018     0.00006080428518
   13     0.00759705125339     0.00769678979796     0.00166150686646
   14     0.01384727983039     0.01369848570921     0.00678287231969
   15     0.04138949783902     0.04195726055765     0.04508070097726
   16     0.01268857933169     0.01283533735574     0.01959077033433
   17     0.00086051827991     0.00082139329765     0.00143236659736
   18     0.00278100047234     0.00275442914782     0.00033570548838
   19     0.00079281379069     0.00085108677635     0.00072872337733
   20     0.00035594579043     0.00033114661778     0.00006942902637
   21     0.00020568096707     0.00020377656144     0.00002684810454
   22     0.00001301455554     0.00001909360572     0.00000750072200
   23     0.00000736961629     0.00000933615884     0.00000156516184
   24     0.00000191390036     0.00000242814068     0.00000031727229
   25     0.00000134106587     0.00000148218697     0.00000026283271
   26     0.00000230158916     0.00000222611546     0.00000045107093
   27     0.00001202143511     0.00001193888179     0.00000258698374
   28     0.00000012112063     0.00000016041177     0.00000005271772
   29     0.00000008602812     0.00000008794425     0.00000001874125
   30     0.00000002656498     0.00000002416862     0.00000001007152
   31     0.00000002975237     0.00000005653199     0.00000001190744
   32     0.00000000795814     0.00000001360897     0.00000000457446
   33     0.00000000208541     0.00000000459396     0.00000000193006
   34     0.00000002661513     0.00000005139400     0.00000001111692
   35     0.00000001499539     0.00000001693016     0.00000001149500
   36     0.00012018266566     0.00012906273711     0.00001342673870
   37     0.89893547857857     0.89798051989455     0.90339035400663
   38     0.00000007866074     0.00000007805083     0.00000001779336
   39     0.00000014661006     0.00000003160848     0.00000006497728
   40     0.00000121569551     0.00000527324188     0.00000289022266
   41     0.00000005483765     0.00000000924866     0.00000004799725
   42     0.00000027979804     0.00000087421788     0.00000008572767
   43     0.00000076547941     0.00000078408343     0.00000022575552
   44     0.00152377957971     0.00108612322655     0.00043945565197
   45     0.00011623889161     0.00009049855134     0.00221265405470
   46     0.00013947966328     0.00013451067494     0.00003011612770
   47     0.00007168846513     0.00007220479971     0.00026003362094
   48     0.00000673927989     0.00001008276699     0.00001724876662
   49     0.00000022234067     0.00000014827175     0.00000012185222
   50     0.00000030865643     0.00000010981269     0.00000004353183
   51     0.00000003702626     0.00000014370914     0.00000003474311
   52     0.00000288780063     0.00000182648135     0.00000007613511
   53     0.00000000495929     0.00000000917684     0.00000000501941
   54     0.00000003316849     0.00000002487211     0.00000000486000
   55     0.00000000093385     0.00000000409340     0.00000000087331
   56     0.00000000226299     0.00000000715978     0.00000000393843
   57     0.00000000026890     0.00000000045846     0.00000000024081
   58     0.00000001133500     0.00000002381642     0.00000000394174
   59     0.00000000026824     0.00000000040913     0.00000000016904
   60     0.00000000050274     0.00000000010491     0.00000000036412
   61     0.00000000014130     0.00000000086467     0.00000000018971
   62     0.00000000083128     0.00000000053692     0.00000000019718
   63     0.00000002668446     0.00000001536328     0.00000000438896
   64     0.00000000370162     0.00000001150475     0.00000000227248
   65     0.00000000450328     0.00000000042513     0.00000000083077
   66     0.00000000000000     0.00691996992449     0.00911872375018
   67     0.00691996992449     0.00000000000000     0.00918898051510
   68     0.00911872375018     0.00918898051510     0.00000000000000



  Atomic Valences: 

 #  #
 Irrep: 1
      1:  4.4078710
      2:  4.4421865
      3:  4.6232364
      4:  4.5900693
      5:  3.9038213
      6:  4.5595851
      7:  4.7575137
      8:  4.3792648
      9:  4.5353741
     10:  3.8678499
     11:  5.0214631
     12:  3.9537625
     13:  3.9684104
     14:  4.6871506
     15:  4.6502650
     16:  4.4569151
     17:  4.4162772
     18:  4.6944653
     19:  4.4387227
     20:  4.0164105
     21:  5.0426489
     22:  4.6633808
     23:  4.4537303
     24:  4.5000207
     25:  4.7554152
     26:  4.5180571
     27:  4.4720113
     28:  4.5424781
     29:  4.2708656
     30:  4.5919771
     31:  4.5999043
     32:  4.2460957
     33:  4.3079949
     34:  4.6053788
     35:  4.5946175
     36:  2.7517599
     37:  4.1580746
     38:  0.9890003
     39:  0.9891404
     40:  0.9894920
     41:  0.9897470
     42:  0.9882141
     43:  0.9888174
     44:  0.9346928
     45:  0.9903434
     46:  0.9826466
     47:  0.9915410
     48:  0.9373940
     49:  0.9834665
     50:  0.9880732
     51:  0.9876359
     52:  0.9848959
     53:  0.9932132
     54:  0.9927690
     55:  0.9915119
     56:  0.9906304
     57:  0.9901661
     58:  0.9827773
     59:  1.0061438
     60:  1.0012270
     61:  1.0014821
     62:  0.9898654
     63:  0.9856176
     64:  0.9910573
     65:  0.9931920
     66:  0.9986387
     67:  0.9981053
     68:  1.0007229


    Psi4 stopped on: Friday, 24 April 2020 12:14PM
    Psi4 wall time for execution: 0:14:49.60

*** Psi4 exiting successfully. Buy a developer a beer!
