
    -----------------------------------------------------------------------
          Psi4: An Open-Source Ab Initio Electronic Structure Package
                               Psi4 1.3.2 release

                         Git: Rev {HEAD} ecbda83 


    R. M. Parrish, L. A. Burns, D. G. A. Smith, A. C. Simmonett,
    A. E. DePrince III, E. G. Hohenstein, U. Bozkaya, A. Yu. Sokolov,
    R. Di Remigio, R. M. Richard, J. F. Gonthier, A. M. James,
    H. R. McAlexander, A. Kumar, M. Saitow, X. Wang, B. P. Pritchard,
    P. Verma, H. F. Schaefer III, K. Patkowski, R. A. King, E. F. Valeev,
    F. A. Evangelista, J. M. Turney, T. D. Crawford, and C. D. Sherrill,
    J. Chem. Theory Comput. 13(7) pp 3185--3197 (2017).
    (doi: 10.1021/acs.jctc.7b00174)


                         Additional Contributions by
    P. Kraus, H. Kruse, M. H. Lechner, M. C. Schieber, R. A. Shaw,
    A. Alenaizan, R. Galvelis, Z. L. Glick, S. Lehtola, and J. P. Misiewicz

    -----------------------------------------------------------------------


    Psi4 started on: Wednesday, 04 March 2020 12:35PM

    Process ID: 36887
    Host:       node36.bme.utexas.edu
    PSIDATADIR: /home/bdw2292/miniconda3/envs/p4env/share/psi4
    Memory:     500.0 MiB
    Threads:    1
    
  ==> Input File <==

--------------------------------------------------------------------------
molecule { 
0 1
 C   -1.504001    5.343231   -3.156249
 C   -2.582528    5.053604   -2.309697
 C   -2.754805    3.748509   -1.804659
 C   -1.792128    2.797946   -2.223492
 N   -0.757406    3.054662   -3.033091
 C   -0.620602    4.309711   -3.484988
 C   -3.888979    3.353007   -0.890746
 C   -4.925630    4.208785   -0.482518
 C   -5.897918    3.636684    0.343129
 N   -5.883712    2.372926    0.753272
 C   -4.840617    1.627385    0.330129
 N   -3.863037    2.072309   -0.465322
 N   -4.855197    0.315769    0.779220
 C   -4.056052   -0.852367    0.511374
 C   -4.545911   -2.130480    0.921462
 C   -3.740877   -3.246534    0.643010
 C   -2.503223   -3.173925   -0.004359
 C   -2.033656   -1.914506   -0.393893
 C   -2.812783   -0.775715   -0.129985
 N   -0.782467   -1.679553   -1.033122
 C    0.128124   -2.578174   -1.523276
 C    1.483308   -2.590782   -0.848552
 C    1.648979   -2.358295    0.526468
 C    2.922095   -2.399713    1.099540
 C    4.067319   -2.671119    0.327018
 C    3.882288   -2.918593   -1.046963
 C    2.612857   -2.886451   -1.628409
 C    5.459643   -2.709112    0.960089
 N    6.164122   -1.439371    1.206909
 C    5.810753   -0.621053    2.387117
 C    4.804665    0.520510    2.089741
 N    5.209823    1.411070    0.976712
 C    6.173632    2.470722    1.298650
 C    5.516991    0.584090   -0.216174
 C    6.507388   -0.579046    0.052160
 O   -0.117676   -3.324242   -2.454573
 C   -5.878916   -2.337992    1.620948
 H   -1.351027    6.342722   -3.552635
 H   -3.263171    5.862353   -2.056319
 H   -1.872664    1.766436   -1.900866
 H    0.229789    4.488450   -4.140758
 H   -5.014209    5.244978   -0.784886
 H   -6.742070    4.230784    0.692214
 H   -5.686821    0.170597    1.331583
 H   -4.086541   -4.237606    0.934687
 H   -1.925293   -4.069514   -0.201873
 H   -2.452998    0.199533   -0.419063
 H   -0.511452   -0.720248   -1.198423
 H    0.776959   -2.154834    1.142697
 H    3.018396   -2.223950    2.170878
 H    4.739214   -3.143400   -1.681340
 H    2.475672   -3.088785   -2.687866
 H    5.390530   -3.238572    1.921295
 H    6.114177   -3.316510    0.318323
 H    5.515822   -1.226554    3.189032
 H    7.139839    0.108148    2.844586
 H    4.690048    1.339641    3.331685
 H    3.747743    0.096262    1.842827
 H    7.143589    2.047615    1.583160
 H    5.799413    3.084742    2.125678
 H    6.317034    3.126666    0.432272
 H    5.850793    1.226708   -1.031156
 H    4.183816   -0.068799   -0.657517
 H    7.879848    0.101784    0.374414
 H    6.663880   -1.225841   -0.903928
 H   -6.711835   -1.930581    1.030447
 H   -5.897263   -1.845253    2.603429
 H   -6.111520   -3.397470    1.796387
}
memory 20GB
set_num_threads(6)
psi4_io.set_default_path("/scratch/bdw2292")
set freeze_core True
E, wfn = energy('mp2/6-311++G**',return_wfn=True)
oeprop(wfn,"WIBERG_LOWDIN_INDICES")
clean()
--------------------------------------------------------------------------

  Memory set to  18.626 GiB by Python driver.
  Threads set to 6 by Python driver.
    SCF Algorithm Type (re)set to DF.

*** tstart() called on node36.bme.utexas.edu
*** at Wed Mar  4 12:35:25 2020

   => Loading Basis Set <=

    Name: 6-311++G**
    Role: ORBITAL
    Keyword: BASIS
    atoms 1-4, 6-9, 11, 14-19, 21-28, 30-31, 33-35, 37 entry C          line   119 file /home/bdw2292/miniconda3/envs/p4env/share/psi4/basis/6-311ppgss.gbs 
    atoms 5, 10, 12-13, 20, 29, 32                     entry N          line   140 file /home/bdw2292/miniconda3/envs/p4env/share/psi4/basis/6-311ppgss.gbs 
    atoms 36                                           entry O          line   161 file /home/bdw2292/miniconda3/envs/p4env/share/psi4/basis/6-311ppgss.gbs 
    atoms 38-68                                        entry H          line    42 file /home/bdw2292/miniconda3/envs/p4env/share/psi4/basis/6-311ppgss.gbs 


         ---------------------------------------------------------
                                   SCF
               by Justin Turney, Rob Parrish, Andy Simmonett
                          and Daniel G. A. Smith
                              RHF Reference
                        6 Threads,  19073 MiB Core
         ---------------------------------------------------------

  ==> Geometry <==

    Molecular point group: c1
    Full point group: C1

    Geometry (in Angstrom), charge = 0, multiplicity = 1:

       Center              X                  Y                   Z               Mass       
    ------------   -----------------  -----------------  -----------------  -----------------
         C           -1.356730846357     5.248233490330    -2.899666716578    12.000000000000
         C           -2.435257846357     4.958606490330    -2.053114716578    12.000000000000
         C           -2.607534846357     3.653511490330    -1.548076716578    12.000000000000
         C           -1.644857846357     2.702948490330    -1.966909716578    12.000000000000
         N           -0.610135846357     2.959664490330    -2.776508716578    14.003074004430
         C           -0.473331846357     4.214713490330    -3.228405716578    12.000000000000
         C           -3.741708846357     3.258009490330    -0.634163716578    12.000000000000
         C           -4.778359846357     4.113787490330    -0.225935716578    12.000000000000
         C           -5.750647846357     3.541686490330     0.599711283422    12.000000000000
         N           -5.736441846357     2.277928490330     1.009854283422    14.003074004430
         C           -4.693346846357     1.532387490330     0.586711283422    12.000000000000
         N           -3.715766846357     1.977311490330    -0.208739716578    14.003074004430
         N           -4.707926846357     0.220771490330     1.035802283422    14.003074004430
         C           -3.908781846357    -0.947364509670     0.767956283422    12.000000000000
         C           -4.398640846357    -2.225477509670     1.178044283422    12.000000000000
         C           -3.593606846357    -3.341531509670     0.899592283422    12.000000000000
         C           -2.355952846357    -3.268922509670     0.252223283422    12.000000000000
         C           -1.886385846357    -2.009503509670    -0.137310716578    12.000000000000
         C           -2.665512846357    -0.870712509670     0.126597283422    12.000000000000
         N           -0.635196846357    -1.774550509670    -0.776539716578    14.003074004430
         C            0.275394153643    -2.673171509670    -1.266693716578    12.000000000000
         C            1.630578153643    -2.685779509670    -0.591969716578    12.000000000000
         C            1.796249153643    -2.453292509670     0.783050283422    12.000000000000
         C            3.069365153643    -2.494710509670     1.356122283422    12.000000000000
         C            4.214589153643    -2.766116509670     0.583600283422    12.000000000000
         C            4.029558153643    -3.013590509670    -0.790380716578    12.000000000000
         C            2.760127153643    -2.981448509670    -1.371826716578    12.000000000000
         C            5.606913153643    -2.804109509670     1.216671283422    12.000000000000
         N            6.311392153643    -1.534368509670     1.463491283422    14.003074004430
         C            5.958023153643    -0.716050509670     2.643699283422    12.000000000000
         C            4.951935153643     0.425512490330     2.346323283422    12.000000000000
         N            5.357093153643     1.316072490330     1.233294283422    14.003074004430
         C            6.320902153643     2.375724490330     1.555232283422    12.000000000000
         C            5.664261153643     0.489092490330     0.040408283422    12.000000000000
         C            6.654658153643    -0.674043509670     0.308742283422    12.000000000000
         O            0.029594153643    -3.419239509670    -2.197990716578    15.994914619570
         C           -5.731645846357    -2.432989509670     1.877530283422    12.000000000000
         H           -1.203756846357     6.247724490330    -3.296052716578     1.007825032230
         H           -3.115900846357     5.767355490330    -1.799736716578     1.007825032230
         H           -1.725393846357     1.671438490330    -1.644283716578     1.007825032230
         H            0.377059153643     4.393452490330    -3.884175716578     1.007825032230
         H           -4.866938846357     5.149980490330    -0.528303716578     1.007825032230
         H           -6.594799846357     4.135786490330     0.948796283422     1.007825032230
         H           -5.539550846357     0.075599490330     1.588165283422     1.007825032230
         H           -3.939270846357    -4.332603509670     1.191269283422     1.007825032230
         H           -1.778022846357    -4.164511509670     0.054709283422     1.007825032230
         H           -2.305727846357     0.104535490330    -0.162480716578     1.007825032230
         H           -0.364181846357    -0.815245509670    -0.941840716578     1.007825032230
         H            0.924229153643    -2.249831509670     1.399279283422     1.007825032230
         H            3.165666153643    -2.318947509670     2.427460283422     1.007825032230
         H            4.886484153643    -3.238397509670    -1.424757716578     1.007825032230
         H            2.622942153643    -3.183782509670    -2.431283716578     1.007825032230
         H            5.537800153643    -3.333569509670     2.177877283422     1.007825032230
         H            6.261447153643    -3.411507509670     0.574905283422     1.007825032230
         H            5.663092153643    -1.321551509670     3.445614283422     1.007825032230
         H            7.287109153643     0.013150490330     3.101168283422     1.007825032230
         H            4.837318153643     1.244643490330     3.588267283422     1.007825032230
         H            3.895013153643     0.001264490330     2.099409283422     1.007825032230
         H            7.290859153643     1.952617490330     1.839742283422     1.007825032230
         H            5.946683153643     2.989744490330     2.382260283422     1.007825032230
         H            6.464304153643     3.031668490330     0.688854283422     1.007825032230
         H            5.998063153643     1.131710490330    -0.774573716578     1.007825032230
         H            4.331086153643    -0.163796509670    -0.400934716578     1.007825032230
         H            8.027118153643     0.006786490330     0.630996283422     1.007825032230
         H            6.811150153643    -1.320838509670    -0.647345716578     1.007825032230
         H           -6.564564846357    -2.025578509670     1.287029283422     1.007825032230
         H           -5.749992846357    -1.940250509670     2.860011283422     1.007825032230
         H           -5.964249846357    -3.492467509670     2.052969283422     1.007825032230

  Running in c1 symmetry.

  Rotational constants: A =      0.00395  B =      0.00171  C =      0.00138 [cm^-1]
  Rotational constants: A =    118.38347  B =     51.35531  C =     41.27840 [MHz]
  Nuclear repulsion = 3665.871239102485106

  Charge       = 0
  Multiplicity = 1
  Electrons    = 262
  Nalpha       = 131
  Nbeta        = 131

  ==> Algorithm <==

  SCF Algorithm Type is DF.
  DIIS enabled.
  MOM disabled.
  Fractional occupation disabled.
  Guess Type is SAD.
  Energy threshold   = 1.00e-08
  Density threshold  = 1.00e-08
  Integral threshold = 0.00e+00

  ==> Primary Basis <==

  Basis Set: 6-311++G**
    Blend: 6-311++G**
    Number of shells: 525
    Number of basis function: 1031
    Number of Cartesian functions: 1068
    Spherical Harmonics?: true
    Max angular momentum: 2

   => Loading Basis Set <=

    Name: (6-311++G** AUX)
    Role: JKFIT
    Keyword: DF_BASIS_SCF
    atoms 1-4, 6-9, 11, 14-19, 21-28, 30-31, 33-35, 37 entry C          line   162 file /home/bdw2292/miniconda3/envs/p4env/share/psi4/basis/aug-cc-pvtz-jkfit.gbs 
    atoms 5, 10, 12-13, 20, 29, 32                     entry N          line   224 file /home/bdw2292/miniconda3/envs/p4env/share/psi4/basis/aug-cc-pvtz-jkfit.gbs 
    atoms 36                                           entry O          line   286 file /home/bdw2292/miniconda3/envs/p4env/share/psi4/basis/aug-cc-pvtz-jkfit.gbs 
    atoms 38-68                                        entry H          line    70 file /home/bdw2292/miniconda3/envs/p4env/share/psi4/basis/aug-cc-pvtz-jkfit.gbs 

  ==> Pre-Iterations <==

   -------------------------------------------------------
    Irrep   Nso     Nmo     Nalpha   Nbeta   Ndocc  Nsocc
   -------------------------------------------------------
     A       1031    1031       0       0       0       0
   -------------------------------------------------------
    Total    1031    1031     131     131     131       0
   -------------------------------------------------------

  ==> Integral Setup <==

  ==> DiskDFJK: Density-Fitted J/K Matrices <==

    J tasked:                  Yes
    K tasked:                  Yes
    wK tasked:                  No
    OpenMP threads:              6
    Integrals threads:           6
    Memory [MiB]:            14305
    Algorithm:                Core
    Integral Cache:           NONE
    Schwarz Cutoff:          1E-12
    Fitting Condition:       1E-10

   => Auxiliary Basis Set <=

  Basis Set: (6-311++G** AUX)
    Blend: AUG-CC-PVTZ-JKFIT
    Number of shells: 1544
    Number of basis function: 5274
    Number of Cartesian functions: 6552
    Spherical Harmonics?: true
    Max angular momentum: 4

  Minimum eigenvalue in the overlap matrix is 1.3312496561E-07.
  Using Symmetric Orthogonalization.

  SCF Guess: Superposition of Atomic Densities via on-the-fly atomic UHF.

  ==> Iterations <==

                           Total Energy        Delta E     RMS |[F,P]|

   @DF-RHF iter SAD: -1571.20474484662964   -1.57120e+03   0.00000e+00 
   @DF-RHF iter   1: -1571.30462469567146   -9.98798e-02   1.21716e-03 DIIS
   @DF-RHF iter   2: -1572.08357122419739   -7.78947e-01   6.41636e-04 DIIS
   @DF-RHF iter   3: -1572.27842287010094   -1.94852e-01   1.64787e-04 DIIS
   @DF-RHF iter   4: -1572.29583793079178   -1.74151e-02   6.88528e-05 DIIS
   @DF-RHF iter   5: -1572.29866900859929   -2.83108e-03   1.45143e-05 DIIS
   @DF-RHF iter   6: -1572.29885168302599   -1.82674e-04   6.64620e-06 DIIS
   @DF-RHF iter   7: -1572.29889717838023   -4.54954e-05   2.20474e-06 DIIS
   @DF-RHF iter   8: -1572.29890480775475   -7.62937e-06   9.41644e-07 DIIS
   @DF-RHF iter   9: -1572.29890613051793   -1.32276e-06   3.64690e-07 DIIS
   @DF-RHF iter  10: -1572.29890638764573   -2.57128e-07   1.67784e-07 DIIS
   @DF-RHF iter  11: -1572.29890643941189   -5.17662e-08   7.28056e-08 DIIS
   @DF-RHF iter  12: -1572.29890645096043   -1.15485e-08   2.96692e-08 DIIS
   @DF-RHF iter  13: -1572.29890645315481   -2.19438e-09   1.25765e-08 DIIS
   @DF-RHF iter  14: -1572.29890645353089   -3.76076e-10   6.05395e-09 DIIS
  Energy and wave function converged.


  ==> Post-Iterations <==

    Orbital Energies [Eh]
    ---------------------

    Doubly Occupied:                                                      

       1A    -20.547542     2A    -15.602035     3A    -15.580017  
       4A    -15.578308     5A    -15.574437     6A    -15.571088  
       7A    -15.567715     8A    -15.557847     9A    -11.373140  
      10A    -11.369033    11A    -11.331397    12A    -11.317963  
      13A    -11.310703    14A    -11.306055    15A    -11.305474  
      16A    -11.303895    17A    -11.302822    18A    -11.297845  
      19A    -11.293641    20A    -11.293288    21A    -11.283599  
      22A    -11.283191    23A    -11.274093    24A    -11.262657  
      25A    -11.258781    26A    -11.258549    27A    -11.256404  
      28A    -11.253825    29A    -11.250156    30A    -11.248810  
      31A    -11.248724    32A    -11.246141    33A    -11.243492  
      34A    -11.242331    35A    -11.234282    36A    -11.227432  
      37A    -11.227244    38A     -1.401225    39A     -1.341872  
      40A     -1.270876    41A     -1.250738    42A     -1.249261  
      43A     -1.240100    44A     -1.206418    45A     -1.203173  
      46A     -1.165292    47A     -1.139009    48A     -1.110311  
      49A     -1.071560    50A     -1.061340    51A     -1.043910  
      52A     -1.037593    53A     -1.027902    54A     -1.008175  
      55A     -1.004142    56A     -0.980903    57A     -0.946039  
      58A     -0.930713    59A     -0.921628    60A     -0.898331  
      61A     -0.870243    62A     -0.867260    63A     -0.853329  
      64A     -0.851735    65A     -0.841274    66A     -0.834871  
      67A     -0.823251    68A     -0.809309    69A     -0.778071  
      70A     -0.749761    71A     -0.736771    72A     -0.730549  
      73A     -0.717535    74A     -0.712818    75A     -0.703303  
      76A     -0.683288    77A     -0.679710    78A     -0.667453  
      79A     -0.663545    80A     -0.654348    81A     -0.653450  
      82A     -0.650017    83A     -0.642317    84A     -0.633365  
      85A     -0.625293    86A     -0.619799    87A     -0.618166  
      88A     -0.612372    89A     -0.611548    90A     -0.607698  
      91A     -0.601424    92A     -0.599089    93A     -0.598004  
      94A     -0.588230    95A     -0.581993    96A     -0.580626  
      97A     -0.580499    98A     -0.576956    99A     -0.554953  
     100A     -0.549395   101A     -0.542599   102A     -0.540616  
     103A     -0.537949   104A     -0.533563   105A     -0.530012  
     106A     -0.526548   107A     -0.513333   108A     -0.510441  
     109A     -0.507529   110A     -0.503310   111A     -0.498872  
     112A     -0.493987   113A     -0.490706   114A     -0.482919  
     115A     -0.459327   116A     -0.449189   117A     -0.443080  
     118A     -0.434419   119A     -0.428875   120A     -0.421785  
     121A     -0.411196   122A     -0.395540   123A     -0.394226  
     124A     -0.379476   125A     -0.370898   126A     -0.348747  
     127A     -0.346969   128A     -0.341582   129A     -0.313083  
     130A     -0.311300   131A     -0.286210  

    Virtual:                                                              

     132A      0.029711   133A      0.037512   134A      0.038753  
     135A      0.043658   136A      0.044682   137A      0.046399  
     138A      0.047446   139A      0.051117   140A      0.055032  
     141A      0.059200   142A      0.063237   143A      0.065658  
     144A      0.066638   145A      0.068186   146A      0.070724  
     147A      0.073001   148A      0.073746   149A      0.079148  
     150A      0.079503   151A      0.081966   152A      0.086493  
     153A      0.088467   154A      0.090482   155A      0.092022  
     156A      0.094614   157A      0.097396   158A      0.098230  
     159A      0.102704   160A      0.103866   161A      0.106508  
     162A      0.108433   163A      0.111792   164A      0.112506  
     165A      0.116372   166A      0.117135   167A      0.120201  
     168A      0.121720   169A      0.124121   170A      0.127387  
     171A      0.132050   172A      0.133246   173A      0.137742  
     174A      0.140848   175A      0.144709   176A      0.146397  
     177A      0.147650   178A      0.148577   179A      0.152983  
     180A      0.153297   181A      0.155312   182A      0.159303  
     183A      0.160359   184A      0.161272   185A      0.163085  
     186A      0.164476   187A      0.165908   188A      0.167638  
     189A      0.169088   190A      0.171560   191A      0.173432  
     192A      0.175371   193A      0.178367   194A      0.178702  
     195A      0.179636   196A      0.181390   197A      0.183189  
     198A      0.184845   199A      0.186732   200A      0.188143  
     201A      0.189274   202A      0.191654   203A      0.191981  
     204A      0.193799   205A      0.197199   206A      0.199214  
     207A      0.200454   208A      0.203441   209A      0.204294  
     210A      0.204881   211A      0.205963   212A      0.208328  
     213A      0.211758   214A      0.211992   215A      0.213936  
     216A      0.215217   217A      0.217868   218A      0.218225  
     219A      0.222366   220A      0.223841   221A      0.225294  
     222A      0.226756   223A      0.227027   224A      0.230504  
     225A      0.231276   226A      0.232356   227A      0.233739  
     228A      0.235184   229A      0.237803   230A      0.240533  
     231A      0.241374   232A      0.242327   233A      0.245739  
     234A      0.246421   235A      0.251410   236A      0.253178  
     237A      0.256872   238A      0.259709   239A      0.261784  
     240A      0.262315   241A      0.264986   242A      0.266409  
     243A      0.268619   244A      0.273319   245A      0.277166  
     246A      0.280100   247A      0.280696   248A      0.282763  
     249A      0.284448   250A      0.289040   251A      0.290800  
     252A      0.291445   253A      0.294022   254A      0.297161  
     255A      0.298882   256A      0.301239   257A      0.305053  
     258A      0.307099   259A      0.311065   260A      0.312210  
     261A      0.313797   262A      0.315821   263A      0.316894  
     264A      0.323185   265A      0.324512   266A      0.327162  
     267A      0.328988   268A      0.331033   269A      0.332338  
     270A      0.335947   271A      0.336916   272A      0.338244  
     273A      0.338786   274A      0.343042   275A      0.344852  
     276A      0.346001   277A      0.347568   278A      0.350581  
     279A      0.353022   280A      0.354750   281A      0.356241  
     282A      0.360926   283A      0.361656   284A      0.362913  
     285A      0.363824   286A      0.370002   287A      0.371359  
     288A      0.373103   289A      0.373728   290A      0.375725  
     291A      0.377653   292A      0.379626   293A      0.380408  
     294A      0.382541   295A      0.383621   296A      0.385333  
     297A      0.385767   298A      0.388061   299A      0.388499  
     300A      0.390278   301A      0.393888   302A      0.395359  
     303A      0.395870   304A      0.396977   305A      0.400364  
     306A      0.403590   307A      0.404236   308A      0.406090  
     309A      0.407403   310A      0.409690   311A      0.410679  
     312A      0.412768   313A      0.415083   314A      0.416310  
     315A      0.417884   316A      0.420217   317A      0.423163  
     318A      0.424144   319A      0.427489   320A      0.427830  
     321A      0.431997   322A      0.433303   323A      0.434482  
     324A      0.435503   325A      0.438720   326A      0.439841  
     327A      0.441643   328A      0.442864   329A      0.445244  
     330A      0.446300   331A      0.449239   332A      0.451648  
     333A      0.454359   334A      0.456850   335A      0.459619  
     336A      0.463685   337A      0.466058   338A      0.467197  
     339A      0.470004   340A      0.472871   341A      0.475058  
     342A      0.476826   343A      0.479461   344A      0.483295  
     345A      0.484624   346A      0.491097   347A      0.492577  
     348A      0.496624   349A      0.499411   350A      0.500912  
     351A      0.501855   352A      0.504569   353A      0.506656  
     354A      0.509083   355A      0.513705   356A      0.515091  
     357A      0.521951   358A      0.522958   359A      0.524022  
     360A      0.526517   361A      0.529411   362A      0.534521  
     363A      0.537254   364A      0.538681   365A      0.543152  
     366A      0.544928   367A      0.548922   368A      0.554166  
     369A      0.558287   370A      0.565838   371A      0.569157  
     372A      0.571705   373A      0.576844   374A      0.579738  
     375A      0.587633   376A      0.593085   377A      0.600448  
     378A      0.604365   379A      0.610938   380A      0.612959  
     381A      0.616377   382A      0.617150   383A      0.620503  
     384A      0.623762   385A      0.633346   386A      0.640120  
     387A      0.641905   388A      0.656524   389A      0.665091  
     390A      0.680507   391A      0.685938   392A      0.692372  
     393A      0.696498   394A      0.697497   395A      0.700348  
     396A      0.711995   397A      0.714573   398A      0.722019  
     399A      0.723827   400A      0.727467   401A      0.732420  
     402A      0.735985   403A      0.741474   404A      0.742435  
     405A      0.749668   406A      0.755448   407A      0.761086  
     408A      0.764099   409A      0.766890   410A      0.769089  
     411A      0.771118   412A      0.774419   413A      0.777879  
     414A      0.784619   415A      0.790000   416A      0.793203  
     417A      0.796466   418A      0.799290   419A      0.802581  
     420A      0.806875   421A      0.809903   422A      0.814197  
     423A      0.816306   424A      0.817627   425A      0.821028  
     426A      0.825158   427A      0.826124   428A      0.832999  
     429A      0.835449   430A      0.842271   431A      0.847723  
     432A      0.849954   433A      0.851377   434A      0.856530  
     435A      0.862130   436A      0.864170   437A      0.868474  
     438A      0.870159   439A      0.873533   440A      0.879838  
     441A      0.882733   442A      0.885357   443A      0.886737  
     444A      0.890666   445A      0.893050   446A      0.900744  
     447A      0.903213   448A      0.904343   449A      0.906243  
     450A      0.910821   451A      0.912040   452A      0.918278  
     453A      0.919191   454A      0.922996   455A      0.926013  
     456A      0.928027   457A      0.931120   458A      0.932328  
     459A      0.937809   460A      0.939343   461A      0.941681  
     462A      0.946146   463A      0.947832   464A      0.951641  
     465A      0.958104   466A      0.961860   467A      0.967257  
     468A      0.971591   469A      0.972465   470A      0.976983  
     471A      0.977443   472A      0.979090   473A      0.984574  
     474A      0.987928   475A      0.991747   476A      0.997548  
     477A      0.998571   478A      1.002001   479A      1.003874  
     480A      1.006479   481A      1.015798   482A      1.018147  
     483A      1.023846   484A      1.025313   485A      1.028241  
     486A      1.033189   487A      1.041238   488A      1.041912  
     489A      1.048537   490A      1.051372   491A      1.054852  
     492A      1.059874   493A      1.066823   494A      1.069343  
     495A      1.070768   496A      1.078816   497A      1.084476  
     498A      1.086386   499A      1.090626   500A      1.092885  
     501A      1.099499   502A      1.100518   503A      1.104056  
     504A      1.114781   505A      1.119429   506A      1.121335  
     507A      1.125327   508A      1.128435   509A      1.133182  
     510A      1.138893   511A      1.142771   512A      1.146106  
     513A      1.150636   514A      1.155170   515A      1.158414  
     516A      1.164026   517A      1.165755   518A      1.171149  
     519A      1.173583   520A      1.175888   521A      1.181086  
     522A      1.182419   523A      1.191483   524A      1.192473  
     525A      1.198974   526A      1.201933   527A      1.206109  
     528A      1.211270   529A      1.214801   530A      1.216415  
     531A      1.222964   532A      1.225705   533A      1.229099  
     534A      1.232918   535A      1.234313   536A      1.240115  
     537A      1.242047   538A      1.245108   539A      1.248212  
     540A      1.253902   541A      1.256446   542A      1.258733  
     543A      1.265476   544A      1.266462   545A      1.271786  
     546A      1.273956   547A      1.280284   548A      1.283937  
     549A      1.289505   550A      1.294037   551A      1.295823  
     552A      1.304560   553A      1.306154   554A      1.310375  
     555A      1.323168   556A      1.328764   557A      1.335844  
     558A      1.338416   559A      1.343084   560A      1.345109  
     561A      1.353064   562A      1.356506   563A      1.361961  
     564A      1.364428   565A      1.376973   566A      1.391267  
     567A      1.395568   568A      1.402818   569A      1.405563  
     570A      1.408423   571A      1.412366   572A      1.425613  
     573A      1.433851   574A      1.442095   575A      1.444851  
     576A      1.445120   577A      1.454948   578A      1.465878  
     579A      1.471610   580A      1.488460   581A      1.491069  
     582A      1.496836   583A      1.499657   584A      1.516576  
     585A      1.521957   586A      1.530840   587A      1.532267  
     588A      1.544015   589A      1.546292   590A      1.550719  
     591A      1.573869   592A      1.578420   593A      1.587385  
     594A      1.593735   595A      1.607056   596A      1.616952  
     597A      1.620986   598A      1.625538   599A      1.633716  
     600A      1.642398   601A      1.650676   602A      1.665058  
     603A      1.675973   604A      1.680835   605A      1.699086  
     606A      1.702348   607A      1.706985   608A      1.713913  
     609A      1.714995   610A      1.726950   611A      1.740347  
     612A      1.745408   613A      1.752451   614A      1.755152  
     615A      1.757107   616A      1.768154   617A      1.770566  
     618A      1.782240   619A      1.785517   620A      1.793642  
     621A      1.794585   622A      1.796181   623A      1.802318  
     624A      1.806056   625A      1.810767   626A      1.814741  
     627A      1.819879   628A      1.823578   629A      1.825769  
     630A      1.826663   631A      1.830476   632A      1.833826  
     633A      1.840592   634A      1.843865   635A      1.849129  
     636A      1.851381   637A      1.855156   638A      1.856590  
     639A      1.862663   640A      1.865023   641A      1.866863  
     642A      1.869716   643A      1.873808   644A      1.888557  
     645A      1.890491   646A      1.895142   647A      1.900481  
     648A      1.901304   649A      1.908932   650A      1.912413  
     651A      1.922482   652A      1.927820   653A      1.929358  
     654A      1.936667   655A      1.946802   656A      1.949415  
     657A      1.950970   658A      1.958972   659A      1.963480  
     660A      1.964939   661A      1.967150   662A      1.972298  
     663A      1.976701   664A      1.986313   665A      1.989942  
     666A      1.997551   667A      1.999242   668A      2.001015  
     669A      2.004403   670A      2.008024   671A      2.010118  
     672A      2.016336   673A      2.020917   674A      2.022745  
     675A      2.031965   676A      2.035816   677A      2.044368  
     678A      2.046817   679A      2.051434   680A      2.057519  
     681A      2.059170   682A      2.065553   683A      2.069488  
     684A      2.075208   685A      2.078608   686A      2.084486  
     687A      2.087109   688A      2.094189   689A      2.096792  
     690A      2.100302   691A      2.113911   692A      2.121009  
     693A      2.130845   694A      2.143911   695A      2.144942  
     696A      2.153809   697A      2.157870   698A      2.173961  
     699A      2.174165   700A      2.177207   701A      2.180481  
     702A      2.183126   703A      2.195432   704A      2.196711  
     705A      2.200868   706A      2.217454   707A      2.223379  
     708A      2.230569   709A      2.233522   710A      2.234890  
     711A      2.241252   712A      2.252221   713A      2.254456  
     714A      2.254894   715A      2.257680   716A      2.261752  
     717A      2.266188   718A      2.272777   719A      2.275699  
     720A      2.277470   721A      2.283515   722A      2.286366  
     723A      2.295986   724A      2.300064   725A      2.306585  
     726A      2.308563   727A      2.314727   728A      2.318047  
     729A      2.323729   730A      2.329926   731A      2.334953  
     732A      2.346353   733A      2.349075   734A      2.355228  
     735A      2.363271   736A      2.366336   737A      2.373165  
     738A      2.377843   739A      2.392816   740A      2.394746  
     741A      2.403697   742A      2.406388   743A      2.413419  
     744A      2.423191   745A      2.427519   746A      2.437877  
     747A      2.446335   748A      2.452058   749A      2.459592  
     750A      2.463707   751A      2.470294   752A      2.477627  
     753A      2.495250   754A      2.496802   755A      2.509867  
     756A      2.513626   757A      2.524585   758A      2.533572  
     759A      2.536105   760A      2.539732   761A      2.545643  
     762A      2.557115   763A      2.559772   764A      2.568772  
     765A      2.582632   766A      2.596143   767A      2.599179  
     768A      2.624301   769A      2.626552   770A      2.652429  
     771A      2.653301   772A      2.666380   773A      2.679146  
     774A      2.687865   775A      2.703691   776A      2.706712  
     777A      2.716750   778A      2.723112   779A      2.730592  
     780A      2.734342   781A      2.745032   782A      2.753005  
     783A      2.763841   784A      2.778292   785A      2.780219  
     786A      2.797217   787A      2.814580   788A      2.817214  
     789A      2.827471   790A      2.828476   791A      2.832860  
     792A      2.842310   793A      2.844693   794A      2.853156  
     795A      2.854630   796A      2.862932   797A      2.870794  
     798A      2.873695   799A      2.875764   800A      2.890093  
     801A      2.900124   802A      2.910610   803A      2.917468  
     804A      2.925373   805A      2.931201   806A      2.945254  
     807A      2.949006   808A      2.957570   809A      2.960843  
     810A      2.965271   811A      2.967663   812A      2.976105  
     813A      2.977133   814A      2.986393   815A      2.989635  
     816A      2.996012   817A      3.005768   818A      3.009784  
     819A      3.015618   820A      3.022881   821A      3.032532  
     822A      3.034959   823A      3.042914   824A      3.044801  
     825A      3.045884   826A      3.056096   827A      3.060193  
     828A      3.062709   829A      3.065594   830A      3.071267  
     831A      3.073000   832A      3.076650   833A      3.080256  
     834A      3.089882   835A      3.096990   836A      3.099850  
     837A      3.104221   838A      3.110857   839A      3.120066  
     840A      3.126329   841A      3.130618   842A      3.133842  
     843A      3.138730   844A      3.145042   845A      3.154341  
     846A      3.157189   847A      3.161280   848A      3.167056  
     849A      3.174772   850A      3.179004   851A      3.182985  
     852A      3.197100   853A      3.206782   854A      3.209624  
     855A      3.213534   856A      3.220759   857A      3.227666  
     858A      3.233743   859A      3.240473   860A      3.245643  
     861A      3.252841   862A      3.259761   863A      3.266649  
     864A      3.270093   865A      3.274079   866A      3.282465  
     867A      3.294564   868A      3.300657   869A      3.304318  
     870A      3.305324   871A      3.309081   872A      3.321040  
     873A      3.323813   874A      3.330666   875A      3.331441  
     876A      3.342094   877A      3.346029   878A      3.356220  
     879A      3.357441   880A      3.363588   881A      3.365113  
     882A      3.366611   883A      3.382548   884A      3.390905  
     885A      3.394673   886A      3.397520   887A      3.398981  
     888A      3.414807   889A      3.419002   890A      3.428456  
     891A      3.440684   892A      3.461650   893A      3.475350  
     894A      3.514689   895A      3.522343   896A      3.537026  
     897A      3.563747   898A      3.587264   899A      3.595784  
     900A      3.607629   901A      3.629102   902A      3.631762  
     903A      3.657092   904A      3.658695   905A      3.664074  
     906A      3.668542   907A      3.682823   908A      3.696819  
     909A      3.726674   910A      3.760852   911A      3.764341  
     912A      3.768723   913A      3.774910   914A      3.795949  
     915A      3.796698   916A      3.812754   917A      3.824726  
     918A      3.859680   919A      3.865100   920A      3.877286  
     921A      3.914925   922A      3.921553   923A      3.925032  
     924A      3.936499   925A      3.946206   926A      3.960475  
     927A      3.969703   928A      3.974371   929A      3.982024  
     930A      3.982573   931A      3.997197   932A      4.005939  
     933A      4.023190   934A      4.055647   935A      4.064603  
     936A      4.073572   937A      4.100688   938A      4.118584  
     939A      4.124119   940A      4.131096   941A      4.146635  
     942A      4.162196   943A      4.179732   944A      4.186790  
     945A      4.188695   946A      4.201920   947A      4.206021  
     948A      4.209971   949A      4.245946   950A      4.333446  
     951A      4.353967   952A      4.361491   953A      4.383262  
     954A      4.393904   955A      4.412744   956A      4.415666  
     957A      4.423427   958A      4.425644   959A      4.433382  
     960A      4.446150   961A      4.494335   962A      4.525082  
     963A      4.537880   964A      4.554214   965A      4.556490  
     966A      4.579765   967A      4.594080   968A      4.604026  
     969A      4.626128   970A      4.660650   971A      4.700215  
     972A      4.770528   973A      4.771926   974A      4.778875  
     975A      4.911131   976A      4.934925   977A      5.006937  
     978A      5.042298   979A      5.244650   980A      5.249638  
     981A      5.267087   982A      5.280212   983A      5.292084  
     984A      5.339377   985A      5.348420   986A      5.382320  
     987A      5.426178   988A      5.581023   989A      5.692568  
     990A      5.715307   991A      5.801331   992A      5.821842  
     993A      5.861295   994A      6.363053   995A     24.792102  
     996A     24.811971   997A     24.841925   998A     24.843639  
     999A     24.873119  1000A     24.936546  1001A     24.939657  
    1002A     25.018015  1003A     25.019252  1004A     25.030002  
    1005A     25.038321  1006A     25.069739  1007A     25.072145  
    1008A     25.099060  1009A     25.104484  1010A     25.112526  
    1011A     25.118292  1012A     25.130110  1013A     25.139724  
    1014A     25.151436  1015A     25.175916  1016A     25.205054  
    1017A     25.206408  1018A     25.241412  1019A     25.243532  
    1020A     25.252453  1021A     25.254950  1022A     25.319215  
    1023A     25.327957  1024A     36.941894  1025A     36.982293  
    1026A     37.026668  1027A     37.081142  1028A     37.097188  
    1029A     37.134582  1030A     37.154829  1031A     51.721102  

    Final Occupation by Irrep:
              A 
    DOCC [   131 ]

  @DF-RHF Final Energy: -1572.29890645353089

   => Energetics <=

    Nuclear Repulsion Energy =           3665.8712391024851058
    One-Electron Energy =               -9429.8275632697332185
    Two-Electron Energy =                4191.6574177137163133
    Total Energy =                      -1572.2989064535313446

Computation Completed


Properties will be evaluated at   0.000000,   0.000000,   0.000000 [a0]

Properties computed using the SCF density matrix

  Nuclear Dipole Moment: [e a0]
     X:    38.0864      Y:     0.5345      Z:    15.3639

  Electronic Dipole Moment: [e a0]
     X:   -38.4029      Y:     1.2144      Z:   -14.6972

  Dipole Moment: [e a0]
     X:    -0.3165      Y:     1.7489      Z:     0.6667     Total:     1.8983

  Dipole Moment: [D]
     X:    -0.8045      Y:     4.4454      Z:     1.6945     Total:     4.8249


*** tstop() called on node36.bme.utexas.edu at Wed Mar  4 12:58:38 2020
Module time:
	user time   =    7807.10 seconds =     130.12 minutes
	system time =     151.94 seconds =       2.53 minutes
	total time  =       1393 seconds =      23.22 minutes
Total time:
	user time   =    7807.10 seconds =     130.12 minutes
	system time =     151.94 seconds =       2.53 minutes
	total time  =       1393 seconds =      23.22 minutes

*** tstart() called on node36.bme.utexas.edu
*** at Wed Mar  4 12:58:38 2020


  //>>>>>>>>>>>>>>>>>>>>>>>>>>>>>>>>>>>//
  //               DFMP2               //
  //<<<<<<<<<<<<<<<<<<<<<<<<<<<<<<<<<<<//

   => Loading Basis Set <=

    Name: (6-311++G** AUX)
    Role: RIFIT
    Keyword: DF_BASIS_MP2
    atoms 1-4, 6-9, 11, 14-19, 21-28, 30-31, 33-35, 37 entry C          line   148 file /home/bdw2292/miniconda3/envs/p4env/share/psi4/basis/aug-cc-pvtz-ri.gbs 
    atoms 5, 10, 12-13, 20, 29, 32                     entry N          line   206 file /home/bdw2292/miniconda3/envs/p4env/share/psi4/basis/aug-cc-pvtz-ri.gbs 
    atoms 36                                           entry O          line   264 file /home/bdw2292/miniconda3/envs/p4env/share/psi4/basis/aug-cc-pvtz-ri.gbs 
    atoms 38-68                                        entry H          line    30 file /home/bdw2292/miniconda3/envs/p4env/share/psi4/basis/aug-cc-pvtz-ri.gbs 

	 --------------------------------------------------------
	                          DF-MP2                         
	      2nd-Order Density-Fitted Moller-Plesset Theory     
	              RMP2 Wavefunction,   6 Threads             
	                                                         
	        Rob Parrish, Justin Turney, Andy Simmonett,      
	           Ed Hohenstein, and C. David Sherrill          
	 --------------------------------------------------------

   => Auxiliary Basis Set <=

  Basis Set: (6-311++G** AUX)
    Blend: AUG-CC-PVTZ-RI
    Number of shells: 1470
    Number of basis function: 5348
    Number of Cartesian functions: 6737
    Spherical Harmonics?: true
    Max angular momentum: 4

	 --------------------------------------------------------
	                 NBF =  1031, NAUX =  5348
	 --------------------------------------------------------
	   CLASS    FOCC     OCC    AOCC    AVIR     VIR    FVIR
	   PAIRS      37     131      94     900     900       0
	 --------------------------------------------------------

	-----------------------------------------------------------
	 ==================> DF-MP2 Energies <==================== 
	-----------------------------------------------------------
	 Reference Energy          =   -1572.2989064535308898 [Eh]
	 Singles Energy            =      -0.0000000000000000 [Eh]
	 Same-Spin Energy          =      -1.4681162941971286 [Eh]
	 Opposite-Spin Energy      =      -4.0460136818005221 [Eh]
	 Correlation Energy        =      -5.5141299759976512 [Eh]
	 Total Energy              =   -1577.8130364295284380 [Eh]
	-----------------------------------------------------------
	 ================> DF-SCS-MP2 Energies <================== 
	-----------------------------------------------------------
	 SCS Same-Spin Scale       =       0.3333333333333333 [-]
	 SCS Opposite-Spin Scale   =       1.2000000000000000 [-]
	 SCS Same-Spin Energy      =      -0.4893720980657095 [Eh]
	 SCS Opposite-Spin Energy  =      -4.8552164181606265 [Eh]
	 SCS Correlation Energy    =      -5.3445885162263362 [Eh]
	 SCS Total Energy          =   -1577.6434949697572847 [Eh]
	-----------------------------------------------------------


*** tstop() called on node36.bme.utexas.edu at Wed Mar  4 13:09:27 2020
Module time:
	user time   =    3581.99 seconds =      59.70 minutes
	system time =      50.16 seconds =       0.84 minutes
	total time  =        649 seconds =      10.82 minutes
Total time:
	user time   =   11389.10 seconds =     189.82 minutes
	system time =     202.10 seconds =       3.37 minutes
	total time  =       2042 seconds =      34.03 minutes


Properties will be evaluated at   0.000000,   0.000000,   0.000000 [a0]
OEProp: No title given, name of density matrix used for the following properties is 'SCF density'


  Wiberg Bond Indices using Orthogonal Lowdin Orbitals:

  Irrep: 1 Size: 68 x 68

                 1                   2                   3                   4                   5

    1     0.00000000000000     1.46772285202806     0.12471173637683     0.14039174801544     0.12442677264121
    2     1.46772285202806     0.00000000000000     1.39889185785148     0.12802972133879     0.12232899153712
    3     0.12471173637683     1.39889185785148     0.00000000000000     1.36289432586656     0.11998352287636
    4     0.14039174801544     0.12802972133879     1.36289432586656     0.00000000000000     1.66930890257246
    5     0.12442677264121     0.12232899153712     0.11998352287636     1.66930890257246     0.00000000000000
    6     1.46400729428315     0.13796951953250     0.13543023734699     0.15379004695732     1.63501842062307
    7     0.01470859213234     0.10326200902515     1.02242095793466     0.10353787562299     0.01395849383437
    8     0.00367864222435     0.04246497183805     0.09866997203982     0.02393776268134     0.00221396701198
    9     0.00037316758959     0.00488640626093     0.01492997404728     0.00415875029866     0.00070397763242
   10     0.00041715466215     0.00542037443578     0.00579405449181     0.00609287509433     0.00032324819112
   11     0.00089285704672     0.00335657322806     0.01807438934069     0.00670221963269     0.00041989377963
   12     0.00278336655374     0.02188293580591     0.11838283552093     0.06075794641540     0.00390478415838
   13     0.00016741537096     0.00047278203012     0.00161784690602     0.00087312353326     0.00008206401011
   14     0.00002878720089     0.00008973144039     0.00050652531696     0.00102330303862     0.00008373192821
   15     0.00001068453005     0.00002301885450     0.00006254827884     0.00013520072202     0.00001762782777
   16     0.00000198274696     0.00000470123259     0.00003356344815     0.00016741546637     0.00000884567461
   17     0.00001174245296     0.00001955649688     0.00004662223342     0.00026279390099     0.00003786869132
   18     0.00002062949586     0.00004582430295     0.00022917062433     0.00121667388455     0.00014782255646
   19     0.00011865873936     0.00022738394144     0.00164279156961     0.00917816614483     0.00048468898278
   20     0.00003176386911     0.00005324090343     0.00020806855965     0.00198244480096     0.00027471009219
   21     0.00001392082228     0.00001313591449     0.00003476806748     0.00018921858440     0.00008838314781
   22     0.00000510897640     0.00000358911181     0.00000579160054     0.00004510457558     0.00004300891456
   23     0.00000201998621     0.00000193017168     0.00000434758012     0.00003739590185     0.00001943850224
   24     0.00000038918078     0.00000029870229     0.00000085307568     0.00000834099552     0.00000267025338
   25     0.00000020389870     0.00000015218073     0.00000035576538     0.00000556985472     0.00000283198202
   26     0.00000014147606     0.00000008537734     0.00000043542897     0.00000410855797     0.00000232846305
   27     0.00000129673568     0.00000079205148     0.00000194729098     0.00001792620633     0.00001337912794
   28     0.00000007095837     0.00000006441212     0.00000012402015     0.00000080392233     0.00000045516614
   29     0.00000009165576     0.00000006787496     0.00000018403603     0.00000072360586     0.00000057347981
   30     0.00000007434176     0.00000004070458     0.00000011048664     0.00000078942359     0.00000032692905
   31     0.00000055523983     0.00000059997480     0.00000085412347     0.00000440358256     0.00000281869856
   32     0.00000041679440     0.00000029195836     0.00000057138504     0.00000214778401     0.00000393738966
   33     0.00000080874110     0.00000060850006     0.00000032040879     0.00000151723962     0.00000149590035
   34     0.00000272832012     0.00000199112448     0.00000140480435     0.00000656822186     0.00000796623520
   35     0.00000021593111     0.00000014333853     0.00000019474316     0.00000187111857     0.00000166188891
   36     0.00000243396464     0.00000321324929     0.00001590767714     0.00014736777113     0.00004315674451
   37     0.00000205824382     0.00000772773380     0.00003188613231     0.00003409120808     0.00000313475824
   38     0.88648804198257     0.07938433142987     0.01177328125899     0.00638578395110     0.01072543651227
   39     0.07807338788632     0.87063259607967     0.07245938189875     0.01169548450567     0.00393019763464
   40     0.00574001753192     0.01076836698253     0.07013119411675     0.85375086156034     0.08704049968733
   41     0.07747818978014     0.01189358320015     0.00607729002695     0.01579199394975     0.08756280293881
   42     0.00115572435040     0.01482342231310     0.01447136237487     0.00138064385142     0.00029970932124
   43     0.00004498905853     0.00028937753409     0.00144735359661     0.00031428514829     0.00008028260029
   44     0.00002480334896     0.00008296428247     0.00035054003371     0.00008439960951     0.00000766235500
   45     0.00000034867675     0.00000085897888     0.00000598855233     0.00001633982118     0.00000132071183
   46     0.00000088203030     0.00000156588062     0.00000667172749     0.00002788988608     0.00000903282257
   47     0.00009105199756     0.00019747838372     0.00176401169622     0.00751263532645     0.00056715789649
   48     0.00006204445051     0.00006508978061     0.00014879749364     0.00163264702398     0.00050341767765
   49     0.00000064754790     0.00000075187114     0.00000128194458     0.00001232589714     0.00000225834597
   50     0.00000002220164     0.00000002958228     0.00000004019281     0.00000030161605     0.00000016900295
   51     0.00000001106383     0.00000000404683     0.00000002543498     0.00000018888635     0.00000007972970
   52     0.00000021811701     0.00000016830709     0.00000036299971     0.00000221670810     0.00000302321419
   53     0.00000000966091     0.00000000855101     0.00000001303882     0.00000014062110     0.00000004244096
   54     0.00000000968351     0.00000000445516     0.00000001251338     0.00000011767914     0.00000003222887
   55     0.00000001075226     0.00000000718390     0.00000001465412     0.00000005362061     0.00000003887115
   56     0.00000004422844     0.00000002319667     0.00000008210997     0.00000012377146     0.00000012404454
   57     0.00000007271914     0.00000006531706     0.00000017802460     0.00000046507746     0.00000011099932
   58     0.00000058240214     0.00000086533019     0.00000085979812     0.00000357817647     0.00000164034831
   59     0.00000003293140     0.00000001169659     0.00000001526590     0.00000018960619     0.00000005981783
   60     0.00000019836710     0.00000015710067     0.00000011446368     0.00000031562158     0.00000026077178
   61     0.00000045336371     0.00000030126014     0.00000012632799     0.00000039587578     0.00000083997587
   62     0.00000071377713     0.00000064930763     0.00000037897026     0.00000151177521     0.00000241142615
   63     0.00000144153893     0.00000252290882     0.00000111604239     0.00000517180775     0.00000613665928
   64     0.00000006302928     0.00000002926795     0.00000009092227     0.00000055115420     0.00000086426261
   65     0.00000002724828     0.00000001600143     0.00000001352753     0.00000005603725     0.00000009795054
   66     0.00000123884092     0.00000294928441     0.00001099522080     0.00000927881240     0.00000099862801
   67     0.00000080791995     0.00000200062337     0.00001088938147     0.00000777193516     0.00000067019170
   68     0.00000020020805     0.00000076349085     0.00000377143009     0.00000700314489     0.00000047881986

                 6                   7                   8                   9                  10

    1     1.46400729428315     0.01470859213234     0.00367864222435     0.00037316758959     0.00041715466215
    2     0.13796951953250     0.10326200902515     0.04246497183805     0.00488640626093     0.00542037443578
    3     0.13543023734699     1.02242095793466     0.09866997203982     0.01492997404728     0.00579405449181
    4     0.15379004695732     0.10353787562299     0.02393776268134     0.00415875029866     0.00609287509433
    5     1.63501842062307     0.01395849383437     0.00221396701198     0.00070397763242     0.00032324819112
    6     0.00000000000000     0.00985623902996     0.00689503964536     0.00127150267882     0.00341012098840
    7     0.00985623902996     0.00000000000000     1.38777332353918     0.14690713689255     0.11235661387089
    8     0.00689503964536     1.38777332353918     0.00000000000000     1.43408613412153     0.13145269016121
    9     0.00127150267882     0.14690713689255     1.43408613412153     0.00000000000000     1.66335419405234
   10     0.00341012098840     0.11235661387089     0.13145269016121     1.66335419405234     0.00000000000000
   11     0.00084983021919     0.14248202927612     0.11345145132531     0.15215895657843     1.50364020919131
   12     0.00597190851762     1.52729422988163     0.12473644152206     0.11015827350093     0.10943748053509
   13     0.00006723422280     0.01906470804866     0.02010764585300     0.02448946849694     0.16197045795628
   14     0.00003748555939     0.00269362704215     0.00258905888597     0.00327669132437     0.01738198450336
   15     0.00000502199340     0.00049562613999     0.00145004968416     0.00093019756642     0.00316535649736
   16     0.00000291432289     0.00014803832525     0.00021394707993     0.00015705822795     0.00050142567873
   17     0.00000636822721     0.00023940586139     0.00131895316451     0.00043547207222     0.00129474121414
   18     0.00003243126023     0.00047192218778     0.00024367358404     0.00013996639575     0.00041456673556
   19     0.00016358977052     0.00507519927017     0.00305323902805     0.00148278854946     0.00428020477000
   20     0.00004331259710     0.00011166157651     0.00002525060877     0.00001867110616     0.00006097677495
   21     0.00001730153207     0.00001536354203     0.00000839955062     0.00000549473620     0.00001765258129
   22     0.00000957976327     0.00000395971689     0.00000406927878     0.00000148908708     0.00000593303964
   23     0.00000471910623     0.00000433773012     0.00000672791470     0.00000231545763     0.00000889434968
   24     0.00000150226814     0.00000052665206     0.00000065522268     0.00000032905683     0.00000092950127
   25     0.00000148486301     0.00000038919447     0.00000019177587     0.00000010509109     0.00000025452384
   26     0.00000182777560     0.00000026196684     0.00000027297055     0.00000010223962     0.00000030679639
   27     0.00000517425512     0.00000103816944     0.00000072463309     0.00000032356749     0.00000103992931
   28     0.00000039820444     0.00000011231117     0.00000004220475     0.00000002211829     0.00000004334379
   29     0.00000052701364     0.00000004912411     0.00000001678384     0.00000000845662     0.00000002011671
   30     0.00000048792926     0.00000009744623     0.00000003285250     0.00000001523758     0.00000001993165
   31     0.00000252471258     0.00000020452813     0.00000006378169     0.00000004075124     0.00000006774534
   32     0.00000250992693     0.00000019754998     0.00000007987142     0.00000002358995     0.00000002016335
   33     0.00000383692972     0.00000005712668     0.00000001993714     0.00000000757738     0.00000001176020
   34     0.00000884233880     0.00000023155369     0.00000019284193     0.00000003669791     0.00000004781103
   35     0.00000223672310     0.00000007246678     0.00000002075378     0.00000001025410     0.00000001019153
   36     0.00000593093412     0.00000748253003     0.00001007310144     0.00000345852314     0.00001340622610
   37     0.00000206096894     0.00014471537034     0.00013818998374     0.00014582466435     0.00087241431806
   38     0.08237792113034     0.00129711119438     0.00025583125462     0.00003944240444     0.00002597763776
   39     0.01164123800554     0.01608336452236     0.01540473183373     0.00120634067172     0.00040531110817
   40     0.01472172211434     0.01578017042228     0.00167069977502     0.00039348503895     0.00060847102862
   41     0.87975764787387     0.00055014692063     0.00027092308245     0.00005433286029     0.00010459771531
   42     0.00050234306619     0.07532016673457     0.87559653888084     0.08073293665990     0.01046331072803
   43     0.00004485422484     0.01178196864919     0.07639537501044     0.87509314080562     0.08916319626747
   44     0.00001150610352     0.00205012162190     0.00201832868015     0.00385114337197     0.03301388266765
   45     0.00000035950895     0.00001742023450     0.00000765040108     0.00002284161857     0.00005168553563
   46     0.00000146896673     0.00002256295261     0.00004463596099     0.00001699120673     0.00005688178001
   47     0.00019682385481     0.00372885996598     0.00085182562903     0.00035806012050     0.00071606107384
   48     0.00005640970304     0.00006119013378     0.00001690625128     0.00000783239505     0.00001614920306
   49     0.00000070897051     0.00000188153648     0.00000273303242     0.00000097843916     0.00000330580333
   50     0.00000006244053     0.00000005427313     0.00000002272254     0.00000002040513     0.00000005119590
   51     0.00000005118838     0.00000004269311     0.00000001409087     0.00000001023457     0.00000002119726
   52     0.00000105522836     0.00000016812115     0.00000009411152     0.00000004616847     0.00000015203725
   53     0.00000005357813     0.00000000870590     0.00000000703604     0.00000000220206     0.00000000548919
   54     0.00000001923559     0.00000001573410     0.00000000705645     0.00000000347402     0.00000000798792
   55     0.00000002908922     0.00000000869560     0.00000000553321     0.00000000372431     0.00000000204473
   56     0.00000015489869     0.00000001827693     0.00000000473341     0.00000000222368     0.00000000299898
   57     0.00000013048098     0.00000002927264     0.00000001296248     0.00000000537844     0.00000000489590
   58     0.00000090897569     0.00000091323007     0.00000014649367     0.00000003213100     0.00000006995284
   59     0.00000039338624     0.00000000857911     0.00000000148802     0.00000000082264     0.00000000181003
   60     0.00000041105384     0.00000001761525     0.00000000456753     0.00000000105802     0.00000000129160
   61     0.00000249320526     0.00000001512848     0.00000001295396     0.00000000176473     0.00000000459953
   62     0.00000431283531     0.00000003274745     0.00000005298209     0.00000000568162     0.00000002091033
   63     0.00000364504825     0.00000019444018     0.00000018987723     0.00000004368673     0.00000012667615
   64     0.00000108895875     0.00000002748049     0.00000000592133     0.00000000217480     0.00000000307661
   65     0.00000007565548     0.00000001037293     0.00000000310032     0.00000000151888     0.00000000434478
   66     0.00000159845242     0.00004888034898     0.00011408760422     0.00004888032464     0.00039108944132
   67     0.00000049459001     0.00004137123209     0.00007830465153     0.00004370550870     0.00026845064174
   68     0.00000015950641     0.00001440855092     0.00000498988977     0.00000439145800     0.00003743272037

                11                  12                  13                  14                  15

    1     0.00089285704672     0.00278336655374     0.00016741537096     0.00002878720089     0.00001068453005
    2     0.00335657322806     0.02188293580591     0.00047278203012     0.00008973144039     0.00002301885450
    3     0.01807438934069     0.11838283552093     0.00161784690602     0.00050652531696     0.00006254827884
    4     0.00670221963269     0.06075794641540     0.00087312353326     0.00102330303862     0.00013520072202
    5     0.00041989377963     0.00390478415838     0.00008206401011     0.00008373192821     0.00001762782777
    6     0.00084983021919     0.00597190851762     0.00006723422280     0.00003748555939     0.00000502199340
    7     0.14248202927612     1.52729422988163     0.01906470804866     0.00269362704215     0.00049562613999
    8     0.11345145132531     0.12473644152206     0.02010764585300     0.00258905888597     0.00145004968416
    9     0.15215895657843     0.11015827350093     0.02448946849694     0.00327669132437     0.00093019756642
   10     1.50364020919131     0.10943748053509     0.16197045795628     0.01738198450336     0.00316535649736
   11     0.00000000000000     1.54083664927634     1.26586692269968     0.08188838713931     0.01777915297467
   12     1.54083664927634     0.00000000000000     0.14087014276898     0.02798657828172     0.00334510921655
   13     1.26586692269968     0.14087014276898     0.00000000000000     1.13297255938256     0.10655158935364
   14     0.08188838713931     0.02798657828172     1.13297255938256     0.00000000000000     1.30902425037342
   15     0.01777915297467     0.00334510921655     0.10655158935364     1.30902425037342     0.00000000000000
   16     0.00238500030484     0.00103993283171     0.01470448708491     0.12615207007377     1.44538615815334
   17     0.00401528842317     0.00241344279839     0.01212041150436     0.11714489480083     0.12643522310864
   18     0.00233917475907     0.00423325846774     0.01359368859426     0.12417922239284     0.11737969766558
   19     0.02768811234800     0.05158249904739     0.11131813706344     1.40640225391674     0.11829018411057
   20     0.00032896374366     0.00102519373197     0.00139025021169     0.01586783488646     0.01596571276176
   21     0.00006175958892     0.00011749864037     0.00034549732525     0.00272831925234     0.00291329664791
   22     0.00001586506054     0.00001632380686     0.00007723626208     0.00053469694857     0.00061574979760
   23     0.00001701654005     0.00001903880285     0.00007142431663     0.00043681226373     0.00051458486663
   24     0.00000169669858     0.00000277703426     0.00000689924393     0.00004012293563     0.00006407383652
   25     0.00000060250559     0.00000089676461     0.00000251409126     0.00001638732704     0.00001323912367
   26     0.00000076771249     0.00000109380471     0.00000345962503     0.00002351736443     0.00003311988819
   27     0.00000345197682     0.00000399676877     0.00001665794605     0.00009345084694     0.00013451768502
   28     0.00000011890320     0.00000019650893     0.00000025242741     0.00000199079688     0.00000183577523
   29     0.00000004587474     0.00000008090842     0.00000012504191     0.00000079218537     0.00000064491066
   30     0.00000007184468     0.00000027632986     0.00000007644323     0.00000038344549     0.00000024430426
   31     0.00000017811320     0.00000044617095     0.00000019002451     0.00000064191593     0.00000086997566
   32     0.00000003675007     0.00000006114778     0.00000003859597     0.00000047492294     0.00000055012143
   33     0.00000001899723     0.00000004308805     0.00000001176106     0.00000013225245     0.00000008075024
   34     0.00000006916829     0.00000021618050     0.00000017767702     0.00000107505698     0.00000070966697
   35     0.00000004069183     0.00000009908739     0.00000007499407     0.00000040797498     0.00000060879601
   36     0.00003140109798     0.00003626553636     0.00015768240833     0.00097539575446     0.00161854019814
   37     0.00366825311853     0.00077718175956     0.03841984174801     0.09590109756966     1.06042890558647
   38     0.00009042443465     0.00031462111905     0.00001604036466     0.00000649872864     0.00000071727644
   39     0.00028729485797     0.00108041162622     0.00006618260707     0.00002559426186     0.00000398097723
   40     0.00270960064915     0.02504770047462     0.00037069020017     0.00098846414749     0.00014981646878
   41     0.00004355181960     0.00024805655380     0.00000549978434     0.00000364549167     0.00000051238722
   42     0.00573962150213     0.01058652773132     0.00102004586150     0.00012054731561     0.00006552796871
   43     0.01583557850198     0.00397082969740     0.00136265716072     0.00038302574550     0.00006154361800
   44     0.07388900426895     0.01139766406392     0.93247459293169     0.06004061013531     0.01537306569031
   45     0.00036865829425     0.00005708734989     0.00115193068444     0.01142954713798     0.07474857202342
   46     0.00015219233838     0.00015408163562     0.00055793692640     0.00534525508827     0.01087541253794
   47     0.00933720300550     0.03480573084866     0.01587261461465     0.07404327369493     0.00978453700834
   48     0.00010012521438     0.00049027377796     0.00016295149851     0.00195339842679     0.00150667511390
   49     0.00000600434642     0.00001300985608     0.00002601783497     0.00017039736976     0.00015459704186
   50     0.00000022658029     0.00000021946926     0.00000068739562     0.00000331673562     0.00000330996734
   51     0.00000013239111     0.00000021182499     0.00000053216378     0.00000447580533     0.00000599600632
   52     0.00000074361476     0.00000079501003     0.00000191739824     0.00001443551504     0.00002208043040
   53     0.00000001731907     0.00000004432683     0.00000005227480     0.00000041818834     0.00000039923238
   54     0.00000002585979     0.00000003105533     0.00000005519515     0.00000039816496     0.00000022601536
   55     0.00000000576855     0.00000002107037     0.00000001462670     0.00000008416535     0.00000010778244
   56     0.00000000483901     0.00000002856082     0.00000001714702     0.00000005970728     0.00000003812929
   57     0.00000001065583     0.00000006986489     0.00000001249996     0.00000009509631     0.00000008108596
   58     0.00000034888927     0.00000153530324     0.00000020326472     0.00000070246741     0.00000105222202
   59     0.00000000519673     0.00000001041875     0.00000000321356     0.00000001789372     0.00000001234292
   60     0.00000000408807     0.00000001263396     0.00000000337682     0.00000001294470     0.00000000898929
   61     0.00000000256542     0.00000000903623     0.00000000288049     0.00000002011704     0.00000001403782
   62     0.00000000578712     0.00000001975323     0.00000001880219     0.00000005061985     0.00000004186618
   63     0.00000011382351     0.00000069406441     0.00000023430776     0.00000193652904     0.00000304494752
   64     0.00000000991461     0.00000000704577     0.00000001073557     0.00000011687039     0.00000004506137
   65     0.00000000661489     0.00000001170642     0.00000002058743     0.00000013009628     0.00000035174236
   66     0.00101092715178     0.00030812390728     0.01084849109881     0.01645445310534     0.05808695392130
   67     0.00073736245001     0.00025358771025     0.00897135371852     0.01624989655554     0.05833830418824
   68     0.00023791261478     0.00006223926260     0.00206688470492     0.00889351190333     0.05930796135021

                16                  17                  18                  19                  20

    1     0.00000198274696     0.00001174245296     0.00002062949586     0.00011865873936     0.00003176386911
    2     0.00000470123259     0.00001955649688     0.00004582430295     0.00022738394144     0.00005324090343
    3     0.00003356344815     0.00004662223342     0.00022917062433     0.00164279156961     0.00020806855965
    4     0.00016741546637     0.00026279390099     0.00121667388455     0.00917816614483     0.00198244480096
    5     0.00000884567461     0.00003786869132     0.00014782255646     0.00048468898278     0.00027471009219
    6     0.00000291432289     0.00000636822721     0.00003243126023     0.00016358977052     0.00004331259710
    7     0.00014803832525     0.00023940586139     0.00047192218778     0.00507519927017     0.00011166157651
    8     0.00021394707993     0.00131895316451     0.00024367358404     0.00305323902805     0.00002525060877
    9     0.00015705822795     0.00043547207222     0.00013996639575     0.00148278854946     0.00001867110616
   10     0.00050142567873     0.00129474121414     0.00041456673556     0.00428020477000     0.00006097677495
   11     0.00238500030484     0.00401528842317     0.00233917475907     0.02768811234800     0.00032896374366
   12     0.00103993283171     0.00241344279839     0.00423325846774     0.05158249904739     0.00102519373197
   13     0.01470448708491     0.01212041150436     0.01359368859426     0.11131813706344     0.00139025021169
   14     0.12615207007377     0.11714489480083     0.12417922239284     1.40640225391674     0.01586783488646
   15     1.44538615815334     0.12643522310864     0.11737969766558     0.11829018411057     0.01596571276176
   16     0.00000000000000     1.44411701905877     0.13240501301948     0.12371490145920     0.01508861426917
   17     1.44411701905877     0.00000000000000     1.39100748996910     0.12003952243071     0.11544056197879
   18     0.13240501301948     1.39100748996910     0.00000000000000     1.35551510537749     1.15223020519411
   19     0.12371490145920     0.12003952243071     1.35551510537749     0.00000000000000     0.12966845077663
   20     0.01508861426917     0.11544056197879     1.15223020519411     0.12966845077663     0.00000000000000
   21     0.00326484231271     0.03093447325348     0.09101523235979     0.01819044442153     1.22127953611011
   22     0.00061435043232     0.00735614625760     0.01636312692571     0.00298046463982     0.11669434945093
   23     0.00055450964111     0.00647633653878     0.01161170753684     0.00200626190403     0.04154521002752
   24     0.00005825908958     0.00048580482539     0.00094274267048     0.00020303288636     0.00394784839443
   25     0.00003699619969     0.00026397706205     0.00061348757784     0.00009036605991     0.00214831793743
   26     0.00003458208397     0.00033987882832     0.00057572938213     0.00012539415259     0.00242869918345
   27     0.00010337722051     0.00085332509254     0.00238471970658     0.00046626534029     0.01536600591401
   28     0.00000390699667     0.00002910391205     0.00006617876179     0.00001253892819     0.00017487693974
   29     0.00000197978393     0.00000873343073     0.00002567658921     0.00000362789822     0.00008860937525
   30     0.00000061475268     0.00000445688421     0.00000756917233     0.00000186361234     0.00001836217522
   31     0.00000128187022     0.00000679112852     0.00000814063320     0.00000307921119     0.00002758311297
   32     0.00000056022613     0.00000522393356     0.00000324939000     0.00000081029093     0.00000665229937
   33     0.00000014996142     0.00000092941987     0.00000111608696     0.00000041371855     0.00000146209029
   34     0.00000187361092     0.00001054327617     0.00000872596111     0.00000203427833     0.00002417417517
   35     0.00000100449041     0.00000749512517     0.00000930102457     0.00000167777613     0.00003386523321
   36     0.00141790686588     0.01929687196672     0.03394687771569     0.00470987427663     0.16720692862874
   37     0.11635074162143     0.01459765412542     0.00732487154042     0.01394263184145     0.00096253396748
   38     0.00000028419970     0.00000062001166     0.00000362641281     0.00002077706285     0.00000381272337
   39     0.00000120072596     0.00000150383514     0.00000467250238     0.00003361712372     0.00000447382268
   40     0.00013080494793     0.00020401170424     0.00125326299007     0.00767998085986     0.00143073694210
   41     0.00000031125111     0.00000058797478     0.00000204022007     0.00001185623289     0.00000353763851
   42     0.00001036372407     0.00004680787698     0.00002726993356     0.00018976743402     0.00000591228381
   43     0.00001554140841     0.00001107787625     0.00001461481217     0.00010116677149     0.00000148109871
   44     0.00160446362360     0.00104551250102     0.00132370869890     0.01036422031625     0.00024229793497
   45     0.87108273433386     0.07919353961102     0.01167186036142     0.00559927373864     0.00103929035363
   46     0.07769462620860     0.86637307981764     0.07701264943420     0.01140568137380     0.01606544332086
   47     0.00558772140536     0.01025211676666     0.07142934429026     0.84005417125793     0.02331147240388
   48     0.00143135235400     0.01162425469153     0.06251205709266     0.02080606454103     0.93555567159268
   49     0.00021767848568     0.00320115023302     0.00656759025319     0.00117083074641     0.01422599370624
   50     0.00000464031778     0.00003173373203     0.00007463924202     0.00001855545219     0.00022180812157
   51     0.00000482862026     0.00003189953789     0.00006702073678     0.00002567199802     0.00032692987979
   52     0.00002427067375     0.00014920931810     0.00027252672354     0.00006777670903     0.00155579414620
   53     0.00000085861591     0.00000749138477     0.00001329534497     0.00000232077577     0.00003376202171
   54     0.00000100411441     0.00000988146446     0.00001850114313     0.00000322834097     0.00003722812392
   55     0.00000014334001     0.00000065895849     0.00000116421967     0.00000027573587     0.00000357905722
   56     0.00000009555009     0.00000050476337     0.00000128205595     0.00000020011596     0.00000289972466
   57     0.00000007212225     0.00000031409433     0.00000042067572     0.00000025435592     0.00000156694919
   58     0.00000098873778     0.00000868843678     0.00001295781401     0.00000566486039     0.00001771286066
   59     0.00000003311080     0.00000015118633     0.00000016324729     0.00000006167607     0.00000032082897
   60     0.00000001062725     0.00000007520388     0.00000008981978     0.00000008724628     0.00000017482036
   61     0.00000001453994     0.00000008972006     0.00000007007265     0.00000002121984     0.00000021924499
   62     0.00000011406195     0.00000075203739     0.00000050893260     0.00000008339192     0.00000094973998
   63     0.00000278622732     0.00002061570666     0.00001652631373     0.00000487587269     0.00004258971135
   64     0.00000034142778     0.00000143069787     0.00000124060437     0.00000027823449     0.00000217122106
   65     0.00000025453148     0.00000210027486     0.00000262826787     0.00000056146914     0.00001025221192
   66     0.01474801894572     0.00132396567044     0.00263764555489     0.00123373818044     0.00049263170317
   67     0.01559490625300     0.00132500639769     0.00295962337396     0.00120702649431     0.00055575714485
   68     0.02401464257918     0.00192497302324     0.00055951526805     0.00107808193040     0.00009285600635

                21                  22                  23                  24                  25

    1     0.00001392082228     0.00000510897640     0.00000201998621     0.00000038918078     0.00000020389870
    2     0.00001313591449     0.00000358911181     0.00000193017168     0.00000029870229     0.00000015218073
    3     0.00003476806748     0.00000579160054     0.00000434758012     0.00000085307568     0.00000035576538
    4     0.00018921858440     0.00004510457558     0.00003739590185     0.00000834099552     0.00000556985472
    5     0.00008838314781     0.00004300891456     0.00001943850224     0.00000267025338     0.00000283198202
    6     0.00001730153207     0.00000957976327     0.00000471910623     0.00000150226814     0.00000148486301
    7     0.00001536354203     0.00000395971689     0.00000433773012     0.00000052665206     0.00000038919447
    8     0.00000839955062     0.00000406927878     0.00000672791470     0.00000065522268     0.00000019177587
    9     0.00000549473620     0.00000148908708     0.00000231545763     0.00000032905683     0.00000010509109
   10     0.00001765258129     0.00000593303964     0.00000889434968     0.00000092950127     0.00000025452384
   11     0.00006175958892     0.00001586506054     0.00001701654005     0.00000169669858     0.00000060250559
   12     0.00011749864037     0.00001632380686     0.00001903880285     0.00000277703426     0.00000089676461
   13     0.00034549732525     0.00007723626208     0.00007142431663     0.00000689924393     0.00000251409126
   14     0.00272831925234     0.00053469694857     0.00043681226373     0.00004012293563     0.00001638732704
   15     0.00291329664791     0.00061574979760     0.00051458486663     0.00006407383652     0.00001323912367
   16     0.00326484231271     0.00061435043232     0.00055450964111     0.00005825908958     0.00003699619969
   17     0.03093447325348     0.00735614625760     0.00647633653878     0.00048580482539     0.00026397706205
   18     0.09101523235979     0.01636312692571     0.01161170753684     0.00094274267048     0.00061348757784
   19     0.01819044442153     0.00298046463982     0.00200626190403     0.00020303288636     0.00009036605991
   20     1.22127953611011     0.11669434945093     0.04154521002752     0.00394784839443     0.00214831793743
   21     0.00000000000000     0.98134237718610     0.10605676485443     0.01475687703554     0.01283581941857
   22     0.98134237718610     0.00000000000000     1.38863429852939     0.12723122790494     0.12260577478246
   23     0.10605676485443     1.38863429852939     0.00000000000000     1.46730181977957     0.12653156207653
   24     0.01475687703554     0.12723122790494     1.46730181977957     0.00000000000000     1.39635549348835
   25     0.01283581941857     0.12260577478246     0.12653156207653     1.39635549348835     0.00000000000000
   26     0.01502430703321     0.12733714021394     0.12901518623905     0.12481252779793     1.40036868251795
   27     0.11354096028600     1.38752356464465     0.12325247731408     0.13085589562561     0.12736347249901
   28     0.00081682669693     0.00893455173240     0.01459119858283     0.10714358900974     1.01619565967174
   29     0.00046185555046     0.00419931298657     0.00215938101829     0.02242183886852     0.08789426076769
   30     0.00008683365877     0.00084142683660     0.00158966112076     0.01381139571764     0.01782484297498
   31     0.00006089717184     0.00074742254014     0.00626545264675     0.02233965276242     0.01274722992959
   32     0.00007033774246     0.00066715593365     0.00103510572646     0.00302409079363     0.00376209749364
   33     0.00001121142687     0.00011650742322     0.00023767537741     0.00071785583362     0.00099876751041
   34     0.00016454225220     0.00296832436606     0.00353880174666     0.01127100458640     0.02366251122495
   35     0.00012690825800     0.00116927562803     0.00129192053491     0.00591526360306     0.02417571232555
   36     2.27374536402119     0.14011134401958     0.02992860945087     0.00327822392938     0.00903337465976
[...]
   15     0.00000003812929     0.00000008108596     0.00000105222202     0.00000001234292     0.00000000898929
   16     0.00000009555009     0.00000007212225     0.00000098873778     0.00000003311080     0.00000001062725
   17     0.00000050476337     0.00000031409433     0.00000868843678     0.00000015118633     0.00000007520388
   18     0.00000128205595     0.00000042067572     0.00001295781401     0.00000016324729     0.00000008981978
   19     0.00000020011596     0.00000025435592     0.00000566486039     0.00000006167607     0.00000008724628
   20     0.00000289972466     0.00000156694919     0.00001771286066     0.00000032082897     0.00000017482036
   21     0.00003188907811     0.00000439185586     0.00004103331692     0.00000256546137     0.00000067270146
   22     0.00021491648707     0.00004959891378     0.00057877861003     0.00001325365630     0.00000900017529
   23     0.00028635471128     0.00019300894088     0.00505634627936     0.00002698380760     0.00002104878802
   24     0.00073966755127     0.00061215073418     0.01707216910152     0.00008900825238     0.00007866606910
   25     0.00163299923262     0.00045727289595     0.00684191992364     0.00017670653612     0.00008592644169
   26     0.00051833298463     0.00010788614268     0.00136808373635     0.00008168773830     0.00002940762848
   27     0.00011462538812     0.00008853741712     0.00135377841642     0.00002134640702     0.00001822172748
   28     0.01234016374997     0.00102329181203     0.00482034705868     0.00068874708889     0.00012061485073
   29     0.06725676123156     0.01379672458169     0.01245172951260     0.00339429711440     0.00076615198005
   30     0.77186397275578     0.05914389791840     0.04967390315388     0.01338875253638     0.00415728388162
   31     0.05255297246697     0.81720677965153     0.85701880781437     0.01647288675397     0.02173988350966
   32     0.01459177719261     0.05086240675453     0.06108926508981     0.06740019890131     0.06248096983141
   33     0.01671599771122     0.02509509217269     0.01093067976464     0.91090247145008     0.91977028488919
   34     0.00831568273207     0.01560004176454     0.01940990011371     0.01611227727506     0.01239818486385
   35     0.02336338382239     0.00179891752743     0.00703945702187     0.01250323467373     0.00174378350551
   36     0.00002512132223     0.00000370164197     0.00002521118519     0.00000116409529     0.00000045871194
   37     0.00000000759503     0.00000000864314     0.00000022635955     0.00000000556531     0.00000000400542
   38     0.00000000316790     0.00000000485566     0.00000001179423     0.00000000297849     0.00000001500451
   39     0.00000000075187     0.00000000292844     0.00000002484949     0.00000000152978     0.00000000348156
   40     0.00000001158913     0.00000021240905     0.00000188905008     0.00000003525234     0.00000013251501
   41     0.00000002056628     0.00000001361676     0.00000013060510     0.00000009490776     0.00000010640850
   42     0.00000000016282     0.00000000081621     0.00000000318415     0.00000000018486     0.00000000060284
   43     0.00000000011220     0.00000000027871     0.00000000176033     0.00000000007080     0.00000000006588
   44     0.00000000178140     0.00000000056062     0.00000001499102     0.00000000115074     0.00000000032408
   45     0.00000000744732     0.00000000908992     0.00000011700178     0.00000000206402     0.00000000119577
   46     0.00000037830392     0.00000012369713     0.00000204673621     0.00000011143120     0.00000003083678
   47     0.00000003346783     0.00000010336486     0.00000191737611     0.00000002232283     0.00000003174854
   48     0.00000469403658     0.00000032755108     0.00000270349308     0.00000021413143     0.00000009546298
   49     0.00004624794479     0.00001911127847     0.00040338517752     0.00000200163088     0.00000129695099
   50     0.00011376390800     0.00034041240044     0.00493959651902     0.00004368210243     0.00002859727621
   51     0.00011498777479     0.00001687385646     0.00007013415831     0.00002272291429     0.00000346888662
   52     0.00001547706166     0.00000372118774     0.00004011409998     0.00000219227470     0.00000117321239
   53     0.00122442718214     0.00008030946388     0.00078623960457     0.00006315073394     0.00001782834857
   54     0.00040831072891     0.00045235404214     0.00027239244079     0.00007034715772     0.00002572320051
   55     0.02531160902465     0.00605942654987     0.00743822674013     0.00064226643711     0.00017681439272
   56     0.00000000000000     0.01088357207404     0.01448979792115     0.00878837086222     0.00173616892439
   57     0.01088357207404     0.00000000000000     0.02267530425542     0.00352071414653     0.00828459442905
   58     0.01448979792115     0.02267530425542     0.00000000000000     0.00093948221414     0.00105023958379
   59     0.00878837086222     0.00352071414653     0.00093948221414     0.00000000000000     0.03482207345279
   60     0.00173616892439     0.00828459442905     0.00105023958379     0.03482207345279     0.00000000000000
   61     0.00076838053113     0.00129575840293     0.00075875472113     0.03505205171481     0.03773508693015
   62     0.00055082699573     0.00129379844668     0.00097362534656     0.00275895258393     0.00114911402794
   63     0.00079640434440     0.00128744241085     0.00519873609741     0.00104756872252     0.00064917117289
   64     0.00620746389153     0.00045154193167     0.00104099450216     0.00780446332556     0.00064725913326
   65     0.00091709754765     0.00046237291250     0.00038187723610     0.00048575243265     0.00022474447113
   66     0.00000000231888     0.00000000265320     0.00000004593519     0.00000000042585     0.00000000045374
   67     0.00000000204912     0.00000000413652     0.00000005283442     0.00000000069185     0.00000000076551
   68     0.00000000053151     0.00000000077875     0.00000001240289     0.00000000033875     0.00000000022437

                61                  62                  63                  64                  65

    1     0.00000045336371     0.00000071377713     0.00000144153893     0.00000006302928     0.00000002724828
    2     0.00000030126014     0.00000064930763     0.00000252290882     0.00000002926795     0.00000001600143
    3     0.00000012632799     0.00000037897026     0.00000111604239     0.00000009092227     0.00000001352753
    4     0.00000039587578     0.00000151177521     0.00000517180775     0.00000055115420     0.00000005603725
    5     0.00000083997587     0.00000241142615     0.00000613665928     0.00000086426261     0.00000009795054
    6     0.00000249320526     0.00000431283531     0.00000364504825     0.00000108895875     0.00000007565548
    7     0.00000001512848     0.00000003274745     0.00000019444018     0.00000002748049     0.00000001037293
    8     0.00000001295396     0.00000005298209     0.00000018987723     0.00000000592133     0.00000000310032
    9     0.00000000176473     0.00000000568162     0.00000004368673     0.00000000217480     0.00000000151888
   10     0.00000000459953     0.00000002091033     0.00000012667615     0.00000000307661     0.00000000434478
   11     0.00000000256542     0.00000000578712     0.00000011382351     0.00000000991461     0.00000000661489
   12     0.00000000903623     0.00000001975323     0.00000069406441     0.00000000704577     0.00000001170642
   13     0.00000000288049     0.00000001880219     0.00000023430776     0.00000001073557     0.00000002058743
   14     0.00000002011704     0.00000005061985     0.00000193652904     0.00000011687039     0.00000013009628
   15     0.00000001403782     0.00000004186618     0.00000304494752     0.00000004506137     0.00000035174236
   16     0.00000001453994     0.00000011406195     0.00000278622732     0.00000034142778     0.00000025453148
   17     0.00000008972006     0.00000075203739     0.00002061570666     0.00000143069787     0.00000210027486
   18     0.00000007007265     0.00000050893260     0.00001652631373     0.00000124060437     0.00000262826787
   19     0.00000002121984     0.00000008339192     0.00000487587269     0.00000027823449     0.00000056146914
   20     0.00000021924499     0.00000094973998     0.00004258971135     0.00000217122106     0.00001025221192
   21     0.00000139145206     0.00001361175638     0.00020834055222     0.00005591450391     0.00002512758073
   22     0.00001486615006     0.00014703786935     0.00380868298868     0.00033006303512     0.00023966941872
   23     0.00002104604668     0.00016912603407     0.00405601178076     0.00045687812779     0.00036221225814
   24     0.00005235738869     0.00042140935348     0.00899091687970     0.00076222157723     0.00080928013957
   25     0.00009900153693     0.00104975007730     0.01806085564106     0.00156210221479     0.00726210459380
   26     0.00005358311038     0.00068891458130     0.01545906868694     0.00085481772793     0.00668746596091
   27     0.00002897497147     0.00023832120614     0.00723570653704     0.00031438107787     0.00062157513041
   28     0.00011872979346     0.00123197484484     0.00728462794585     0.01170047577486     0.01988047804273
   29     0.00064401890554     0.00991073868726     0.01271964932420     0.06507795059658     0.05551660839266
   30     0.00183740472590     0.00262533881500     0.00757211614496     0.02293136186095     0.01224775961524
   31     0.01286734106390     0.01284167928707     0.01892054313367     0.00823778047735     0.00237810119756
   32     0.06315339331171     0.06041446439165     0.06019294597461     0.01383689567141     0.01052877506858
   33     0.91945751024339     0.01952130021147     0.01303069250035     0.01564480917606     0.00152419733917
   34     0.01817644362869     0.89744587495792     0.74944527168503     0.04863191637591     0.05779863783189
   35     0.00386878479435     0.06199900470018     0.04421454812821     0.77292618083867     0.87601800145400
   36     0.00000061035135     0.00000532703666     0.00009843046843     0.00001751570693     0.00001007771600
   37     0.00000000253440     0.00000000967977     0.00000020016071     0.00000001091621     0.00000002944607
   38     0.00000001773164     0.00000004230779     0.00000004248558     0.00000000859324     0.00000000133067
   39     0.00000000640843     0.00000006392266     0.00000024357095     0.00000000172851     0.00000000076191
   40     0.00000005942607     0.00000024367192     0.00000202118234     0.00000006227587     0.00000001297913
   41     0.00000119535041     0.00000207823014     0.00000175675902     0.00000022950121     0.00000001330550
   42     0.00000000054836     0.00000000222659     0.00000000764624     0.00000000028992     0.00000000012397
   43     0.00000000008592     0.00000000028759     0.00000000912967     0.00000000011337     0.00000000011450
   44     0.00000000025255     0.00000000129062     0.00000003587830     0.00000000238318     0.00000000307199
   45     0.00000000113632     0.00000002230839     0.00000036143789     0.00000004119943     0.00000003648777
   46     0.00000006141158     0.00000060781055     0.00001004905118     0.00000167641089     0.00000071238085
   47     0.00000000408796     0.00000003078099     0.00000037672883     0.00000002069442     0.00000006806397
   48     0.00000017217818     0.00000324073710     0.00001441565733     0.00001112518308     0.00000149171292
   49     0.00000115619178     0.00000869484275     0.00017881468465     0.00002515559618     0.00002563269285
   50     0.00001788236040     0.00003945984201     0.00112772835869     0.00017880629163     0.00008395652417
   51     0.00001034365734     0.00007700830017     0.00225996008355     0.00009266767892     0.00247652965717
   52     0.00000292745591     0.00002114110644     0.00050157335470     0.00003363766131     0.00002868305703
   53     0.00001880746855     0.00024743446006     0.00047965431126     0.00059435098955     0.00108803195949
   54     0.00002347680474     0.00012959352220     0.00087447035104     0.00121816181651     0.00524924593733
   55     0.00021827264261     0.00029902086143     0.00053761128084     0.00091465849050     0.00112680937000
   56     0.00076838053113     0.00055082699573     0.00079640434440     0.00620746389153     0.00091709754765
   57     0.00129575840293     0.00129379844668     0.00128744241085     0.00045154193167     0.00046237291250
   58     0.00075875472113     0.00097362534656     0.00519873609741     0.00104099450216     0.00038187723610
   59     0.03505205171481     0.00275895258393     0.00104756872252     0.00780446332556     0.00048575243265
   60     0.03773508693015     0.00114911402794     0.00064917117289     0.00064725913326     0.00022474447113
   61     0.00000000000000     0.00603192519229     0.00108648575917     0.00179271083221     0.00012796955297
   62     0.00603192519229     0.00000000000000     0.02330197849591     0.00979804734541     0.00568120167900
   63     0.00108648575917     0.02330197849591     0.00000000000000     0.02625641757621     0.00919656112305
   64     0.00179271083221     0.00979804734541     0.02625641757621     0.00000000000000     0.02174280473669
   65     0.00012796955297     0.00568120167900     0.00919656112305     0.02174280473669     0.00000000000000
   66     0.00000000020708     0.00000000112757     0.00000006070614     0.00000000172690     0.00000001806762
   67     0.00000000074022     0.00000000236531     0.00000012563975     0.00000000476461     0.00000001606819
   68     0.00000000015745     0.00000000090681     0.00000002556826     0.00000000134735     0.00000000331088

                66                  67                  68

    1     0.00000123884092     0.00000080791995     0.00000020020805
    2     0.00000294928441     0.00000200062337     0.00000076349085
    3     0.00001099522080     0.00001088938147     0.00000377143009
    4     0.00000927881240     0.00000777193516     0.00000700314489
    5     0.00000099862801     0.00000067019170     0.00000047881986
    6     0.00000159845242     0.00000049459001     0.00000015950641
    7     0.00004888034898     0.00004137123209     0.00001440855092
    8     0.00011408760422     0.00007830465153     0.00000498988977
    9     0.00004888032464     0.00004370550870     0.00000439145800
   10     0.00039108944132     0.00026845064174     0.00003743272037
   11     0.00101092715178     0.00073736245001     0.00023791261478
   12     0.00030812390728     0.00025358771025     0.00006223926260
   13     0.01084849109881     0.00897135371852     0.00206688470492
   14     0.01645445310534     0.01624989655554     0.00889351190333
   15     0.05808695392130     0.05833830418824     0.05930796135021
   16     0.01474801894572     0.01559490625300     0.02401464257918
   17     0.00132396567044     0.00132500639769     0.00192497302324
   18     0.00263764555489     0.00295962337396     0.00055951526805
   19     0.00123373818044     0.00120702649431     0.00107808193040
   20     0.00049263170317     0.00055575714485     0.00009285600635
   21     0.00009923378601     0.00010979760769     0.00003186693012
   22     0.00001844144886     0.00003016741076     0.00000668954098
   23     0.00000775130548     0.00002088746179     0.00000430763032
   24     0.00000247032581     0.00000293697226     0.00000056897114
   25     0.00000059233626     0.00000060061436     0.00000030235863
   26     0.00000110243049     0.00000173216573     0.00000046927021
   27     0.00000468750265     0.00000641087665     0.00000157728494
   28     0.00000008109829     0.00000010069857     0.00000005423579
   29     0.00000003732561     0.00000002509212     0.00000001604331
   30     0.00000001408949     0.00000002757371     0.00000000996611
   31     0.00000001533600     0.00000002588054     0.00000001197588
   32     0.00000001233236     0.00000002789075     0.00000000908965
   33     0.00000000191843     0.00000000633570     0.00000000175184
   34     0.00000001290147     0.00000004321391     0.00000000982602
   35     0.00000004215055     0.00000002489145     0.00000001223651
   36     0.00006800803649     0.00005412066468     0.00000904529890
   37     0.91867811232509     0.91949463534752     0.92001589479002
   38     0.00000010019417     0.00000008505592     0.00000003947206
   39     0.00000032878409     0.00000024440354     0.00000009449681
   40     0.00000695444012     0.00000709563956     0.00000789827610
   41     0.00000007823065     0.00000004924470     0.00000003814581
   42     0.00000459416508     0.00000340673433     0.00000043809923
   43     0.00000353659837     0.00000289321068     0.00000062279729
   44     0.00498752307754     0.00473710585027     0.00113432094801
   45     0.00120848600650     0.00130496909222     0.00777305705673
   46     0.00023550882516     0.00021769911739     0.00013407664919
   47     0.00018809234406     0.00018769061617     0.00035490695423
   48     0.00005457476928     0.00005786601092     0.00003495101587
   49     0.00000165347190     0.00000881546808     0.00000237615076
   50     0.00000009403361     0.00000005619636     0.00000003173429
   51     0.00000032671049     0.00000022398222     0.00000010191494
   52     0.00000110257941     0.00000085832804     0.00000042857590
   53     0.00000002602932     0.00000001096921     0.00000002121794
   54     0.00000001762972     0.00000000991722     0.00000001423326
   55     0.00000000195055     0.00000000303945     0.00000000538518
   56     0.00000000231888     0.00000000204912     0.00000000053151
   57     0.00000000265320     0.00000000413652     0.00000000077875
   58     0.00000004593519     0.00000005283442     0.00000001240289
   59     0.00000000042585     0.00000000069185     0.00000000033875
   60     0.00000000045374     0.00000000076551     0.00000000022437
   61     0.00000000020708     0.00000000074022     0.00000000015745
   62     0.00000000112757     0.00000000236531     0.00000000090681
   63     0.00000006070614     0.00000012563975     0.00000002556826
   64     0.00000000172690     0.00000000476461     0.00000000134735
   65     0.00000001806762     0.00000001606819     0.00000000331088
   66     0.00000000000000     0.03486260663422     0.03861620347908
   67     0.03486260663422     0.00000000000000     0.03831689537812
   68     0.03861620347908     0.03831689537812     0.00000000000000



  Atomic Valences: 

 #  #
 Irrep: 1
      1:  4.3937047
      2:  4.4253381
      3:  4.6032973
      4:  4.5735940
      5:  3.8847138
      6:  4.5442296
      7:  4.7398380
      8:  4.3712661
      9:  4.5259531
     10:  3.8670161
     11:  4.9995046
     12:  3.9484132
     13:  4.0423808
     14:  4.6662191
     15:  4.6212890
     16:  4.4408551
     17:  4.3938789
     18:  4.6992165
     19:  4.4137528
     20:  4.0170602
     21:  5.0221946
     22:  4.6368319
     23:  4.4420896
     24:  4.4757951
     25:  4.7149009
     26:  4.4667235
     27:  4.4363584
     28:  4.4929641
     29:  4.2568995
     30:  4.5570584
     31:  4.5718912
     32:  4.2114094
     33:  4.2881205
     34:  4.5514996
     35:  4.5452879
     36:  2.7984409
     37:  4.1528779
     38:  1.0985959
     39:  1.1028253
     40:  1.1116031
     41:  1.0910262
     42:  1.1102357
     43:  1.0861399
     44:  1.1782933
     45:  1.0999034
     46:  1.1040330
     47:  1.1315678
     48:  1.1719637
     49:  1.1012496
     50:  1.1089534
     51:  1.1050852
     52:  1.0978824
     53:  1.1060807
     54:  1.1083317
     55:  1.1383488
     56:  1.0429484
     57:  1.0431758
     58:  1.1162990
     59:  1.1373434
     60:  1.1099763
     61:  1.1053441
     62:  1.1211047
     63:  1.0462227
     64:  1.0421620
     65:  1.1012284
     66:  1.1068275
     67:  1.1060777
     68:  1.1047596


    Psi4 stopped on: Wednesday, 04 March 2020 01:09PM
    Psi4 wall time for execution: 0:34:02.65

*** Psi4 exiting successfully. Buy a developer a beer!
