 Entering Gaussian System, Link 0=g09
 Input=MOLECULE0-opt-15-14-13-11-219.com
 Output=MOLECULE0-opt-15-14-13-11-219.log
 Initial command:
 /opt/g09gh/gaussian/g09/l1.exe /scratch/bdw2292/Gau-MOLECULE0/Gau-30583.inp -scrdir=/scratch/bdw2292/Gau-MOLECULE0/
 Entering Link 1 = /opt/g09gh/gaussian/g09/l1.exe PID=     30584.
  
 Copyright (c) 1988,1990,1992,1993,1995,1998,2003,2009, Gaussian, Inc.
                  All Rights Reserved.
  
 This is part of the Gaussian(R) 09 program.  It is based on
 the Gaussian(R) 03 system (copyright 2003, Gaussian, Inc.),
 the Gaussian(R) 98 system (copyright 1998, Gaussian, Inc.),
 the Gaussian(R) 94 system (copyright 1995, Gaussian, Inc.),
 the Gaussian 92(TM) system (copyright 1992, Gaussian, Inc.),
 the Gaussian 90(TM) system (copyright 1990, Gaussian, Inc.),
 the Gaussian 88(TM) system (copyright 1988, Gaussian, Inc.),
 the Gaussian 86(TM) system (copyright 1986, Carnegie Mellon
 University), and the Gaussian 82(TM) system (copyright 1983,
 Carnegie Mellon University). Gaussian is a federally registered
 trademark of Gaussian, Inc.
  
 This software contains proprietary and confidential information,
 including trade secrets, belonging to Gaussian, Inc.
  
 This software is provided under written license and may be
 used, copied, transmitted, or stored only in accord with that
 written license.
  
 The following legend is applicable only to US Government
 contracts under FAR:
  
                    RESTRICTED RIGHTS LEGEND
  
 Use, reproduction and disclosure by the US Government is
 subject to restrictions as set forth in subparagraphs (a)
 and (c) of the Commercial Computer Software - Restricted
 Rights clause in FAR 52.227-19.
  
 Gaussian, Inc.
 340 Quinnipiac St., Bldg. 40, Wallingford CT 06492
  
  
 ---------------------------------------------------------------
 Warning -- This program may not be used in any manner that
 competes with the business of Gaussian, Inc. or will provide
 assistance to any competitor of Gaussian, Inc.  The licensee
 of this program is prohibited from giving any competitor of
 Gaussian, Inc. access to this program.  By using this program,
 the user acknowledges that Gaussian, Inc. is engaged in the
 business of creating and licensing software in the field of
 computational chemistry and represents and warrants to the
 licensee that it is not a competitor of Gaussian, Inc. and that
 it will not use this program in any manner prohibited above.
 ---------------------------------------------------------------
  

 Cite this work as:
 Gaussian 09, Revision A.02,
 M. J. Frisch, G. W. Trucks, H. B. Schlegel, G. E. Scuseria, 
 M. A. Robb, J. R. Cheeseman, G. Scalmani, V. Barone, B. Mennucci, 
 G. A. Petersson, H. Nakatsuji, M. Caricato, X. Li, H. P. Hratchian, 
 A. F. Izmaylov, J. Bloino, G. Zheng, J. L. Sonnenberg, M. Hada, 
 M. Ehara, K. Toyota, R. Fukuda, J. Hasegawa, M. Ishida, T. Nakajima, 
 Y. Honda, O. Kitao, H. Nakai, T. Vreven, J. A. Montgomery, Jr., 
 J. E. Peralta, F. Ogliaro, M. Bearpark, J. J. Heyd, E. Brothers, 
 K. N. Kudin, V. N. Staroverov, R. Kobayashi, J. Normand, 
 K. Raghavachari, A. Rendell, J. C. Burant, S. S. Iyengar, J. Tomasi, 
 M. Cossi, N. Rega, J. M. Millam, M. Klene, J. E. Knox, J. B. Cross, 
 V. Bakken, C. Adamo, J. Jaramillo, R. Gomperts, R. E. Stratmann, 
 O. Yazyev, A. J. Austin, R. Cammi, C. Pomelli, J. W. Ochterski, 
 R. L. Martin, K. Morokuma, V. G. Zakrzewski, G. A. Voth, 
 P. Salvador, J. J. Dannenberg, S. Dapprich, A. D. Daniels, 
 O. Farkas, J. B. Foresman, J. V. Ortiz, J. Cioslowski, 
 and D. J. Fox, Gaussian, Inc., Wallingford CT, 2009.
 
 ******************************************
 Gaussian 09:  EM64L-G09RevA.02 11-Jun-2009
                 3-Mar-2020 
 ******************************************
 %RWF=/scratch/bdw2292/Gau-MOLECULE0/,100GB
 %Nosave
 %Chk=MOLECULE0-opt-15-14-13-11-219.chk
 %Mem=20GB
 %Nproc=6
 Will use up to    6 processors via shared memory.
 --------------------------------------------------
 #P opt=(,maxcycle=400) wB97XD/6-31G* MaxDisk=100GB
 --------------------------------------------------
 1/6=400,14=-1,18=20,19=15,26=3,38=1/1,3;
 2/9=110,12=2,17=6,18=5,40=1/2;
 3/5=1,6=6,7=1,11=2,16=1,25=1,30=1,71=1,74=-58/1,2,3;
 4//1;
 5/5=2,38=5/2;
 6/7=2,8=2,9=2,10=2,28=1/1;
 7//1,2,3,16;
 1/6=400,14=-1,18=20,19=15/3(2);
 2/9=110/2;
 99//99;
 2/9=110/2;
 3/5=1,6=6,7=1,11=2,16=1,25=1,30=1,71=1,74=-58/1,2,3;
 4/5=5,16=3/1;
 5/5=2,38=5/2;
 7//1,2,3,16;
 1/6=400,14=-1,18=20,19=15/3(-5);
 2/9=110/2;
 6/7=2,8=2,9=2,10=2,19=2,28=1/1;
 99/9=1/99;
 Leave Link    1 at Tue Mar  3 10:25:32 2020, MaxMem= 2684354560 cpu:       0.2
 (Enter /opt/g09gh/gaussian/g09/l101.exe)
 --------------------------------------------------------------
 MOLECULE0 Rotatable Bond Optimization on node37.bme.utexas.edu
 --------------------------------------------------------------
 Symbolic Z-matrix:
 Charge =  0 Multiplicity = 1
 C                     0.65645   2.99396   5.1169 
 C                     1.86718   3.14892   4.42817 
 C                     2.35993   2.10042   3.62575 
 C                     1.56873   0.92486   3.58953 
 N                     0.41123   0.76078   4.24193 
 C                    -0.03256   1.78292   4.98782 
 C                     3.64094   2.18566   2.83518 
 C                     4.51382   3.28555   2.80112 
 C                     5.63855   3.14514   1.97916 
 N                     5.9082    2.06607   1.24872 
 C                     5.00857   1.06554   1.33904 
 N                     3.91003   1.0947    2.09411 
 N                     5.26952  -0.06102   0.58954 
 C                     4.51332  -1.25725   0.38257 
 C                     5.19996  -2.50513   0.32603 
 C                     4.41867  -3.65312   0.12029 
 C                     3.02565  -3.63129  -0.01406 
 C                     2.36653  -2.39861   0.06216 
 C                     3.12068  -1.22548   0.23667 
 N                     0.95242  -2.20481  -0.04858 
 C                    -0.05411  -3.07811  -0.38917 
 C                    -1.42558  -2.4988   -0.67419 
 C                    -1.62107  -1.25814  -1.30257 
 C                    -2.91181  -0.77128  -1.52067 
 C                    -4.04832  -1.50406  -1.12972 
 C                    -3.83742  -2.74838  -0.5052 
 C                    -2.55068  -3.249    -0.29482 
 C                    -5.4582   -0.9431   -1.32239 
 N                    -6.00343  -0.01184  -0.31885 
 C                    -5.50866   1.38287  -0.29389 
 C                    -4.35202   1.63819   0.70618 
 N                    -4.65265   1.20993   2.0922 
 C                    -5.4488    2.13355   2.90904 
 C                    -5.09671  -0.20547   2.0716 
 C                    -6.23405  -0.50433   1.05925 
 O                     0.11581  -4.28564  -0.44303 
 C                     6.70481  -2.6318    0.48778 
 H                     0.25479   3.78937   5.73759 
 H                     2.39746   4.09304   4.52673 
 H                     1.89544   0.07015   3.00322 
 H                    -0.97764   1.61876   5.50289 
 H                     4.36013   4.19856   3.36289 
 H                     6.36569   3.95338   1.90297 
 H                     6.10622   0.05136   0.03539 
 H                     4.90679  -4.62553   0.06942 
 H                     2.46089  -4.54346  -0.1633 
 H                     2.63451  -0.26116   0.29979 
 H                     0.65505  -1.2479    0.08095 
 H                    -0.75847  -0.68043  -1.62526 
 H                    -3.03063   0.19946  -2.00232 
 H                    -4.68839  -3.34423  -0.17604 
 H                    -2.39701  -4.21371   0.18209 
 H                    -5.49947  -0.42967  -2.29416 
 H                    -6.16014  -1.78714  -1.38613 
 H                    -5.27787   1.72422  -1.28611 
 H                    -6.70305   2.27524   0.21394 
 H                    -4.09448   3.09982   0.71289 
 H                    -3.39633   1.12033   0.37783 
 H                    -6.46367   2.2382    2.50951 
 H                    -4.97497   3.12144   2.93349 
 H                    -5.51236   1.76682   3.9398 
 H                    -5.37125  -0.52797   3.10966 
 H                    -3.89739  -1.02771   1.64551 
 H                    -7.49136   0.25604   1.61144 
 H                    -6.49909  -1.61449   1.04709 
 H                     7.07475  -2.03901   1.33612 
 H                     7.23341  -2.2846   -0.41116 
 H                     7.0273   -3.66672   0.66828 
 
 NAtoms=     68 NQM=     68 NQMF=      0 NMic=      0 NMicF=      0 NTot=     68.
                    Isotopes and Nuclear Properties:
 (Nuclear quadrupole moments (NQMom) in fm**2, nuclear magnetic moments (NMagM)
  in nuclear magnetons)

  Atom         1           2           3           4           5           6           7           8           9          10
 IAtWgt=          12          12          12          12          14          12          12          12          12          14
 AtmWgt=  12.0000000  12.0000000  12.0000000  12.0000000  14.0030740  12.0000000  12.0000000  12.0000000  12.0000000  14.0030740
 NucSpn=           0           0           0           0           2           0           0           0           0           2
 AtZEff=   0.0000000   0.0000000   0.0000000   0.0000000   0.0000000   0.0000000   0.0000000   0.0000000   0.0000000   0.0000000
 NQMom=    0.0000000   0.0000000   0.0000000   0.0000000   2.0440000   0.0000000   0.0000000   0.0000000   0.0000000   2.0440000
 NMagM=    0.0000000   0.0000000   0.0000000   0.0000000   0.4037610   0.0000000   0.0000000   0.0000000   0.0000000   0.4037610

  Atom        11          12          13          14          15          16          17          18          19          20
 IAtWgt=          12          14          14          12          12          12          12          12          12          14
 AtmWgt=  12.0000000  14.0030740  14.0030740  12.0000000  12.0000000  12.0000000  12.0000000  12.0000000  12.0000000  14.0030740
 NucSpn=           0           2           2           0           0           0           0           0           0           2
 AtZEff=   0.0000000   0.0000000   0.0000000   0.0000000   0.0000000   0.0000000   0.0000000   0.0000000   0.0000000   0.0000000
 NQMom=    0.0000000   2.0440000   2.0440000   0.0000000   0.0000000   0.0000000   0.0000000   0.0000000   0.0000000   2.0440000
 NMagM=    0.0000000   0.4037610   0.4037610   0.0000000   0.0000000   0.0000000   0.0000000   0.0000000   0.0000000   0.4037610

  Atom        21          22          23          24          25          26          27          28          29          30
 IAtWgt=          12          12          12          12          12          12          12          12          14          12
 AtmWgt=  12.0000000  12.0000000  12.0000000  12.0000000  12.0000000  12.0000000  12.0000000  12.0000000  14.0030740  12.0000000
 NucSpn=           0           0           0           0           0           0           0           0           2           0
 AtZEff=   0.0000000   0.0000000   0.0000000   0.0000000   0.0000000   0.0000000   0.0000000   0.0000000   0.0000000   0.0000000
 NQMom=    0.0000000   0.0000000   0.0000000   0.0000000   0.0000000   0.0000000   0.0000000   0.0000000   2.0440000   0.0000000
 NMagM=    0.0000000   0.0000000   0.0000000   0.0000000   0.0000000   0.0000000   0.0000000   0.0000000   0.4037610   0.0000000

  Atom        31          32          33          34          35          36          37          38          39          40
 IAtWgt=          12          14          12          12          12          16          12           1           1           1
 AtmWgt=  12.0000000  14.0030740  12.0000000  12.0000000  12.0000000  15.9949146  12.0000000   1.0078250   1.0078250   1.0078250
 NucSpn=           0           2           0           0           0           0           0           1           1           1
 AtZEff=   0.0000000   0.0000000   0.0000000   0.0000000   0.0000000   0.0000000   0.0000000   0.0000000   0.0000000   0.0000000
 NQMom=    0.0000000   2.0440000   0.0000000   0.0000000   0.0000000   0.0000000   0.0000000   0.0000000   0.0000000   0.0000000
 NMagM=    0.0000000   0.4037610   0.0000000   0.0000000   0.0000000   0.0000000   0.0000000   2.7928460   2.7928460   2.7928460

  Atom        41          42          43          44          45          46          47          48          49          50
 IAtWgt=           1           1           1           1           1           1           1           1           1           1
 AtmWgt=   1.0078250   1.0078250   1.0078250   1.0078250   1.0078250   1.0078250   1.0078250   1.0078250   1.0078250   1.0078250
 NucSpn=           1           1           1           1           1           1           1           1           1           1
 AtZEff=   0.0000000   0.0000000   0.0000000   0.0000000   0.0000000   0.0000000   0.0000000   0.0000000   0.0000000   0.0000000
 NQMom=    0.0000000   0.0000000   0.0000000   0.0000000   0.0000000   0.0000000   0.0000000   0.0000000   0.0000000   0.0000000
 NMagM=    2.7928460   2.7928460   2.7928460   2.7928460   2.7928460   2.7928460   2.7928460   2.7928460   2.7928460   2.7928460

  Atom        51          52          53          54          55          56          57          58          59          60
 IAtWgt=           1           1           1           1           1           1           1           1           1           1
 AtmWgt=   1.0078250   1.0078250   1.0078250   1.0078250   1.0078250   1.0078250   1.0078250   1.0078250   1.0078250   1.0078250
 NucSpn=           1           1           1           1           1           1           1           1           1           1
 AtZEff=   0.0000000   0.0000000   0.0000000   0.0000000   0.0000000   0.0000000   0.0000000   0.0000000   0.0000000   0.0000000
 NQMom=    0.0000000   0.0000000   0.0000000   0.0000000   0.0000000   0.0000000   0.0000000   0.0000000   0.0000000   0.0000000
 NMagM=    2.7928460   2.7928460   2.7928460   2.7928460   2.7928460   2.7928460   2.7928460   2.7928460   2.7928460   2.7928460

  Atom        61          62          63          64          65          66          67          68
 IAtWgt=           1           1           1           1           1           1           1           1
 AtmWgt=   1.0078250   1.0078250   1.0078250   1.0078250   1.0078250   1.0078250   1.0078250   1.0078250
 NucSpn=           1           1           1           1           1           1           1           1
 AtZEff=   0.0000000   0.0000000   0.0000000   0.0000000   0.0000000   0.0000000   0.0000000   0.0000000
 NQMom=    0.0000000   0.0000000   0.0000000   0.0000000   0.0000000   0.0000000   0.0000000   0.0000000
 NMagM=    2.7928460   2.7928460   2.7928460   2.7928460   2.7928460   2.7928460   2.7928460   2.7928460
 Leave Link  101 at Tue Mar  3 10:25:32 2020, MaxMem= 2684354560 cpu:       0.5
 (Enter /opt/g09gh/gaussian/g09/l103.exe)

 GradGradGradGradGradGradGradGradGradGradGradGradGradGradGradGradGradGrad
 Berny optimization.
 Initialization pass.
                           ----------------------------
                           !    Initial Parameters    !
                           ! (Angstroms and Degrees)  !
 --------------------------                            --------------------------
 ! Name  Definition              Value          Derivative Info.                !
 --------------------------------------------------------------------------------
 ! R1    R(1,2)                  1.4015         estimate D2E/DX2                !
 ! R2    R(1,6)                  1.3993         estimate D2E/DX2                !
 ! R3    R(1,38)                 1.0859         estimate D2E/DX2                !
 ! R4    R(2,3)                  1.4093         estimate D2E/DX2                !
 ! R5    R(2,39)                 1.0873         estimate D2E/DX2                !
 ! R6    R(3,4)                  1.4175         estimate D2E/DX2                !
 ! R7    R(3,7)                  1.5077         estimate D2E/DX2                !
 ! R8    R(4,5)                  1.3388         estimate D2E/DX2                !
 ! R9    R(4,40)                 1.0867         estimate D2E/DX2                !
 ! R10   R(5,6)                  1.3409         estimate D2E/DX2                !
 ! R11   R(6,41)                 1.0888         estimate D2E/DX2                !
 ! R12   R(7,8)                  1.4046         estimate D2E/DX2                !
 ! R13   R(7,12)                 1.346          estimate D2E/DX2                !
 ! R14   R(8,9)                  1.4001         estimate D2E/DX2                !
 ! R15   R(8,42)                 1.083          estimate D2E/DX2                !
 ! R16   R(9,10)                 1.3306         estimate D2E/DX2                !
 ! R17   R(9,43)                 1.0899         estimate D2E/DX2                !
 ! R18   R(10,11)                1.3485         estimate D2E/DX2                !
 ! R19   R(11,12)                1.3333         estimate D2E/DX2                !
 ! R20   R(11,13)                1.378          estimate D2E/DX2                !
 ! R21   R(13,14)                1.4303         estimate D2E/DX2                !
 ! R22   R(13,44)                1.0098         estimate D2E/DX2                !
 ! R23   R(14,15)                1.4254         estimate D2E/DX2                !
 ! R24   R(14,19)                1.4006         estimate D2E/DX2                !
 ! R25   R(15,16)                1.4038         estimate D2E/DX2                !
 ! R26   R(15,37)                1.5188         estimate D2E/DX2                !
 ! R27   R(16,17)                1.3997         estimate D2E/DX2                !
 ! R28   R(16,45)                1.0892         estimate D2E/DX2                !
 ! R29   R(17,18)                1.3999         estimate D2E/DX2                !
 ! R30   R(17,46)                1.0832         estimate D2E/DX2                !
 ! R31   R(18,19)                1.4055         estimate D2E/DX2                !
 ! R32   R(18,20)                1.4316         estimate D2E/DX2                !
 ! R33   R(19,47)                1.0818         estimate D2E/DX2                !
 ! R34   R(20,21)                1.3754         estimate D2E/DX2                !
 ! R35   R(20,48)                1.0104         estimate D2E/DX2                !
 ! R36   R(21,22)                1.5158         estimate D2E/DX2                !
 ! R37   R(21,36)                1.2206         estimate D2E/DX2                !
 ! R38   R(22,23)                1.4044         estimate D2E/DX2                !
 ! R39   R(22,27)                1.4045         estimate D2E/DX2                !
 ! R40   R(23,24)                1.3966         estimate D2E/DX2                !
 ! R41   R(23,49)                1.0872         estimate D2E/DX2                !
 ! R42   R(24,25)                1.4076         estimate D2E/DX2                !
 ! R43   R(24,50)                1.0902         estimate D2E/DX2                !
 ! R44   R(25,26)                1.4081         estimate D2E/DX2                !
 ! R45   R(25,28)                1.5296         estimate D2E/DX2                !
 ! R46   R(26,27)                1.3966         estimate D2E/DX2                !
 ! R47   R(26,51)                1.0897         estimate D2E/DX2                !
 ! R48   R(27,52)                1.0871         estimate D2E/DX2                !
 ! R49   R(28,29)                1.4736         estimate D2E/DX2                !
 ! R50   R(28,53)                1.0998         estimate D2E/DX2                !
 ! R51   R(28,54)                1.0996         estimate D2E/DX2                !
 ! R52   R(29,30)                1.4801         estimate D2E/DX2                !
 ! R53   R(29,35)                1.4815         estimate D2E/DX2                !
 ! R54   R(30,31)                1.5502         estimate D2E/DX2                !
 ! R55   R(30,55)                1.0744         estimate D2E/DX2                !
 ! R56   R(30,56)                1.5751         estimate D2E/DX2                !
 ! R57   R(31,32)                1.4815         estimate D2E/DX2                !
 ! R58   R(31,57)                1.4842         estimate D2E/DX2                !
 ! R59   R(31,58)                1.1355         estimate D2E/DX2                !
 ! R60   R(32,33)                1.4677         estimate D2E/DX2                !
 ! R61   R(32,34)                1.4836         estimate D2E/DX2                !
 ! R62   R(33,59)                1.0957         estimate D2E/DX2                !
 ! R63   R(33,60)                1.0959         estimate D2E/DX2                !
 ! R64   R(33,61)                1.0959         estimate D2E/DX2                !
 ! R65   R(34,35)                1.5517         estimate D2E/DX2                !
 ! R66   R(34,62)                1.1211         estimate D2E/DX2                !
 ! R67   R(34,63)                1.5153         estimate D2E/DX2                !
 ! R68   R(35,64)                1.5697         estimate D2E/DX2                !
 ! R69   R(35,65)                1.1414         estimate D2E/DX2                !
 ! R70   R(37,66)                1.0991         estimate D2E/DX2                !
 ! R71   R(37,67)                1.0991         estimate D2E/DX2                !
 ! R72   R(37,68)                1.0989         estimate D2E/DX2                !
 ! A1    A(2,1,6)              118.4069         estimate D2E/DX2                !
 ! A2    A(2,1,38)             121.2935         estimate D2E/DX2                !
 ! A3    A(6,1,38)             120.2996         estimate D2E/DX2                !
 ! A4    A(1,2,3)              119.9736         estimate D2E/DX2                !
 ! A5    A(1,2,39)             118.2134         estimate D2E/DX2                !
 ! A6    A(3,2,39)             121.8107         estimate D2E/DX2                !
 ! A7    A(2,3,4)              115.8752         estimate D2E/DX2                !
 ! A8    A(2,3,7)              123.612          estimate D2E/DX2                !
 ! A9    A(4,3,7)              120.5123         estimate D2E/DX2                !
 ! A10   A(3,4,5)              124.8742         estimate D2E/DX2                !
 ! A11   A(3,4,40)             119.8833         estimate D2E/DX2                !
 ! A12   A(5,4,40)             115.2419         estimate D2E/DX2                !
 ! A13   A(4,5,6)              117.6317         estimate D2E/DX2                !
 ! A14   A(1,6,5)              123.2345         estimate D2E/DX2                !
 ! A15   A(1,6,41)             120.9486         estimate D2E/DX2                !
 ! A16   A(5,6,41)             115.8167         estimate D2E/DX2                !
 ! A17   A(3,7,8)              125.8022         estimate D2E/DX2                !
 ! A18   A(3,7,12)             114.3757         estimate D2E/DX2                !
 ! A19   A(8,7,12)             119.808          estimate D2E/DX2                !
 ! A20   A(7,8,9)              115.7803         estimate D2E/DX2                !
 ! A21   A(7,8,42)             124.0152         estimate D2E/DX2                !
 ! A22   A(9,8,42)             120.2044         estimate D2E/DX2                !
 ! A23   A(8,9,10)             124.4976         estimate D2E/DX2                !
 ! A24   A(8,9,43)             120.1734         estimate D2E/DX2                !
 ! A25   A(10,9,43)            115.3288         estimate D2E/DX2                !
 ! A26   A(9,10,11)            115.4489         estimate D2E/DX2                !
 ! A27   A(10,11,12)           124.8436         estimate D2E/DX2                !
 ! A28   A(10,11,13)           116.3456         estimate D2E/DX2                !
 ! A29   A(12,11,13)           118.8103         estimate D2E/DX2                !
 ! A30   A(7,12,11)            119.6188         estimate D2E/DX2                !
 ! A31   A(11,13,14)           131.4777         estimate D2E/DX2                !
 ! A32   A(11,13,44)           111.3702         estimate D2E/DX2                !
 ! A33   A(14,13,44)           116.8542         estimate D2E/DX2                !
 ! A34   A(13,14,15)           118.8977         estimate D2E/DX2                !
 ! A35   A(13,14,19)           121.4531         estimate D2E/DX2                !
 ! A36   A(15,14,19)           119.6491         estimate D2E/DX2                !
 ! A37   A(14,15,16)           116.9771         estimate D2E/DX2                !
 ! A38   A(14,15,37)           123.0973         estimate D2E/DX2                !
 ! A39   A(16,15,37)           119.9237         estimate D2E/DX2                !
 ! A40   A(15,16,17)           123.7267         estimate D2E/DX2                !
 ! A41   A(15,16,45)           119.1769         estimate D2E/DX2                !
 ! A42   A(17,16,45)           117.0936         estimate D2E/DX2                !
 ! A43   A(16,17,18)           118.4965         estimate D2E/DX2                !
 ! A44   A(16,17,46)           121.2659         estimate D2E/DX2                !
 ! A45   A(18,17,46)           120.2345         estimate D2E/DX2                !
 ! A46   A(17,18,19)           119.2809         estimate D2E/DX2                !
 ! A47   A(17,18,20)           125.455          estimate D2E/DX2                !
 ! A48   A(19,18,20)           115.2531         estimate D2E/DX2                !
 ! A49   A(14,19,18)           121.8372         estimate D2E/DX2                !
 ! A50   A(14,19,47)           117.4517         estimate D2E/DX2                !
 ! A51   A(18,19,47)           120.6734         estimate D2E/DX2                !
 ! A52   A(18,20,21)           130.9995         estimate D2E/DX2                !
 ! A53   A(18,20,48)           114.1428         estimate D2E/DX2                !
 ! A54   A(21,20,48)           114.6889         estimate D2E/DX2                !
 ! A55   A(20,21,22)           117.776          estimate D2E/DX2                !
 ! A56   A(20,21,36)           122.4925         estimate D2E/DX2                !
 ! A57   A(22,21,36)           119.7172         estimate D2E/DX2                !
 ! A58   A(21,22,23)           123.2087         estimate D2E/DX2                !
 ! A59   A(21,22,27)           118.0253         estimate D2E/DX2                !
 ! A60   A(23,22,27)           118.765          estimate D2E/DX2                !
 ! A61   A(22,23,24)           120.4292         estimate D2E/DX2                !
 ! A62   A(22,23,49)           119.4579         estimate D2E/DX2                !
 ! A63   A(24,23,49)           120.1116         estimate D2E/DX2                !
 ! A64   A(23,24,25)           121.4213         estimate D2E/DX2                !
 ! A65   A(23,24,50)           118.6937         estimate D2E/DX2                !
 ! A66   A(25,24,50)           119.8847         estimate D2E/DX2                !
 ! A67   A(24,25,26)           117.533          estimate D2E/DX2                !
 ! A68   A(24,25,28)           121.219          estimate D2E/DX2                !
 ! A69   A(26,25,28)           121.1984         estimate D2E/DX2                !
 ! A70   A(25,26,27)           121.4362         estimate D2E/DX2                !
 ! A71   A(25,26,51)           120.0117         estimate D2E/DX2                !
 ! A72   A(27,26,51)           118.552          estimate D2E/DX2                !
 ! A73   A(22,27,26)           120.3906         estimate D2E/DX2                !
 ! A74   A(22,27,52)           118.6385         estimate D2E/DX2                !
 ! A75   A(26,27,52)           120.9592         estimate D2E/DX2                !
 ! A76   A(25,28,29)           119.1444         estimate D2E/DX2                !
 ! A77   A(25,28,53)           108.4869         estimate D2E/DX2                !
 ! A78   A(25,28,54)           108.3121         estimate D2E/DX2                !
 ! A79   A(29,28,53)           107.0262         estimate D2E/DX2                !
 ! A80   A(29,28,54)           106.7595         estimate D2E/DX2                !
 ! A81   A(53,28,54)           106.4489         estimate D2E/DX2                !
 ! A82   A(28,29,30)           118.9011         estimate D2E/DX2                !
 ! A83   A(28,29,35)           118.7497         estimate D2E/DX2                !
 ! A84   A(30,29,35)           110.4628         estimate D2E/DX2                !
 ! A85   A(29,30,31)           114.5502         estimate D2E/DX2                !
 ! A86   A(29,30,55)           110.8318         estimate D2E/DX2                !
 ! A87   A(29,30,56)           106.6086         estimate D2E/DX2                !
 ! A88   A(31,30,55)           112.5311         estimate D2E/DX2                !
 ! A89   A(31,30,56)           105.3362         estimate D2E/DX2                !
 ! A90   A(55,30,56)           106.2996         estimate D2E/DX2                !
 ! A91   A(30,31,32)           113.8617         estimate D2E/DX2                !
 ! A92   A(30,31,57)           107.1324         estimate D2E/DX2                !
 ! A93   A(30,31,58)           111.4882         estimate D2E/DX2                !
 ! A94   A(32,31,57)           108.4008         estimate D2E/DX2                !
 ! A95   A(32,31,58)           108.0289         estimate D2E/DX2                !
 ! A96   A(57,31,58)           107.7223         estimate D2E/DX2                !
 ! A97   A(31,32,33)           116.6694         estimate D2E/DX2                !
 ! A98   A(31,32,34)           108.8768         estimate D2E/DX2                !
 ! A99   A(33,32,34)           116.471          estimate D2E/DX2                !
 ! A100  A(32,33,59)           111.0756         estimate D2E/DX2                !
 ! A101  A(32,33,60)           110.1903         estimate D2E/DX2                !
 ! A102  A(32,33,61)           110.1412         estimate D2E/DX2                !
 ! A103  A(59,33,60)           108.8148         estimate D2E/DX2                !
 ! A104  A(59,33,61)           108.7363         estimate D2E/DX2                !
 ! A105  A(60,33,61)           107.803          estimate D2E/DX2                !
 ! A106  A(32,34,35)           114.3436         estimate D2E/DX2                !
 ! A107  A(32,34,62)           109.5652         estimate D2E/DX2                !
 ! A108  A(32,34,63)           106.5412         estimate D2E/DX2                !
 ! A109  A(35,34,62)           111.6653         estimate D2E/DX2                !
 ! A110  A(35,34,63)           106.9875         estimate D2E/DX2                !
 ! A111  A(62,34,63)           107.3431         estimate D2E/DX2                !
 ! A112  A(29,35,34)           115.3885         estimate D2E/DX2                !
 ! A113  A(29,35,64)           106.9114         estimate D2E/DX2                !
 ! A114  A(29,35,65)           110.46           estimate D2E/DX2                !
 ! A115  A(34,35,64)           105.3251         estimate D2E/DX2                !
 ! A116  A(34,35,65)           111.3754         estimate D2E/DX2                !
 ! A117  A(64,35,65)           106.7918         estimate D2E/DX2                !
 ! A118  A(15,37,66)           111.7605         estimate D2E/DX2                !
 ! A119  A(15,37,67)           111.2886         estimate D2E/DX2                !
 ! A120  A(15,37,68)           112.7554         estimate D2E/DX2                !
 ! A121  A(66,37,67)           107.3993         estimate D2E/DX2                !
 ! A122  A(66,37,68)           106.4027         estimate D2E/DX2                !
 ! A123  A(67,37,68)           106.8996         estimate D2E/DX2                !
 ! D1    D(6,1,2,3)              0.2342         estimate D2E/DX2                !
 ! D2    D(6,1,2,39)           179.6994         estimate D2E/DX2                !
 ! D3    D(38,1,2,3)          -179.73           estimate D2E/DX2                !
 ! D4    D(38,1,2,39)           -0.2649         estimate D2E/DX2                !
 ! D5    D(2,1,6,5)              0.2903         estimate D2E/DX2                !
 ! D6    D(2,1,6,41)          -179.8791         estimate D2E/DX2                !
 ! D7    D(38,1,6,5)          -179.7451         estimate D2E/DX2                !
 ! D8    D(38,1,6,41)            0.0855         estimate D2E/DX2                !
 ! D9    D(1,2,3,4)             -0.6473         estimate D2E/DX2                !
 ! D10   D(1,2,3,7)            179.1068         estimate D2E/DX2                !
 ! D11   D(39,2,3,4)           179.9073         estimate D2E/DX2                !
 ! D12   D(39,2,3,7)            -0.3386         estimate D2E/DX2                !
 ! D13   D(2,3,4,5)              0.6295         estimate D2E/DX2                !
 ! D14   D(2,3,4,40)          -179.0643         estimate D2E/DX2                !
 ! D15   D(7,3,4,5)           -179.1328         estimate D2E/DX2                !
 ! D16   D(7,3,4,40)             1.1734         estimate D2E/DX2                !
 ! D17   D(2,3,7,8)              0.9648         estimate D2E/DX2                !
 ! D18   D(2,3,7,12)          -177.6596         estimate D2E/DX2                !
 ! D19   D(4,3,7,8)           -179.292          estimate D2E/DX2                !
 ! D20   D(4,3,7,12)             2.0836         estimate D2E/DX2                !
 ! D21   D(3,4,5,6)             -0.1442         estimate D2E/DX2                !
 ! D22   D(40,4,5,6)           179.5623         estimate D2E/DX2                !
 ! D23   D(4,5,6,1)             -0.3375         estimate D2E/DX2                !
 ! D24   D(4,5,6,41)           179.8239         estimate D2E/DX2                !
 ! D25   D(3,7,8,9)           -179.1677         estimate D2E/DX2                !
 ! D26   D(3,7,8,42)             0.9784         estimate D2E/DX2                !
 ! D27   D(12,7,8,9)            -0.6118         estimate D2E/DX2                !
 ! D28   D(12,7,8,42)          179.5343         estimate D2E/DX2                !
 ! D29   D(3,7,12,11)          179.0848         estimate D2E/DX2                !
 ! D30   D(8,7,12,11)            0.3706         estimate D2E/DX2                !
 ! D31   D(7,8,9,10)             0.4485         estimate D2E/DX2                !
 ! D32   D(7,8,9,43)          -179.714          estimate D2E/DX2                !
 ! D33   D(42,8,9,10)         -179.6916         estimate D2E/DX2                !
 ! D34   D(42,8,9,43)            0.1458         estimate D2E/DX2                !
 ! D35   D(8,9,10,11)           -0.0231         estimate D2E/DX2                !
 ! D36   D(43,9,10,11)        -179.8676         estimate D2E/DX2                !
 ! D37   D(9,10,11,12)          -0.2704         estimate D2E/DX2                !
 ! D38   D(9,10,11,13)         179.9775         estimate D2E/DX2                !
 ! D39   D(10,11,12,7)           0.0957         estimate D2E/DX2                !
 ! D40   D(13,11,12,7)         179.8422         estimate D2E/DX2                !
 ! D41   D(10,11,13,14)       -175.8409         estimate D2E/DX2                !
 ! D42   D(10,11,13,44)         -2.4477         estimate D2E/DX2                !
 ! D43   D(12,11,13,14)          4.3913         estimate D2E/DX2                !
 ! D44   D(12,11,13,44)        177.7845         estimate D2E/DX2                !
 ! D45   D(11,13,14,15)       -140.814          estimate D2E/DX2                !
 ! D46   D(11,13,14,19)         39.1293         estimate D2E/DX2                !
 ! D47   D(44,13,14,15)         46.0836         estimate D2E/DX2                !
 ! D48   D(44,13,14,19)       -133.9731         estimate D2E/DX2                !
 ! D49   D(13,14,15,16)       -179.9499         estimate D2E/DX2                !
 ! D50   D(13,14,15,37)          0.5558         estimate D2E/DX2                !
 ! D51   D(19,14,15,16)          0.1058         estimate D2E/DX2                !
 ! D52   D(19,14,15,37)       -179.3885         estimate D2E/DX2                !
 ! D53   D(13,14,19,18)       -178.5855         estimate D2E/DX2                !
 ! D54   D(13,14,19,47)         -0.808          estimate D2E/DX2                !
 ! D55   D(15,14,19,18)          1.3574         estimate D2E/DX2                !
 ! D56   D(15,14,19,47)        179.1349         estimate D2E/DX2                !
 ! D57   D(14,15,16,17)         -0.7255         estimate D2E/DX2                !
 ! D58   D(14,15,16,45)        179.8985         estimate D2E/DX2                !
 ! D59   D(37,15,16,17)        178.7857         estimate D2E/DX2                !
 ! D60   D(37,15,16,45)         -0.5903         estimate D2E/DX2                !
 ! D61   D(14,15,37,66)         45.7314         estimate D2E/DX2                !
 ! D62   D(14,15,37,67)        -74.3408         estimate D2E/DX2                !
 ! D63   D(14,15,37,68)        165.5429         estimate D2E/DX2                !
 ! D64   D(16,15,37,66)       -133.7486         estimate D2E/DX2                !
 ! D65   D(16,15,37,67)        106.1792         estimate D2E/DX2                !
 ! D66   D(16,15,37,68)        -13.9371         estimate D2E/DX2                !
 ! D67   D(15,16,17,18)         -0.1113         estimate D2E/DX2                !
 ! D68   D(15,16,17,46)       -179.4656         estimate D2E/DX2                !
 ! D69   D(45,16,17,18)        179.2768         estimate D2E/DX2                !
 ! D70   D(45,16,17,46)         -0.0775         estimate D2E/DX2                !
 ! D71   D(16,17,18,19)          1.5587         estimate D2E/DX2                !
 ! D72   D(16,17,18,20)       -179.7076         estimate D2E/DX2                !
 ! D73   D(46,17,18,19)       -179.0801         estimate D2E/DX2                !
 ! D74   D(46,17,18,20)         -0.3464         estimate D2E/DX2                !
 ! D75   D(17,18,19,14)         -2.2129         estimate D2E/DX2                !
 ! D76   D(17,18,19,47)       -179.9198         estimate D2E/DX2                !
 ! D77   D(20,18,19,14)        178.9276         estimate D2E/DX2                !
 ! D78   D(20,18,19,47)          1.2207         estimate D2E/DX2                !
 ! D79   D(17,18,20,21)         -8.1446         estimate D2E/DX2                !
 ! D80   D(17,18,20,48)        176.9058         estimate D2E/DX2                !
 ! D81   D(19,18,20,21)        170.6343         estimate D2E/DX2                !
 ! D82   D(19,18,20,48)         -4.3154         estimate D2E/DX2                !
 ! D83   D(18,20,21,22)       -168.4556         estimate D2E/DX2                !
 ! D84   D(18,20,21,36)         12.9298         estimate D2E/DX2                !
 ! D85   D(48,20,21,22)          6.4721         estimate D2E/DX2                !
 ! D86   D(48,20,21,36)       -172.1426         estimate D2E/DX2                !
 ! D87   D(20,21,22,23)         35.3924         estimate D2E/DX2                !
 ! D88   D(20,21,22,27)       -144.9677         estimate D2E/DX2                !
 ! D89   D(36,21,22,23)       -145.9531         estimate D2E/DX2                !
 ! D90   D(36,21,22,27)         33.6869         estimate D2E/DX2                !
 ! D91   D(21,22,23,24)       -179.1288         estimate D2E/DX2                !
 ! D92   D(21,22,23,49)          1.2871         estimate D2E/DX2                !
 ! D93   D(27,22,23,24)          1.2337         estimate D2E/DX2                !
 ! D94   D(27,22,23,49)       -178.3503         estimate D2E/DX2                !
 ! D95   D(21,22,27,26)        178.4869         estimate D2E/DX2                !
 ! D96   D(21,22,27,52)         -0.2833         estimate D2E/DX2                !
 ! D97   D(23,22,27,26)         -1.8568         estimate D2E/DX2                !
 ! D98   D(23,22,27,52)        179.3731         estimate D2E/DX2                !
 ! D99   D(22,23,24,25)         -0.4065         estimate D2E/DX2                !
 ! D100  D(22,23,24,50)        179.4231         estimate D2E/DX2                !
 ! D101  D(49,23,24,25)        179.1748         estimate D2E/DX2                !
 ! D102  D(49,23,24,50)         -0.9956         estimate D2E/DX2                !
 ! D103  D(23,24,25,26)          0.1738         estimate D2E/DX2                !
 ! D104  D(23,24,25,28)        177.6434         estimate D2E/DX2                !
 ! D105  D(50,24,25,26)       -179.6538         estimate D2E/DX2                !
 ! D106  D(50,24,25,28)         -2.1842         estimate D2E/DX2                !
 ! D107  D(24,25,26,27)         -0.8067         estimate D2E/DX2                !
 ! D108  D(24,25,26,51)        179.3169         estimate D2E/DX2                !
 ! D109  D(28,25,26,27)       -178.2769         estimate D2E/DX2                !
 ! D110  D(28,25,26,51)          1.8468         estimate D2E/DX2                !
 ! D111  D(24,25,28,29)        -82.8057         estimate D2E/DX2                !
 ! D112  D(24,25,28,53)         39.8729         estimate D2E/DX2                !
 ! D113  D(24,25,28,54)        155.0327         estimate D2E/DX2                !
 ! D114  D(26,25,28,29)         94.5711         estimate D2E/DX2                !
 ! D115  D(26,25,28,53)       -142.7503         estimate D2E/DX2                !
 ! D116  D(26,25,28,54)        -27.5905         estimate D2E/DX2                !
 ! D117  D(25,26,27,22)          1.6757         estimate D2E/DX2                !
 ! D118  D(25,26,27,52)       -179.583          estimate D2E/DX2                !
 ! D119  D(51,26,27,22)       -178.4462         estimate D2E/DX2                !
 ! D120  D(51,26,27,52)          0.2951         estimate D2E/DX2                !
 ! D121  D(25,28,29,30)         74.8344         estimate D2E/DX2                !
 ! D122  D(25,28,29,35)        -64.4843         estimate D2E/DX2                !
 ! D123  D(53,28,29,30)        -48.5636         estimate D2E/DX2                !
 ! D124  D(53,28,29,35)        172.1177         estimate D2E/DX2                !
 ! D125  D(54,28,29,30)       -162.2354         estimate D2E/DX2                !
 ! D126  D(54,28,29,35)         58.446          estimate D2E/DX2                !
 ! D127  D(28,29,30,31)        -94.7938         estimate D2E/DX2                !
 ! D128  D(28,29,30,55)         33.8546         estimate D2E/DX2                !
 ! D129  D(28,29,30,56)        149.123          estimate D2E/DX2                !
 ! D130  D(35,29,30,31)         47.6176         estimate D2E/DX2                !
 ! D131  D(35,29,30,55)        176.266          estimate D2E/DX2                !
 ! D132  D(35,29,30,56)        -68.4656         estimate D2E/DX2                !
 ! D133  D(28,29,35,34)         96.4228         estimate D2E/DX2                !
 ! D134  D(28,29,35,64)       -146.8293         estimate D2E/DX2                !
 ! D135  D(28,29,35,65)        -30.9983         estimate D2E/DX2                !
 ! D136  D(30,29,35,34)        -46.0526         estimate D2E/DX2                !
 ! D137  D(30,29,35,64)         70.6953         estimate D2E/DX2                !
 ! D138  D(30,29,35,65)       -173.4738         estimate D2E/DX2                !
 ! D139  D(29,30,31,32)        -53.6942         estimate D2E/DX2                !
 ! D140  D(29,30,31,57)       -173.5322         estimate D2E/DX2                !
 ! D141  D(29,30,31,58)         68.8425         estimate D2E/DX2                !
 ! D142  D(55,30,31,32)        178.5153         estimate D2E/DX2                !
 ! D143  D(55,30,31,57)         58.6773         estimate D2E/DX2                !
 ! D144  D(55,30,31,58)        -58.948          estimate D2E/DX2                !
 ! D145  D(56,30,31,32)         63.1211         estimate D2E/DX2                !
 ! D146  D(56,30,31,57)        -56.7169         estimate D2E/DX2                !
 ! D147  D(56,30,31,58)       -174.3422         estimate D2E/DX2                !
 ! D148  D(30,31,32,33)        -81.2997         estimate D2E/DX2                !
 ! D149  D(30,31,32,34)         53.0397         estimate D2E/DX2                !
 ! D150  D(57,31,32,33)         37.8193         estimate D2E/DX2                !
 ! D151  D(57,31,32,34)        172.1587         estimate D2E/DX2                !
 ! D152  D(58,31,32,33)        154.2841         estimate D2E/DX2                !
 ! D153  D(58,31,32,34)        -71.3765         estimate D2E/DX2                !
 ! D154  D(31,32,33,59)         65.7707         estimate D2E/DX2                !
 ! D155  D(31,32,33,60)        -54.8917         estimate D2E/DX2                !
 ! D156  D(31,32,33,61)       -173.6983         estimate D2E/DX2                !
 ! D157  D(34,32,33,59)        -65.1161         estimate D2E/DX2                !
 ! D158  D(34,32,33,60)        174.2215         estimate D2E/DX2                !
 ! D159  D(34,32,33,61)         55.415          estimate D2E/DX2                !
 ! D160  D(31,32,34,35)        -51.2735         estimate D2E/DX2                !
 ! D161  D(31,32,34,62)       -177.4898         estimate D2E/DX2                !
 ! D162  D(31,32,34,63)         66.6887         estimate D2E/DX2                !
 ! D163  D(33,32,34,35)         83.1673         estimate D2E/DX2                !
 ! D164  D(33,32,34,62)        -43.049          estimate D2E/DX2                !
 ! D165  D(33,32,34,63)       -158.8705         estimate D2E/DX2                !
 ! D166  D(32,34,35,29)         50.1377         estimate D2E/DX2                !
 ! D167  D(32,34,35,64)        -67.5024         estimate D2E/DX2                !
 ! D168  D(32,34,35,65)        177.0977         estimate D2E/DX2                !
 ! D169  D(62,34,35,29)        175.2532         estimate D2E/DX2                !
 ! D170  D(62,34,35,64)         57.613          estimate D2E/DX2                !
 ! D171  D(62,34,35,65)        -57.7868         estimate D2E/DX2                !
 ! D172  D(63,34,35,29)        -67.5699         estimate D2E/DX2                !
 ! D173  D(63,34,35,64)        174.79           estimate D2E/DX2                !
 ! D174  D(63,34,35,65)         59.3902         estimate D2E/DX2                !
 --------------------------------------------------------------------------------
 Trust Radius=3.00D-01 FncErr=1.00D-07 GrdErr=1.00D-06
 Number of steps in this run= 400 maximum allowed number of steps= 408.
 GradGradGradGradGradGradGradGradGradGradGradGradGradGradGradGradGradGrad

 Leave Link  103 at Tue Mar  3 10:25:32 2020, MaxMem= 2684354560 cpu:       0.1
 (Enter /opt/g09gh/gaussian/g09/l202.exe)
 Stoichiometry    C29H31N7O
 Framework group  C1[X(C29H31N7O)]
 Deg. of freedom   198
 Full point group                 C1      NOp   1
 Largest Abelian subgroup         C1      NOp   1
 Largest concise Abelian subgroup C1      NOp   1
                         Standard orientation:                         
 ---------------------------------------------------------------------
 Center     Atomic      Atomic             Coordinates (Angstroms)
 Number     Number       Type             X           Y           Z
 ---------------------------------------------------------------------
      1          6           0       -1.044560    4.903026   -1.264769
      2          6           0       -2.172325    4.508113   -0.532356
      3          6           0       -2.532667    3.146955   -0.473864
      4          6           0       -1.702470    2.255553   -1.198740
      5          7           0       -0.623042    2.616737   -1.903536
      6          6           0       -0.303865    3.918877   -1.928727
      7          6           0       -3.716034    2.629536    0.304061
      8          6           0       -4.616598    3.411024    1.046433
      9          6           0       -5.633413    2.708612    1.704503
     10          7           0       -5.779540    1.386439    1.670915
     11          6           0       -4.862344    0.720437    0.940326
     12          7           0       -3.859971    1.291619    0.271914
     13          7           0       -4.996003   -0.650288    0.893259
     14          6           0       -4.180124   -1.661680    0.295687
     15          6           0       -4.812158   -2.765171   -0.348296
     16          6           0       -3.973189   -3.734595   -0.920103
     17          6           0       -2.575561   -3.661862   -0.900640
     18          6           0       -1.972590   -2.561728   -0.279445
     19          6           0       -2.781886   -1.587738    0.330337
     20          7           0       -0.562692   -2.334719   -0.178580
     21          6           0        0.505965   -3.140378   -0.495826
     22          6           0        1.880347   -2.709239   -0.023648
     23          6           0        2.104127   -2.059823    1.201306
     24          6           0        3.393831   -1.671662    1.570892
     25          6           0        4.502234   -1.923343    0.740492
     26          6           0        4.263732   -2.579439   -0.482417
     27          6           0        2.979361   -2.982819   -0.854254
     28          6           0        5.904719   -1.449206    1.124916
     29          7           0        6.297990   -0.059596    0.831783
     30          6           0        5.755805    1.030081    1.673975
     31          6           0        4.483341    1.710092    1.106899
     32          7           0        4.636584    2.205918   -0.280730
     33          6           0        5.300768    3.504156   -0.446827
     34          6           0        5.128642    1.097274   -1.134984
     35          6           0        6.384868    0.373164   -0.582451
     36          8           0        0.385190   -4.160172   -1.155622
     37          6           0       -6.320349   -2.916985   -0.443729
     38          1           0       -0.744926    5.945307   -1.320764
     39          1           0       -2.742704    5.274801   -0.013585
     40          1           0       -1.929622    1.192880   -1.210908
     41          1           0        0.580545    4.179162   -2.507941
     42          1           0       -4.560388    4.489635    1.125402
     43          1           0       -6.374354    3.244683    2.297307
     44          1           0       -5.766516   -0.964735    1.465274
     45          1           0       -4.418310   -4.593964   -1.419872
     46          1           0       -1.966203   -4.429196   -1.362334
     47          1           0       -2.339830   -0.727897    0.815637
     48          1           0       -0.315464   -1.460091    0.262765
     49          1           0        1.265110   -1.866674    1.865161
     50          1           0        3.533869   -1.160955    2.523790
     51          1           0        5.091082   -2.784528   -1.161366
     52          1           0        2.805062   -3.494793   -1.797229
     53          1           0        6.040129   -1.601040    2.205778
     54          1           0        6.638031   -2.098449    0.625007
     55          1           0        5.629437    0.701618    2.689073
     56          1           0        6.852079    2.160480    1.708350
     57          1           0        4.176454    2.865738    1.986130
     58          1           0        3.590386    1.009171    1.133037
     59          1           0        6.350751    3.451930   -0.138039
     60          1           0        4.793461    4.268089    0.153242
     61          1           0        5.257543    3.818687   -1.495728
     62          1           0        5.292499    1.471947   -2.178877
     63          1           0        4.015624    0.070713   -1.193035
     64          1           0        7.543035    1.429331   -0.666443
     65          1           0        6.687702   -0.502053   -1.249637
     66          1           0       -6.805981   -1.978617   -0.746317
     67          1           0       -6.753327   -3.214719    0.521642
     68          1           0       -6.625599   -3.675264   -1.178209
 ---------------------------------------------------------------------
 Rotational constants (GHZ):      0.1256294      0.0572559      0.0428892
 Leave Link  202 at Tue Mar  3 10:25:32 2020, MaxMem= 2684354560 cpu:       0.0
 (Enter /opt/g09gh/gaussian/g09/l301.exe)
 Standard basis: 6-31G(d) (6D, 7F)
 Ernie: Thresh=  0.10000D-02 Tol=  0.10000D-05 Strict=F.
 There are   617 symmetry adapted basis functions of A   symmetry.
 Integral buffers will be    131072 words long.
 Raffenetti 2 integral format.
 Two-electron integral symmetry is turned on.
   617 basis functions,  1160 primitive gaussians,   617 cartesian basis functions
   131 alpha electrons      131 beta electrons
       nuclear repulsion energy      3718.8253724679 Hartrees.
 IExCor= 4639 DFT=T Ex+Corr=wB97XD ExCW=0 ScaHFX=  1.000000
 ScaDFX=  1.000000  1.000000  1.000000  1.000000 ScalE2=  1.000000  1.000000
 IRadAn=      0 IRanWt=     -1 IRanGd=            0 ICorTp=0
  HFx wShort=  0.000000 wLong=  0.200000 cFull=  0.222036 cShort=  0.000000 cLong=  0.777964
  DFx wShort=  0.000000 wLong=  0.200000 cFull=  0.000000 cShort=  0.000000 cLong=  1.000000
 NAtoms=   68 NActive=   68 NUniq=   68 SFac= 7.50D-01 NAtFMM=   80 NAOKFM=F Big=T
 R6Disp: Dispersion energy =        -0.0558987966 Hartrees.
 Nuclear repulsion after empirical dispersion term =     3718.7694736713 Hartrees.
 Leave Link  301 at Tue Mar  3 10:25:32 2020, MaxMem= 2684354560 cpu:       0.3
 (Enter /opt/g09gh/gaussian/g09/l302.exe)
 NPDir=0 NMtPBC=     1 NCelOv=     1 NCel=       1 NClECP=     1 NCelD=      1
         NCelK=      1 NCelE2=     1 NClLst=     1 CellRange=     0.0.
 One-electron integrals computed using PRISM.
 NBasis=   617 RedAO= T  NBF=   617
 NBsUse=   617 1.00D-06 NBFU=   617
 Precomputing XC quadrature grid using
 IXCGrd= 2 IRadAn=           0 IRanWt=          -1 IRanGd=           0 AccXCQ= 1.00D-10.
 NRdTot=    4377 NPtTot=      559524 NUsed=      591060 NTot=      591092
 NSgBfM=   600   600   600   600   600 NAtAll=    68    68.
 Leave Link  302 at Tue Mar  3 10:25:34 2020, MaxMem= 2684354560 cpu:       9.8
 (Enter /opt/g09gh/gaussian/g09/l303.exe)
 DipDrv:  MaxL=1.
 Leave Link  303 at Tue Mar  3 10:25:34 2020, MaxMem= 2684354560 cpu:       0.6
 (Enter /opt/g09gh/gaussian/g09/l401.exe)
 Harris functional with IExCor= 4639 diagonalized for initial guess.
 ExpMin= 1.61D-01 ExpMax= 5.48D+03 ExpMxC= 8.25D+02 IAcc=1 IRadAn=         1 AccDes= 0.00D+00
 HarFok:  IExCor= 4639 AccDes= 0.00D+00 IRadAn=         1 IDoV= 1
 ScaDFX=  1.000000  1.000000  1.000000  1.000000
 FoFCou: FMM=F IPFlag=           0 FMFlag=      100000 FMFlg1=           1
         NFxFlg=           0 DoJE=T BraDBF=F KetDBF=T FulRan=T
         Omega=  0.000000  0.000000  1.000000  0.000000  0.000000 ICntrl=     500 IOpCl=  0
         NMat0=    1 NMatS0=    1 NMatT0=    0 NMatD0=    1 NMtDS0=    0 NMtDT0=    0
         I1Cent=           4 NGrid=           0.
 Petite list used in FoFCou.
 Harris En= -1512.39625274013    
 Initial guess orbital symmetries:
       Occupied  (A) (A) (A) (A) (A) (A) (A) (A) (A) (A) (A) (A)
                 (A) (A) (A) (A) (A) (A) (A) (A) (A) (A) (A) (A)
                 (A) (A) (A) (A) (A) (A) (A) (A) (A) (A) (A) (A)
                 (A) (A) (A) (A) (A) (A) (A) (A) (A) (A) (A) (A)
                 (A) (A) (A) (A) (A) (A) (A) (A) (A) (A) (A) (A)
                 (A) (A) (A) (A) (A) (A) (A) (A) (A) (A) (A) (A)
                 (A) (A) (A) (A) (A) (A) (A) (A) (A) (A) (A) (A)
                 (A) (A) (A) (A) (A) (A) (A) (A) (A) (A) (A) (A)
                 (A) (A) (A) (A) (A) (A) (A) (A) (A) (A) (A) (A)
                 (A) (A) (A) (A) (A) (A) (A) (A) (A) (A) (A) (A)
                 (A) (A) (A) (A) (A) (A) (A) (A) (A) (A) (A)
       Virtual   (A) (A) (A) (A) (A) (A) (A) (A) (A) (A) (A) (A)
                 (A) (A) (A) (A) (A) (A) (A) (A) (A) (A) (A) (A)
                 (A) (A) (A) (A) (A) (A) (A) (A) (A) (A) (A) (A)
                 (A) (A) (A) (A) (A) (A) (A) (A) (A) (A) (A) (A)
                 (A) (A) (A) (A) (A) (A) (A) (A) (A) (A) (A) (A)
                 (A) (A) (A) (A) (A) (A) (A) (A) (A) (A) (A) (A)
                 (A) (A) (A) (A) (A) (A) (A) (A) (A) (A) (A) (A)
                 (A) (A) (A) (A) (A) (A) (A) (A) (A) (A) (A) (A)
                 (A) (A) (A) (A) (A) (A) (A) (A) (A) (A) (A) (A)
                 (A) (A) (A) (A) (A) (A) (A) (A) (A) (A) (A) (A)
                 (A) (A) (A) (A) (A) (A) (A) (A) (A) (A) (A) (A)
                 (A) (A) (A) (A) (A) (A) (A) (A) (A) (A) (A) (A)
                 (A) (A) (A) (A) (A) (A) (A) (A) (A) (A) (A) (A)
                 (A) (A) (A) (A) (A) (A) (A) (A) (A) (A) (A) (A)
                 (A) (A) (A) (A) (A) (A) (A) (A) (A) (A) (A) (A)
                 (A) (A) (A) (A) (A) (A) (A) (A) (A) (A) (A) (A)
                 (A) (A) (A) (A) (A) (A) (A) (A) (A) (A) (A) (A)
                 (A) (A) (A) (A) (A) (A) (A) (A) (A) (A) (A) (A)
                 (A) (A) (A) (A) (A) (A) (A) (A) (A) (A) (A) (A)
                 (A) (A) (A) (A) (A) (A) (A) (A) (A) (A) (A) (A)
                 (A) (A) (A) (A) (A) (A) (A) (A) (A) (A) (A) (A)
                 (A) (A) (A) (A) (A) (A) (A) (A) (A) (A) (A) (A)
                 (A) (A) (A) (A) (A) (A) (A) (A) (A) (A) (A) (A)
                 (A) (A) (A) (A) (A) (A) (A) (A) (A) (A) (A) (A)
                 (A) (A) (A) (A) (A) (A) (A) (A) (A) (A) (A) (A)
                 (A) (A) (A) (A) (A) (A) (A) (A) (A) (A) (A) (A)
                 (A) (A) (A) (A) (A) (A) (A) (A) (A) (A) (A) (A)
                 (A) (A) (A) (A) (A) (A) (A) (A) (A) (A) (A) (A)
                 (A) (A) (A) (A) (A) (A) (A) (A) (A) (A) (A) (A)
                 (A) (A) (A) (A) (A) (A) (A) (A) (A) (A) (A) (A)
                 (A) (A) (A) (A) (A) (A) (A) (A) (A) (A) (A) (A)
                 (A) (A) (A) (A) (A) (A) (A) (A) (A) (A) (A) (A)
                 (A) (A) (A) (A) (A) (A) (A) (A) (A) (A) (A) (A)
                 (A) (A) (A) (A) (A) (A) (A) (A) (A) (A) (A) (A)
                 (A) (A) (A) (A) (A) (A) (A) (A) (A) (A) (A) (A)
                 (A) (A) (A) (A) (A) (A) (A) (A) (A) (A) (A) (A)
                 (A) (A) (A) (A) (A) (A) (A) (A) (A) (A) (A) (A)
                 (A) (A) (A) (A) (A) (A) (A) (A) (A) (A) (A) (A)
                 (A) (A) (A) (A) (A) (A) (A) (A) (A) (A) (A) (A)
                 (A) (A) (A) (A) (A) (A) (A) (A) (A) (A) (A) (A)
                 (A) (A) (A) (A) (A) (A)
 The electronic state of the initial guess is 1-A.
 Leave Link  401 at Tue Mar  3 10:25:38 2020, MaxMem= 2684354560 cpu:      20.1
 (Enter /opt/g09gh/gaussian/g09/l502.exe)
 Closed shell SCF:
 Requested convergence on RMS density matrix=1.00D-08 within 128 cycles.
 Requested convergence on MAX density matrix=1.00D-06.
 Requested convergence on             energy=1.00D-06.
 No special actions if energy rises.
 Using DIIS extrapolation, IDIIS=  1040.
 Integral symmetry usage will be decided dynamically.
       590435 words used for storage of precomputed grid.
 IEnd=     1759015 IEndB=     1759015 NGot=  2684354560 MDV=  2682993492
 LenX=  2682993492 LenY=  2682612186
 Fock matrices will be formed incrementally for  20 cycles.
 Integral accuracy reduced to 1.0D-05 until final iterations.

 Cycle   1  Pass 0  IDiag  1:
 FoFJK:  IHMeth= 1 ICntrl=     0 DoSepK=T KAlg= 1 I1Cent= 0 FoldK=F
 FoFCou: FMM=T IPFlag=           0 FMFlag=      100000 FMFlg1=           1
         NFxFlg=           0 DoJE=T BraDBF=F KetDBF=F FulRan=T
         Omega=  0.000000  0.000000  1.000000  0.000000  0.000000 ICntrl=     500 IOpCl=  0
         NMat0=    1 NMatS0=    1 NMatT0=    0 NMatD0=    1 NMtDS0=    0 NMtDT0=    0
         I1Cent=           0 NGrid=           0.
 Symmetry not used in FoFCou.
 FMM levels:  10  Number of levels for PrismC:   9
 E= -1581.16931827402    
 DIIS: error= 6.75D-02 at cycle   1 NSaved=   1.
 NSaved= 1 IEnMin= 1 EnMin= -1581.16931827402     IErMin= 1 ErrMin= 6.75D-02
 ErrMax= 6.75D-02 EMaxC= 1.00D-01 BMatC= 1.45D+00 BMatP= 1.45D+00
 IDIUse=3 WtCom= 3.25D-01 WtEn= 6.75D-01
 Coeff-Com:  0.100D+01
 Coeff-En:   0.100D+01
 Coeff:      0.100D+01
 Gap=     0.284 Goal=   None    Shift=    0.000
 GapD=    0.284 DampG=1.000 DampE=0.500 DampFc=0.5000 IDamp=-1.
 Damping current iteration by 5.00D-01
 RMSDP=1.85D-03 MaxDP=8.85D-02              OVMax= 1.55D-01

 Cycle   2  Pass 0  IDiag  1:
 RMSU=  6.55D-04    CP:  1.00D+00
 FoFJK:  IHMeth= 1 ICntrl=     0 DoSepK=T KAlg= 1 I1Cent= 0 FoldK=F
 E= -1581.34242020959     Delta-E=       -0.173101935570 Rises=F Damp=T
 DIIS: error= 3.39D-02 at cycle   2 NSaved=   2.
 NSaved= 2 IEnMin= 2 EnMin= -1581.34242020959     IErMin= 2 ErrMin= 3.39D-02
 ErrMax= 3.39D-02 EMaxC= 1.00D-01 BMatC= 3.22D-01 BMatP= 1.45D+00
 IDIUse=3 WtCom= 6.61D-01 WtEn= 3.39D-01
 Coeff-Com: -0.670D+00 0.167D+01
 Coeff-En:   0.000D+00 0.100D+01
 Coeff:     -0.443D+00 0.144D+01
 Gap=     0.284 Goal=   None    Shift=    0.000
 RMSDP=8.59D-04 MaxDP=3.89D-02 DE=-1.73D-01 OVMax= 1.07D-01

 Cycle   3  Pass 0  IDiag  1:
 RMSU=  5.42D-04    CP:  1.00D+00  1.42D+00
 FoFJK:  IHMeth= 1 ICntrl=     0 DoSepK=T KAlg= 1 I1Cent= 0 FoldK=F
 E= -1581.47706341667     Delta-E=       -0.134643207079 Rises=F Damp=F
 DIIS: error= 5.31D-03 at cycle   3 NSaved=   3.
 NSaved= 3 IEnMin= 3 EnMin= -1581.47706341667     IErMin= 3 ErrMin= 5.31D-03
 ErrMax= 5.31D-03 EMaxC= 1.00D-01 BMatC= 5.25D-02 BMatP= 3.22D-01
 IDIUse=3 WtCom= 9.47D-01 WtEn= 5.31D-02
 Coeff-Com: -0.352D+00 0.729D+00 0.624D+00
 Coeff-En:   0.000D+00 0.000D+00 0.100D+01
 Coeff:     -0.334D+00 0.690D+00 0.644D+00
 Gap=     0.270 Goal=   None    Shift=    0.000
 RMSDP=4.26D-04 MaxDP=2.63D-02 DE=-1.35D-01 OVMax= 5.49D-02

 Cycle   4  Pass 0  IDiag  1:
 RMSU=  1.38D-04    CP:  1.00D+00  1.68D+00  6.19D-01
 FoFJK:  IHMeth= 1 ICntrl=     0 DoSepK=T KAlg= 1 I1Cent= 0 FoldK=F
 E= -1581.52362472673     Delta-E=       -0.046561310060 Rises=F Damp=F
 DIIS: error= 2.10D-03 at cycle   4 NSaved=   4.
 NSaved= 4 IEnMin= 4 EnMin= -1581.52362472673     IErMin= 4 ErrMin= 2.10D-03
 ErrMax= 2.10D-03 EMaxC= 1.00D-01 BMatC= 2.92D-03 BMatP= 5.25D-02
 IDIUse=3 WtCom= 9.79D-01 WtEn= 2.10D-02
 Coeff-Com: -0.158D+00 0.323D+00 0.340D+00 0.496D+00
 Coeff-En:   0.000D+00 0.000D+00 0.000D+00 0.100D+01
 Coeff:     -0.155D+00 0.316D+00 0.333D+00 0.506D+00
 Gap=     0.265 Goal=   None    Shift=    0.000
 RMSDP=9.28D-05 MaxDP=8.09D-03 DE=-4.66D-02 OVMax= 9.15D-03

 Cycle   5  Pass 0  IDiag  1:
 RMSU=  4.47D-05    CP:  1.00D+00  1.67D+00  6.74D-01  7.31D-01
 FoFJK:  IHMeth= 1 ICntrl=     0 DoSepK=T KAlg= 1 I1Cent= 0 FoldK=F
 E= -1581.52611324358     Delta-E=       -0.002488516844 Rises=F Damp=F
 DIIS: error= 4.38D-04 at cycle   5 NSaved=   5.
 NSaved= 5 IEnMin= 5 EnMin= -1581.52611324358     IErMin= 5 ErrMin= 4.38D-04
 ErrMax= 4.38D-04 EMaxC= 1.00D-01 BMatC= 8.61D-05 BMatP= 2.92D-03
 IDIUse=3 WtCom= 9.96D-01 WtEn= 4.38D-03
 Coeff-Com: -0.160D-01 0.316D-01 0.535D-01 0.163D+00 0.768D+00
 Coeff-En:   0.000D+00 0.000D+00 0.000D+00 0.000D+00 0.100D+01
 Coeff:     -0.159D-01 0.315D-01 0.532D-01 0.163D+00 0.769D+00
 Gap=     0.263 Goal=   None    Shift=    0.000
 RMSDP=2.35D-05 MaxDP=2.33D-03 DE=-2.49D-03 OVMax= 2.69D-03

 Cycle   6  Pass 0  IDiag  1:
 RMSU=  1.30D-05    CP:  1.00D+00  1.68D+00  6.82D-01  7.94D-01  9.89D-01
 FoFJK:  IHMeth= 1 ICntrl=     0 DoSepK=T KAlg= 1 I1Cent= 0 FoldK=F
 E= -1581.52619690877     Delta-E=       -0.000083665193 Rises=F Damp=F
 DIIS: error= 1.96D-04 at cycle   6 NSaved=   6.
 NSaved= 6 IEnMin= 6 EnMin= -1581.52619690877     IErMin= 6 ErrMin= 1.96D-04
 ErrMax= 1.96D-04 EMaxC= 1.00D-01 BMatC= 2.43D-05 BMatP= 8.61D-05
 IDIUse=3 WtCom= 9.98D-01 WtEn= 1.96D-03
 Coeff-Com:  0.219D-01-0.452D-01-0.349D-01-0.152D-01 0.383D+00 0.690D+00
 Coeff-En:   0.000D+00 0.000D+00 0.000D+00 0.000D+00 0.000D+00 0.100D+01
 Coeff:      0.218D-01-0.451D-01-0.348D-01-0.151D-01 0.383D+00 0.691D+00
 Gap=     0.264 Goal=   None    Shift=    0.000
 RMSDP=1.27D-05 MaxDP=7.74D-04 DE=-8.37D-05 OVMax= 1.63D-03

 Cycle   7  Pass 0  IDiag  1:
 RMSU=  5.54D-06    CP:  1.00D+00  1.68D+00  6.86D-01  8.22D-01  1.10D+00
                    CP:  9.10D-01
 FoFJK:  IHMeth= 1 ICntrl=     0 DoSepK=T KAlg= 1 I1Cent= 0 FoldK=F
 E= -1581.52622454389     Delta-E=       -0.000027635124 Rises=F Damp=F
 DIIS: error= 3.42D-05 at cycle   7 NSaved=   7.
 NSaved= 7 IEnMin= 7 EnMin= -1581.52622454389     IErMin= 7 ErrMin= 3.42D-05
 ErrMax= 3.42D-05 EMaxC= 1.00D-01 BMatC= 1.66D-06 BMatP= 2.43D-05
 IDIUse=1 WtCom= 1.00D+00 WtEn= 0.00D+00
 Coeff-Com:  0.943D-02-0.193D-01-0.169D-01-0.219D-01 0.608D-01 0.242D+00
 Coeff-Com:  0.746D+00
 Coeff:      0.943D-02-0.193D-01-0.169D-01-0.219D-01 0.608D-01 0.242D+00
 Coeff:      0.746D+00
 Gap=     0.264 Goal=   None    Shift=    0.000
 RMSDP=4.08D-06 MaxDP=2.27D-04 DE=-2.76D-05 OVMax= 5.97D-04

 Initial convergence to 1.0D-05 achieved.  Increase integral accuracy.
 Cycle   8  Pass 1  IDiag  1:
 FoFJK:  IHMeth= 1 ICntrl=     0 DoSepK=T KAlg= 1 I1Cent= 0 FoldK=F
 E= -1581.52428696595     Delta-E=        0.001937577944 Rises=F Damp=F
 DIIS: error= 1.15D-04 at cycle   1 NSaved=   1.
 NSaved= 1 IEnMin= 1 EnMin= -1581.52428696595     IErMin= 1 ErrMin= 1.15D-04
 ErrMax= 1.15D-04 EMaxC= 1.00D-01 BMatC= 1.26D-05 BMatP= 1.26D-05
 IDIUse=3 WtCom= 9.99D-01 WtEn= 1.15D-03
 Coeff-Com:  0.100D+01
 Coeff-En:   0.100D+01
 Coeff:      0.100D+01
 Gap=     0.264 Goal=   None    Shift=    0.000
 RMSDP=4.08D-06 MaxDP=2.27D-04 DE= 1.94D-03 OVMax= 3.73D-04

 Cycle   9  Pass 1  IDiag  1:
 RMSU=  1.58D-05    CP:  1.00D+00
 FoFJK:  IHMeth= 1 ICntrl=     0 DoSepK=T KAlg= 1 I1Cent= 0 FoldK=F
 E= -1581.52429707366     Delta-E=       -0.000010107708 Rises=F Damp=F
 DIIS: error= 1.92D-05 at cycle   2 NSaved=   2.
 NSaved= 2 IEnMin= 2 EnMin= -1581.52429707366     IErMin= 2 ErrMin= 1.92D-05
 ErrMax= 1.92D-05 EMaxC= 1.00D-01 BMatC= 7.23D-07 BMatP= 1.26D-05
 IDIUse=1 WtCom= 1.00D+00 WtEn= 0.00D+00
 Coeff-Com:  0.326D-01 0.967D+00
 Coeff:      0.326D-01 0.967D+00
 Gap=     0.264 Goal=   None    Shift=    0.000
 RMSDP=3.05D-06 MaxDP=2.24D-04 DE=-1.01D-05 OVMax= 3.14D-04

 Cycle  10  Pass 1  IDiag  1:
 RMSU=  2.01D-06    CP:  1.00D+00  1.05D+00
 FoFJK:  IHMeth= 1 ICntrl=     0 DoSepK=T KAlg= 1 I1Cent= 0 FoldK=F
 E= -1581.52429715478     Delta-E=       -0.000000081118 Rises=F Damp=F
 DIIS: error= 3.08D-05 at cycle   3 NSaved=   3.
 NSaved= 3 IEnMin= 3 EnMin= -1581.52429715478     IErMin= 2 ErrMin= 1.92D-05
 ErrMax= 3.08D-05 EMaxC= 1.00D-01 BMatC= 8.70D-07 BMatP= 7.23D-07
 IDIUse=1 WtCom= 1.00D+00 WtEn= 0.00D+00
 Coeff-Com: -0.394D-01 0.540D+00 0.500D+00
 Coeff:     -0.394D-01 0.540D+00 0.500D+00
 Gap=     0.264 Goal=   None    Shift=    0.000
 RMSDP=1.50D-06 MaxDP=1.29D-04 DE=-8.11D-08 OVMax= 1.52D-04

 Cycle  11  Pass 1  IDiag  1:
 RMSU=  6.35D-07    CP:  1.00D+00  1.06D+00  5.87D-01
 FoFJK:  IHMeth= 1 ICntrl=     0 DoSepK=T KAlg= 1 I1Cent= 0 FoldK=F
 E= -1581.52429789815     Delta-E=       -0.000000743374 Rises=F Damp=F
 DIIS: error= 6.70D-06 at cycle   4 NSaved=   4.
 NSaved= 4 IEnMin= 4 EnMin= -1581.52429789815     IErMin= 4 ErrMin= 6.70D-06
 ErrMax= 6.70D-06 EMaxC= 1.00D-01 BMatC= 2.30D-08 BMatP= 7.23D-07
 IDIUse=1 WtCom= 1.00D+00 WtEn= 0.00D+00
 Coeff-Com: -0.177D-01 0.133D+00 0.180D+00 0.705D+00
 Coeff:     -0.177D-01 0.133D+00 0.180D+00 0.705D+00
 Gap=     0.264 Goal=   None    Shift=    0.000
 RMSDP=3.40D-07 MaxDP=3.34D-05 DE=-7.43D-07 OVMax= 4.01D-05

 Cycle  12  Pass 1  IDiag  1:
 RMSU=  2.12D-07    CP:  1.00D+00  1.06D+00  6.41D-01  1.03D+00
 FoFJK:  IHMeth= 1 ICntrl=     0 DoSepK=T KAlg= 1 I1Cent= 0 FoldK=F
 E= -1581.52429792095     Delta-E=       -0.000000022801 Rises=F Damp=F
 DIIS: error= 2.89D-06 at cycle   5 NSaved=   5.
 NSaved= 5 IEnMin= 5 EnMin= -1581.52429792095     IErMin= 5 ErrMin= 2.89D-06
 ErrMax= 2.89D-06 EMaxC= 1.00D-01 BMatC= 4.62D-09 BMatP= 2.30D-08
 IDIUse=1 WtCom= 1.00D+00 WtEn= 0.00D+00
 Coeff-Com: -0.123D-03-0.386D-01-0.142D-01 0.298D+00 0.755D+00
 Coeff:     -0.123D-03-0.386D-01-0.142D-01 0.298D+00 0.755D+00
 Gap=     0.264 Goal=   None    Shift=    0.000
 RMSDP=1.88D-07 MaxDP=1.11D-05 DE=-2.28D-08 OVMax= 2.58D-05

 Cycle  13  Pass 1  IDiag  1:
 RMSU=  8.95D-08    CP:  1.00D+00  1.06D+00  6.58D-01  1.17D+00  9.61D-01
 FoFJK:  IHMeth= 1 ICntrl=     0 DoSepK=T KAlg= 1 I1Cent= 0 FoldK=F
 E= -1581.52429792756     Delta-E=       -0.000000006606 Rises=F Damp=F
 DIIS: error= 7.33D-07 at cycle   6 NSaved=   6.
 NSaved= 6 IEnMin= 6 EnMin= -1581.52429792756     IErMin= 6 ErrMin= 7.33D-07
 ErrMax= 7.33D-07 EMaxC= 1.00D-01 BMatC= 5.40D-10 BMatP= 4.62D-09
 IDIUse=1 WtCom= 1.00D+00 WtEn= 0.00D+00
 Coeff-Com:  0.208D-02-0.293D-01-0.273D-01 0.205D-01 0.277D+00 0.758D+00
 Coeff:      0.208D-02-0.293D-01-0.273D-01 0.205D-01 0.277D+00 0.758D+00
 Gap=     0.264 Goal=   None    Shift=    0.000
 RMSDP=7.98D-08 MaxDP=3.24D-06 DE=-6.61D-09 OVMax= 1.67D-05

 Cycle  14  Pass 1  IDiag  1:
 RMSU=  3.54D-08    CP:  1.00D+00  1.06D+00  6.62D-01  1.22D+00  1.10D+00
                    CP:  1.04D+00
 FoFJK:  IHMeth= 1 ICntrl=     0 DoSepK=T KAlg= 1 I1Cent= 0 FoldK=F
 E= -1581.52429792863     Delta-E=       -0.000000001079 Rises=F Damp=F
 DIIS: error= 2.95D-07 at cycle   7 NSaved=   7.
 NSaved= 7 IEnMin= 7 EnMin= -1581.52429792863     IErMin= 7 ErrMin= 2.95D-07
 ErrMax= 2.95D-07 EMaxC= 1.00D-01 BMatC= 1.09D-10 BMatP= 5.40D-10
 IDIUse=1 WtCom= 1.00D+00 WtEn= 0.00D+00
 Coeff-Com:  0.826D-03-0.428D-02-0.883D-02-0.539D-01-0.378D-01 0.296D+00
 Coeff-Com:  0.808D+00
 Coeff:      0.826D-03-0.428D-02-0.883D-02-0.539D-01-0.378D-01 0.296D+00
 Coeff:      0.808D+00
 Gap=     0.264 Goal=   None    Shift=    0.000
 RMSDP=4.32D-08 MaxDP=1.89D-06 DE=-1.08D-09 OVMax= 7.32D-06

 Cycle  15  Pass 1  IDiag  1:
 RMSU=  1.45D-08    CP:  1.00D+00  1.06D+00  6.66D-01  1.24D+00  1.15D+00
                    CP:  1.24D+00  1.06D+00
 FoFJK:  IHMeth= 1 ICntrl=     0 DoSepK=T KAlg= 1 I1Cent= 0 FoldK=F
 E= -1581.52429792893     Delta-E=       -0.000000000291 Rises=F Damp=F
 DIIS: error= 1.01D-07 at cycle   8 NSaved=   8.
 NSaved= 8 IEnMin= 8 EnMin= -1581.52429792893     IErMin= 8 ErrMin= 1.01D-07
 ErrMax= 1.01D-07 EMaxC= 1.00D-01 BMatC= 1.56D-11 BMatP= 1.09D-10
 IDIUse=1 WtCom= 1.00D+00 WtEn= 0.00D+00
 Coeff-Com: -0.638D-04 0.349D-02 0.161D-02-0.212D-01-0.569D-01-0.204D-01
 Coeff-Com:  0.287D+00 0.806D+00
 Coeff:     -0.638D-04 0.349D-02 0.161D-02-0.212D-01-0.569D-01-0.204D-01
 Coeff:      0.287D+00 0.806D+00
 Gap=     0.264 Goal=   None    Shift=    0.000
 RMSDP=1.66D-08 MaxDP=7.29D-07 DE=-2.91D-10 OVMax= 4.13D-06

 Cycle  16  Pass 1  IDiag  1:
 RMSU=  5.84D-09    CP:  1.00D+00  1.06D+00  6.66D-01  1.25D+00  1.17D+00
                    CP:  1.30D+00  1.25D+00  1.05D+00
 FoFJK:  IHMeth= 1 ICntrl=     0 DoSepK=T KAlg= 1 I1Cent= 0 FoldK=F
 E= -1581.52429792892     Delta-E=        0.000000000005 Rises=F Damp=F
 DIIS: error= 4.36D-08 at cycle   9 NSaved=   9.
 NSaved= 9 IEnMin= 8 EnMin= -1581.52429792893     IErMin= 9 ErrMin= 4.36D-08
 ErrMax= 4.36D-08 EMaxC= 1.00D-01 BMatC= 2.79D-12 BMatP= 1.56D-11
 IDIUse=1 WtCom= 1.00D+00 WtEn= 0.00D+00
 Coeff-Com: -0.155D-03 0.200D-02 0.209D-02 0.740D-03-0.165D-01-0.595D-01
 Coeff-Com: -0.327D-01 0.284D+00 0.820D+00
 Coeff:     -0.155D-03 0.200D-02 0.209D-02 0.740D-03-0.165D-01-0.595D-01
 Coeff:     -0.327D-01 0.284D+00 0.820D+00
 Gap=     0.264 Goal=   None    Shift=    0.000
 RMSDP=7.20D-09 MaxDP=2.75D-07 DE= 4.55D-12 OVMax= 1.69D-06

 SCF Done:  E(RwB97XD) =  -1581.52429793     A.U. after   16 cycles
             Convg  =    0.7197D-08             -V/T =  2.0109
 KE= 1.564430856748D+03 PE=-1.110629919938D+04 EE= 4.241574571033D+03
 Leave Link  502 at Tue Mar  3 10:29:05 2020, MaxMem= 2684354560 cpu:    1245.8
 (Enter /opt/g09gh/gaussian/g09/l601.exe)
 Copying SCF densities to generalized density rwf, IOpCl= 0 IROHF=0.

 **********************************************************************

            Population analysis using the SCF density.

 **********************************************************************

 Orbital symmetries:
       Occupied  (A) (A) (A) (A) (A) (A) (A) (A) (A) (A) (A) (A)
                 (A) (A) (A) (A) (A) (A) (A) (A) (A) (A) (A) (A)
                 (A) (A) (A) (A) (A) (A) (A) (A) (A) (A) (A) (A)
                 (A) (A) (A) (A) (A) (A) (A) (A) (A) (A) (A) (A)
                 (A) (A) (A) (A) (A) (A) (A) (A) (A) (A) (A) (A)
                 (A) (A) (A) (A) (A) (A) (A) (A) (A) (A) (A) (A)
                 (A) (A) (A) (A) (A) (A) (A) (A) (A) (A) (A) (A)
                 (A) (A) (A) (A) (A) (A) (A) (A) (A) (A) (A) (A)
                 (A) (A) (A) (A) (A) (A) (A) (A) (A) (A) (A) (A)
                 (A) (A) (A) (A) (A) (A) (A) (A) (A) (A) (A) (A)
                 (A) (A) (A) (A) (A) (A) (A) (A) (A) (A) (A)
       Virtual   (A) (A) (A) (A) (A) (A) (A) (A) (A) (A) (A) (A)
                 (A) (A) (A) (A) (A) (A) (A) (A) (A) (A) (A) (A)
                 (A) (A) (A) (A) (A) (A) (A) (A) (A) (A) (A) (A)
                 (A) (A) (A) (A) (A) (A) (A) (A) (A) (A) (A) (A)
                 (A) (A) (A) (A) (A) (A) (A) (A) (A) (A) (A) (A)
                 (A) (A) (A) (A) (A) (A) (A) (A) (A) (A) (A) (A)
                 (A) (A) (A) (A) (A) (A) (A) (A) (A) (A) (A) (A)
                 (A) (A) (A) (A) (A) (A) (A) (A) (A) (A) (A) (A)
                 (A) (A) (A) (A) (A) (A) (A) (A) (A) (A) (A) (A)
                 (A) (A) (A) (A) (A) (A) (A) (A) (A) (A) (A) (A)
                 (A) (A) (A) (A) (A) (A) (A) (A) (A) (A) (A) (A)
                 (A) (A) (A) (A) (A) (A) (A) (A) (A) (A) (A) (A)
                 (A) (A) (A) (A) (A) (A) (A) (A) (A) (A) (A) (A)
                 (A) (A) (A) (A) (A) (A) (A) (A) (A) (A) (A) (A)
                 (A) (A) (A) (A) (A) (A) (A) (A) (A) (A) (A) (A)
                 (A) (A) (A) (A) (A) (A) (A) (A) (A) (A) (A) (A)
                 (A) (A) (A) (A) (A) (A) (A) (A) (A) (A) (A) (A)
                 (A) (A) (A) (A) (A) (A) (A) (A) (A) (A) (A) (A)
                 (A) (A) (A) (A) (A) (A) (A) (A) (A) (A) (A) (A)
                 (A) (A) (A) (A) (A) (A) (A) (A) (A) (A) (A) (A)
                 (A) (A) (A) (A) (A) (A) (A) (A) (A) (A) (A) (A)
                 (A) (A) (A) (A) (A) (A) (A) (A) (A) (A) (A) (A)
                 (A) (A) (A) (A) (A) (A) (A) (A) (A) (A) (A) (A)
                 (A) (A) (A) (A) (A) (A) (A) (A) (A) (A) (A) (A)
                 (A) (A) (A) (A) (A) (A) (A) (A) (A) (A) (A) (A)
                 (A) (A) (A) (A) (A) (A) (A) (A) (A) (A) (A) (A)
                 (A) (A) (A) (A) (A) (A) (A) (A) (A) (A) (A) (A)
                 (A) (A) (A) (A) (A) (A) (A) (A) (A) (A) (A) (A)
                 (A) (A) (A) (A) (A) (A) (A) (A) (A) (A) (A) (A)
                 (A) (A) (A) (A) (A) (A) (A) (A) (A) (A) (A) (A)
                 (A) (A) (A) (A) (A) (A) (A) (A) (A) (A) (A) (A)
                 (A) (A) (A) (A) (A) (A) (A) (A) (A) (A) (A) (A)
                 (A) (A) (A) (A) (A) (A) (A) (A) (A) (A) (A) (A)
                 (A) (A) (A) (A) (A) (A) (A) (A) (A) (A) (A) (A)
                 (A) (A) (A) (A) (A) (A) (A) (A) (A) (A) (A) (A)
                 (A) (A) (A) (A) (A) (A) (A) (A) (A) (A) (A) (A)
                 (A) (A) (A) (A) (A) (A) (A) (A) (A) (A) (A) (A)
                 (A) (A) (A) (A) (A) (A) (A) (A) (A) (A) (A) (A)
                 (A) (A) (A) (A) (A) (A) (A) (A) (A) (A) (A) (A)
                 (A) (A) (A) (A) (A) (A) (A) (A) (A) (A) (A) (A)
                 (A) (A) (A) (A) (A) (A)
 The electronic state is 1-A.
 Alpha  occ. eigenvalues --  -19.23885 -14.49368 -14.48751 -14.46814 -14.45536
 Alpha  occ. eigenvalues --  -14.45154 -14.45041 -14.44766 -10.41390 -10.41030
 Alpha  occ. eigenvalues --  -10.37518 -10.36916 -10.36178 -10.35937 -10.35896
 Alpha  occ. eigenvalues --  -10.35869 -10.35372 -10.35314 -10.34498 -10.34137
 Alpha  occ. eigenvalues --  -10.33858 -10.33371 -10.33122 -10.32413 -10.32393
 Alpha  occ. eigenvalues --  -10.32186 -10.31891 -10.31712 -10.31564 -10.31502
 Alpha  occ. eigenvalues --  -10.31446 -10.31395 -10.31101 -10.30470 -10.30264
 Alpha  occ. eigenvalues --  -10.30007 -10.29582  -1.14032  -1.11177  -1.04404
 Alpha  occ. eigenvalues --   -1.03842  -1.03664  -1.03068  -0.99689  -0.99560
 Alpha  occ. eigenvalues --   -0.96624  -0.94598  -0.91570  -0.88842  -0.88230
 Alpha  occ. eigenvalues --   -0.86605  -0.86209  -0.85530  -0.83846  -0.83782
 Alpha  occ. eigenvalues --   -0.82175  -0.79540  -0.78074  -0.77155  -0.75563
 Alpha  occ. eigenvalues --   -0.73023  -0.72547  -0.72038  -0.71664  -0.71041
 Alpha  occ. eigenvalues --   -0.70642  -0.69644  -0.68420  -0.66427  -0.64413
 Alpha  occ. eigenvalues --   -0.63350  -0.62405  -0.61214  -0.60965  -0.59839
 Alpha  occ. eigenvalues --   -0.58564  -0.57897  -0.56957  -0.56438  -0.55992
 Alpha  occ. eigenvalues --   -0.55745  -0.55215  -0.54873  -0.54387  -0.54269
 Alpha  occ. eigenvalues --   -0.53418  -0.52993  -0.52768  -0.52338  -0.51528
 Alpha  occ. eigenvalues --   -0.51442  -0.51168  -0.51025  -0.50580  -0.50344
 Alpha  occ. eigenvalues --   -0.50170  -0.49937  -0.49085  -0.48918  -0.48611
 Alpha  occ. eigenvalues --   -0.47283  -0.47124  -0.46567  -0.46376  -0.45464
 Alpha  occ. eigenvalues --   -0.45160  -0.44809  -0.44511  -0.44063  -0.43863
 Alpha  occ. eigenvalues --   -0.43536  -0.42815  -0.42302  -0.40770  -0.40544
 Alpha  occ. eigenvalues --   -0.39904  -0.38236  -0.37849  -0.36472  -0.35927
 Alpha  occ. eigenvalues --   -0.34653  -0.34330  -0.34266  -0.33610  -0.32847
 Alpha  occ. eigenvalues --   -0.32550  -0.32417  -0.31364  -0.29570  -0.27978
 Alpha  occ. eigenvalues --   -0.26249
 Alpha virt. eigenvalues --    0.00166   0.02414   0.03819   0.05260   0.05339
 Alpha virt. eigenvalues --    0.07116   0.07705   0.07897   0.09788   0.09994
 Alpha virt. eigenvalues --    0.12363   0.13102   0.13760   0.15511   0.16085
 Alpha virt. eigenvalues --    0.16538   0.17484   0.18474   0.18658   0.19521
 Alpha virt. eigenvalues --    0.19752   0.20229   0.20688   0.21622   0.22240
 Alpha virt. eigenvalues --    0.22743   0.22921   0.23084   0.23284   0.23516
 Alpha virt. eigenvalues --    0.23684   0.24396   0.24900   0.25056   0.25290
 Alpha virt. eigenvalues --    0.25663   0.25927   0.26048   0.26338   0.26537
 Alpha virt. eigenvalues --    0.27162   0.27550   0.28291   0.28339   0.28698
 Alpha virt. eigenvalues --    0.29089   0.29193   0.30071   0.30436   0.31213
 Alpha virt. eigenvalues --    0.31537   0.31961   0.32176   0.32710   0.32897
 Alpha virt. eigenvalues --    0.33651   0.34092   0.35101   0.36041   0.37700
 Alpha virt. eigenvalues --    0.37849   0.38024   0.38839   0.39218   0.39309
 Alpha virt. eigenvalues --    0.39718   0.40430   0.40950   0.41237   0.41524
 Alpha virt. eigenvalues --    0.43333   0.44349   0.44769   0.46232   0.46836
 Alpha virt. eigenvalues --    0.48560   0.49622   0.51508   0.52845   0.54047
 Alpha virt. eigenvalues --    0.55488   0.56158   0.56719   0.57709   0.58041
 Alpha virt. eigenvalues --    0.58532   0.58913   0.59341   0.60067   0.60286
 Alpha virt. eigenvalues --    0.60546   0.61145   0.61282   0.61446   0.61982
 Alpha virt. eigenvalues --    0.62387   0.62652   0.62767   0.63801   0.64012
 Alpha virt. eigenvalues --    0.64275   0.64887   0.64954   0.65389   0.65646
 Alpha virt. eigenvalues --    0.65914   0.66248   0.66264   0.66504   0.66623
 Alpha virt. eigenvalues --    0.67016   0.67252   0.67726   0.67941   0.68322
 Alpha virt. eigenvalues --    0.68850   0.68967   0.69157   0.69800   0.70189
 Alpha virt. eigenvalues --    0.70328   0.70993   0.71169   0.71884   0.71960
 Alpha virt. eigenvalues --    0.72248   0.72701   0.73000   0.73291   0.73568
 Alpha virt. eigenvalues --    0.74225   0.75014   0.76105   0.76457   0.77192
 Alpha virt. eigenvalues --    0.77386   0.77644   0.78433   0.78920   0.79330
 Alpha virt. eigenvalues --    0.80009   0.80419   0.81060   0.81615   0.82745
 Alpha virt. eigenvalues --    0.83804   0.83992   0.84231   0.84796   0.85232
 Alpha virt. eigenvalues --    0.85947   0.86896   0.87156   0.88107   0.88301
 Alpha virt. eigenvalues --    0.88511   0.88796   0.89588   0.90136   0.90545
 Alpha virt. eigenvalues --    0.90894   0.91409   0.92022   0.92197   0.92424
 Alpha virt. eigenvalues --    0.92857   0.93344   0.93651   0.93801   0.94100
 Alpha virt. eigenvalues --    0.94474   0.95183   0.95426   0.95460   0.95708
 Alpha virt. eigenvalues --    0.96704   0.97280   0.97598   0.97655   0.97738
 Alpha virt. eigenvalues --    0.97900   0.98797   0.99352   0.99958   1.00103
 Alpha virt. eigenvalues --    1.00404   1.00667   1.00952   1.01586   1.02102
 Alpha virt. eigenvalues --    1.02589   1.02899   1.03854   1.03995   1.04940
[...]
                 (A) (A) (A) (A) (A) (A) (A) (A) (A) (A) (A) (A)
                 (A) (A) (A) (A) (A) (A) (A) (A) (A) (A) (A) (A)
                 (A) (A) (A) (A) (A) (A) (A) (A) (A) (A) (A) (A)
                 (A) (A) (A) (A) (A) (A) (A) (A) (A) (A) (A) (A)
                 (A) (A) (A) (A) (A) (A) (A) (A) (A) (A) (A) (A)
                 (A) (A) (A) (A) (A) (A) (A) (A) (A) (A) (A) (A)
                 (A) (A) (A) (A) (A) (A) (A) (A) (A) (A) (A) (A)
                 (A) (A) (A) (A) (A) (A) (A) (A) (A) (A) (A) (A)
                 (A) (A) (A) (A) (A) (A) (A) (A) (A) (A) (A) (A)
                 (A) (A) (A) (A) (A) (A) (A) (A) (A) (A) (A) (A)
                 (A) (A) (A) (A) (A) (A) (A) (A) (A) (A) (A) (A)
                 (A) (A) (A) (A) (A) (A) (A) (A) (A) (A) (A) (A)
                 (A) (A) (A) (A) (A) (A) (A) (A) (A) (A) (A) (A)
                 (A) (A) (A) (A) (A) (A) (A) (A) (A) (A) (A) (A)
                 (A) (A) (A) (A) (A) (A) (A) (A) (A) (A) (A) (A)
                 (A) (A) (A) (A) (A) (A) (A) (A) (A) (A) (A) (A)
                 (A) (A) (A) (A) (A) (A) (A) (A) (A) (A) (A) (A)
                 (A) (A) (A) (A) (A) (A) (A) (A) (A) (A) (A) (A)
                 (A) (A) (A) (A) (A) (A) (A) (A) (A) (A) (A) (A)
                 (A) (A) (A) (A) (A) (A) (A) (A) (A) (A) (A) (A)
                 (A) (A) (A) (A) (A) (A) (A) (A) (A) (A) (A) (A)
                 (A) (A) (A) (A) (A) (A) (A) (A) (A) (A) (A) (A)
                 (A) (A) (A) (A) (A) (A) (A) (A) (A) (A) (A) (A)
                 (A) (A) (A) (A) (A) (A) (A) (A) (A) (A) (A) (A)
                 (A) (A) (A) (A) (A) (A) (A) (A) (A) (A) (A) (A)
                 (A) (A) (A) (A) (A) (A) (A) (A) (A) (A) (A) (A)
                 (A) (A) (A) (A) (A) (A) (A) (A) (A) (A) (A) (A)
                 (A) (A) (A) (A) (A) (A) (A) (A) (A) (A) (A) (A)
                 (A) (A) (A) (A) (A) (A) (A) (A) (A) (A) (A) (A)
                 (A) (A) (A) (A) (A) (A) (A) (A) (A) (A) (A) (A)
                 (A) (A) (A) (A) (A) (A) (A) (A) (A) (A) (A) (A)
                 (A) (A) (A) (A) (A) (A) (A) (A) (A) (A) (A) (A)
                 (A) (A) (A) (A) (A) (A)
 The electronic state is 1-A.
 Alpha  occ. eigenvalues --  -19.23556 -14.48722 -14.48568 -14.45461 -14.44977
 Alpha  occ. eigenvalues --  -14.44766 -14.44137 -14.43887 -10.41116 -10.40304
 Alpha  occ. eigenvalues --  -10.36857 -10.35717 -10.34350 -10.33983 -10.33482
 Alpha  occ. eigenvalues --  -10.32916 -10.32838 -10.32722 -10.32243 -10.31837
 Alpha  occ. eigenvalues --  -10.31574 -10.31414 -10.31339 -10.31311 -10.31297
 Alpha  occ. eigenvalues --  -10.31274 -10.31169 -10.31106 -10.30973 -10.30726
 Alpha  occ. eigenvalues --  -10.30583 -10.30492 -10.30243 -10.29845 -10.29421
 Alpha  occ. eigenvalues --  -10.28841 -10.28340  -1.13695  -1.11703  -1.04647
 Alpha  occ. eigenvalues --   -1.04394  -1.04049  -1.03464  -1.00137  -1.00023
 Alpha  occ. eigenvalues --   -0.96429  -0.94465  -0.91892  -0.88887  -0.88039
 Alpha  occ. eigenvalues --   -0.86392  -0.86119  -0.85845  -0.85004  -0.83467
 Alpha  occ. eigenvalues --   -0.82346  -0.79696  -0.78120  -0.77203  -0.75695
 Alpha  occ. eigenvalues --   -0.73775  -0.73098  -0.72603  -0.71673  -0.71038
 Alpha  occ. eigenvalues --   -0.70627  -0.69356  -0.68046  -0.66243  -0.64617
 Alpha  occ. eigenvalues --   -0.64071  -0.62982  -0.62089  -0.60746  -0.59869
 Alpha  occ. eigenvalues --   -0.58435  -0.57890  -0.56934  -0.56375  -0.55760
 Alpha  occ. eigenvalues --   -0.55570  -0.55416  -0.54931  -0.54689  -0.54306
 Alpha  occ. eigenvalues --   -0.54048  -0.53541  -0.53293  -0.52909  -0.52324
 Alpha  occ. eigenvalues --   -0.51326  -0.51263  -0.50941  -0.50650  -0.50494
 Alpha  occ. eigenvalues --   -0.50266  -0.49625  -0.49164  -0.48818  -0.48575
 Alpha  occ. eigenvalues --   -0.47283  -0.47189  -0.46797  -0.46459  -0.45868
 Alpha  occ. eigenvalues --   -0.45412  -0.45207  -0.44747  -0.44207  -0.43766
 Alpha  occ. eigenvalues --   -0.43346  -0.42640  -0.42508  -0.41969  -0.41446
 Alpha  occ. eigenvalues --   -0.41369  -0.40931  -0.39490  -0.37745  -0.36534
 Alpha  occ. eigenvalues --   -0.34521  -0.34376  -0.33745  -0.33305  -0.32953
 Alpha  occ. eigenvalues --   -0.32255  -0.32165  -0.31175  -0.28988  -0.27016
 Alpha  occ. eigenvalues --   -0.25577
 Alpha virt. eigenvalues --    0.00605   0.03183   0.04123   0.05506   0.06078
 Alpha virt. eigenvalues --    0.08110   0.08592   0.10657   0.14269   0.15048
 Alpha virt. eigenvalues --    0.16204   0.16663   0.16933   0.18005   0.18857
 Alpha virt. eigenvalues --    0.19193   0.19647   0.20238   0.20553   0.21049
 Alpha virt. eigenvalues --    0.21432   0.21923   0.22410   0.22942   0.23295
 Alpha virt. eigenvalues --    0.23386   0.23793   0.23943   0.24688   0.24965
 Alpha virt. eigenvalues --    0.25321   0.25833   0.26030   0.26208   0.26728
 Alpha virt. eigenvalues --    0.27231   0.27455   0.27857   0.28153   0.28534
 Alpha virt. eigenvalues --    0.28969   0.29034   0.29394   0.29651   0.30328
 Alpha virt. eigenvalues --    0.30957   0.31414   0.31420   0.32043   0.32383
 Alpha virt. eigenvalues --    0.32956   0.33266   0.33369   0.33980   0.34356
 Alpha virt. eigenvalues --    0.35019   0.35334   0.36183   0.37629   0.37731
 Alpha virt. eigenvalues --    0.38467   0.38993   0.39809   0.40263   0.40522
 Alpha virt. eigenvalues --    0.41058   0.41714   0.42263   0.42378   0.42630
 Alpha virt. eigenvalues --    0.44075   0.45194   0.46313   0.47405   0.47824
 Alpha virt. eigenvalues --    0.48862   0.50045   0.51294   0.53097   0.54777
 Alpha virt. eigenvalues --    0.56417   0.57011   0.57589   0.57874   0.58307
 Alpha virt. eigenvalues --    0.59195   0.59593   0.59956   0.60290   0.60764
 Alpha virt. eigenvalues --    0.61194   0.61628   0.61790   0.62468   0.62914
 Alpha virt. eigenvalues --    0.63199   0.63324   0.63847   0.64563   0.64972
 Alpha virt. eigenvalues --    0.65126   0.65420   0.65607   0.65945   0.66335
 Alpha virt. eigenvalues --    0.66656   0.66867   0.66993   0.67130   0.67398
 Alpha virt. eigenvalues --    0.67809   0.68271   0.68992   0.69144   0.69340
 Alpha virt. eigenvalues --    0.69966   0.70336   0.70578   0.70958   0.71204
 Alpha virt. eigenvalues --    0.71780   0.71858   0.72497   0.72606   0.73320
 Alpha virt. eigenvalues --    0.73448   0.73819   0.74291   0.75300   0.75452
 Alpha virt. eigenvalues --    0.76060   0.76628   0.76788   0.77684   0.78339
 Alpha virt. eigenvalues --    0.78765   0.78777   0.80543   0.80704   0.81472
 Alpha virt. eigenvalues --    0.82433   0.82677   0.83319   0.83473   0.84102
 Alpha virt. eigenvalues --    0.85036   0.85475   0.85768   0.86944   0.88502
 Alpha virt. eigenvalues --    0.88699   0.88889   0.89718   0.89992   0.90285
 Alpha virt. eigenvalues --    0.90457   0.90777   0.91237   0.91409   0.92745
 Alpha virt. eigenvalues --    0.93092   0.93119   0.93448   0.93799   0.93996
 Alpha virt. eigenvalues --    0.94245   0.94899   0.95077   0.95218   0.95283
 Alpha virt. eigenvalues --    0.95659   0.96297   0.97128   0.97556   0.98078
 Alpha virt. eigenvalues --    0.98411   0.98696   0.98825   0.99652   1.00069
 Alpha virt. eigenvalues --    1.00548   1.00894   1.01105   1.01679   1.01878
 Alpha virt. eigenvalues --    1.02217   1.03074   1.03860   1.04018   1.04533
 Alpha virt. eigenvalues --    1.05545   1.05705   1.06157   1.06708   1.07494
 Alpha virt. eigenvalues --    1.07716   1.07934   1.08349   1.08746   1.09109
 Alpha virt. eigenvalues --    1.09864   1.10520   1.10796   1.11011   1.11981
 Alpha virt. eigenvalues --    1.12305   1.12661   1.13894   1.14923   1.16045
 Alpha virt. eigenvalues --    1.16274   1.16933   1.17408   1.18186   1.19000
 Alpha virt. eigenvalues --    1.20233   1.21498   1.22382   1.23731   1.23871
 Alpha virt. eigenvalues --    1.25111   1.25632   1.25919   1.26822   1.27820
 Alpha virt. eigenvalues --    1.28857   1.29602   1.30160   1.31167   1.31331
 Alpha virt. eigenvalues --    1.32366   1.33082   1.33307   1.34224   1.34497
 Alpha virt. eigenvalues --    1.36612   1.36984   1.37728   1.38012   1.39600
 Alpha virt. eigenvalues --    1.40255   1.41566   1.42149   1.43929   1.44523
 Alpha virt. eigenvalues --    1.46005   1.47363   1.47544   1.47971   1.48258
 Alpha virt. eigenvalues --    1.49423   1.49936   1.50457   1.50811   1.51501
 Alpha virt. eigenvalues --    1.53473   1.53705   1.54596   1.54667   1.54951
 Alpha virt. eigenvalues --    1.55731   1.55761   1.56170   1.56809   1.57517
 Alpha virt. eigenvalues --    1.57997   1.58422   1.59010   1.59246   1.59346
 Alpha virt. eigenvalues --    1.60130   1.60724   1.61504   1.63042   1.63269
 Alpha virt. eigenvalues --    1.63932   1.64857   1.66053   1.67145   1.67706
 Alpha virt. eigenvalues --    1.68543   1.69543   1.72625   1.74124   1.77166
 Alpha virt. eigenvalues --    1.79388   1.79973   1.81212   1.81619   1.83156
 Alpha virt. eigenvalues --    1.85146   1.85625   1.87039   1.87486   1.88018
 Alpha virt. eigenvalues --    1.88436   1.89336   1.89663   1.90749   1.91144
 Alpha virt. eigenvalues --    1.91619   1.92613   1.92849   1.93495   1.93561
 Alpha virt. eigenvalues --    1.94271   1.94827   1.96134   1.96425   1.98340
 Alpha virt. eigenvalues --    1.98483   1.99534   1.99881   2.00086   2.00714
 Alpha virt. eigenvalues --    2.01730   2.02474   2.03013   2.03698   2.04919
 Alpha virt. eigenvalues --    2.05286   2.06438   2.06908   2.07169   2.07798
 Alpha virt. eigenvalues --    2.08279   2.09082   2.09369   2.09837   2.11275
 Alpha virt. eigenvalues --    2.11739   2.12411   2.13473   2.14324   2.14774
 Alpha virt. eigenvalues --    2.15240   2.16802   2.17093   2.19870   2.20263
 Alpha virt. eigenvalues --    2.20772   2.21371   2.21470   2.22252   2.22448
 Alpha virt. eigenvalues --    2.23454   2.23815   2.24210   2.24722   2.25508
 Alpha virt. eigenvalues --    2.25767   2.26651   2.26894   2.27031   2.27475
 Alpha virt. eigenvalues --    2.28911   2.29626   2.29700   2.32711   2.33829
 Alpha virt. eigenvalues --    2.34997   2.35630   2.35806   2.36277   2.36873
 Alpha virt. eigenvalues --    2.37378   2.38673   2.38805   2.39563   2.40233
 Alpha virt. eigenvalues --    2.40752   2.41681   2.42320   2.43021   2.43378
 Alpha virt. eigenvalues --    2.43826   2.44678   2.45017   2.45548   2.46065
 Alpha virt. eigenvalues --    2.46663   2.47454   2.48332   2.49102   2.49799
 Alpha virt. eigenvalues --    2.50228   2.50754   2.52448   2.53282   2.55002
 Alpha virt. eigenvalues --    2.59505   2.60167   2.60321   2.61899   2.62596
 Alpha virt. eigenvalues --    2.64490   2.65304   2.65992   2.67290   2.67978
 Alpha virt. eigenvalues --    2.69688   2.70806   2.71307   2.72000   2.73038
 Alpha virt. eigenvalues --    2.73750   2.74326   2.74738   2.76602   2.76966
 Alpha virt. eigenvalues --    2.77586   2.77955   2.79553   2.80174   2.82327
 Alpha virt. eigenvalues --    2.82863   2.83376   2.83725   2.85193   2.85611
 Alpha virt. eigenvalues --    2.86621   2.86892   2.87599   2.88483   2.88582
 Alpha virt. eigenvalues --    2.89574   2.91579   2.92106   2.93955   2.94560
 Alpha virt. eigenvalues --    2.95522   2.96115   2.97496   3.00549   3.03158
 Alpha virt. eigenvalues --    3.04293   3.07315   3.08707   3.10574   3.11636
 Alpha virt. eigenvalues --    3.19038   3.26948   3.30030   3.38622   3.41835
 Alpha virt. eigenvalues --    3.45316   3.53291   3.57141   3.57292   4.12230
 Alpha virt. eigenvalues --    4.13653   4.16255   4.18008   4.18786   4.19076
 Alpha virt. eigenvalues --    4.20394   4.21148   4.22371   4.23400   4.25346
 Alpha virt. eigenvalues --    4.25804   4.27489   4.27809   4.30136   4.32356
 Alpha virt. eigenvalues --    4.33219   4.34314   4.37527   4.39873   4.40539
 Alpha virt. eigenvalues --    4.42595   4.44587   4.45744   4.48295   4.49425
 Alpha virt. eigenvalues --    4.50654   4.52707   4.57178   4.60042   4.62063
 Alpha virt. eigenvalues --    4.64336   4.66593   4.68343   4.80312   4.84361
 Alpha virt. eigenvalues --    4.89452
          Condensed to atoms (all electrons):
 Mulliken atomic charges:
              1
     1  C   -0.201452
     2  C   -0.158948
     3  C    0.030066
     4  C   -0.001196
     5  N   -0.435039
     6  C    0.012241
     7  C    0.296461
     8  C   -0.253088
     9  C    0.046137
    10  N   -0.493820
    11  C    0.700688
    12  N   -0.566107
    13  N   -0.790187
    14  C    0.284699
    15  C    0.122428
    16  C   -0.240673
    17  C   -0.186845
    18  C    0.351605
    19  C   -0.258315
    20  N   -0.762674
    21  C    0.588995
    22  C    0.019439
    23  C   -0.202576
    24  C   -0.216593
    25  C    0.158305
    26  C   -0.222858
    27  C   -0.174035
    28  C   -0.267473
    29  N   -0.382152
    30  C   -0.181594
    31  C   -0.184475
    32  N   -0.393824
    33  C   -0.352077
    34  C   -0.184056
    35  C   -0.186838
    36  O   -0.511649
    37  C   -0.604388
    38  H    0.175090
    39  H    0.178092
    40  H    0.197061
    41  H    0.218942
    42  H    0.178682
    43  H    0.186358
    44  H    0.366477
    45  H    0.160427
    46  H    0.212410
    47  H    0.191941
    48  H    0.363580
    49  H    0.174380
    50  H    0.162876
    51  H    0.165264
    52  H    0.199353
    53  H    0.171337
    54  H    0.170820
    55  H    0.154206
    56  H    0.159387
    57  H    0.150150
    58  H    0.175567
    59  H    0.144163
    60  H    0.162074
    61  H    0.171643
    62  H    0.156984
    63  H    0.187069
    64  H    0.159180
    65  H    0.158441
    66  H    0.184446
    67  H    0.176604
    68  H    0.188866
 Sum of Mulliken atomic charges =   0.00000
 Mulliken charges with hydrogens summed into heavy atoms:
              1
     1  C   -0.026362
     2  C    0.019144
     3  C    0.030066
     4  C    0.195865
     5  N   -0.435039
     6  C    0.231184
     7  C    0.296461
     8  C   -0.074406
     9  C    0.232495
    10  N   -0.493820
    11  C    0.700688
    12  N   -0.566107
    13  N   -0.423710
    14  C    0.284699
    15  C    0.122428
    16  C   -0.080245
    17  C    0.025565
    18  C    0.351605
    19  C   -0.066374
    20  N   -0.399094
    21  C    0.588995
    22  C    0.019439
    23  C   -0.028195
    24  C   -0.053718
    25  C    0.158305
    26  C   -0.057594
    27  C    0.025318
    28  C    0.074684
    29  N   -0.382152
    30  C    0.131999
    31  C    0.141242
    32  N   -0.393824
    33  C    0.125803
    34  C    0.159997
    35  C    0.130782
    36  O   -0.511649
    37  C   -0.054472
 Sum of Mulliken charges with hydrogens summed into heavy atoms =   0.00000
 Electronic spatial extent (au):  <R**2>=          21899.9970
 Charge=              0.0000 electrons
 Dipole moment (field-independent basis, Debye):
    X=              0.9900    Y=              5.3050    Z=              1.5277  Tot=              5.6087
 Quadrupole moment (field-independent basis, Debye-Ang):
   XX=           -192.0673   YY=           -207.5134   ZZ=           -213.4581
   XY=              0.0201   XZ=              0.3674   YZ=              1.6091
 Traceless Quadrupole moment (field-independent basis, Debye-Ang):
   XX=             12.2789   YY=             -3.1671   ZZ=             -9.1118
   XY=              0.0201   XZ=              0.3674   YZ=              1.6091
 Octapole moment (field-independent basis, Debye-Ang**2):
  XXX=            -61.3337  YYY=            196.8121  ZZZ=              1.4030  XYY=            -26.3123
  XXY=            -15.8489  XXZ=            -36.0187  XZZ=             40.3084  YZZ=             -7.1292
  YYZ=              6.1604  XYZ=              3.0714
 Hexadecapole moment (field-independent basis, Debye-Ang**3):
 XXXX=         -19811.1828 YYYY=          -8338.3070 ZZZZ=           -884.7691 XXXY=            355.3827
 XXXZ=            -61.0320 YYYX=           -126.6350 YYYZ=             70.8809 ZZZX=              2.1549
 ZZZY=              6.6147 XXYY=          -4352.2113 XXZZ=          -3472.9057 YYZZ=          -1637.8755
 XXYZ=             73.5627 YYXZ=            -14.5117 ZZXY=             -2.5899
 N-N= 3.875065347487D+03 E-N=-1.142224303129D+04  KE= 1.567151624632D+03
 No NMR shielding tensors so no spin-rotation constants.
 Leave Link  601 at Tue Mar  3 13:07:50 2020, MaxMem= 2684354560 cpu:       3.5
 (Enter /opt/g09gh/gaussian/g09/l9999.exe)
 1\1\GINC-NODE36\FOpt\RwB97XD\6-31G(d)\C29H31N7O1\BDW2292\03-Mar-2020\0
 \\#P opt=(,maxcycle=400) wB97XD/6-31G* MaxDisk=100GB\\MOLECULE0 Rotata
 ble Bond Optimization on node37.bme.utexas.edu\\0,1\C,-0.3216144548,3.
 2067936687,3.4537149044\C,1.0644671506,3.2004451403,3.3606270056\C,1.7
 076550918,2.034913263,2.9457517557\C,0.9025227061,0.9250222931,2.65286
 75332\N,-0.4258955697,0.9213907196,2.7263437578\C,-1.0249242925,2.0518
 359384,3.1204752612\C,3.1764262231,1.9324092526,2.7692290171\C,4.10307
 75557,2.7887072922,3.3614844929\C,5.4416687101,2.5502801925,3.05767556
 08\N,5.8593952182,1.5640131074,2.2726014076\C,4.8835678495,0.781411392
 9,1.7730804161\N,3.5778609924,0.9369108907,1.9754483626\N,5.3144048173
 ,-0.2566216769,0.9892827505\C,4.5717881314,-1.3290803934,0.4586295115\
 C,5.2348270618,-2.545949635,0.2082440489\C,4.478530418,-3.6030000168,-
 0.2902851237\C,3.1096619942,-3.5154847594,-0.5297313373\C,2.4763870418
 ,-2.2990411372,-0.2843754914\C,3.2148545527,-1.2087301718,0.1745565303
 \N,1.0994149685,-2.0665844767,-0.4721769639\C,0.0934949424,-2.98825867
 36,-0.6178219682\C,-1.2808256684,-2.3822669231,-0.6732097599\C,-1.5367
 070985,-1.1283210307,-1.2344376866\C,-2.833355641,-0.6314148768,-1.276
 2093914\C,-3.8990345035,-1.3592623489,-0.7438943912\C,-3.6341604989,-2
 .6166938093,-0.1965933751\C,-2.3437918469,-3.1297606015,-0.1680781064\
 C,-5.3182848114,-0.8110208723,-0.774644655\N,-5.7277527297,0.100398870
 2,0.2781710239\C,-5.2819014336,1.4851677355,0.2070441511\C,-4.03969885
 45,1.7876614801,1.0600868741\N,-4.1794147943,1.3320104969,2.4418321039
 \C,-5.0800674959,2.1429583019,3.2441938197\C,-4.4950134146,-0.09655441
 14,2.4512867348\C,-5.7556728388,-0.4269275562,1.636656751\O,0.26963398
 97,-4.1933844188,-0.6827900753\C,6.707533157,-2.7067252135,0.486990408
 6\H,-0.8537233668,4.0993048933,3.7665898309\H,1.6322993006,4.099557894
 6,3.5837771863\H,1.3748749921,-0.0055843069,2.3495055105\H,-2.11403824
 33,2.0090651176,3.1526692149\H,3.8173163692,3.5893440614,4.032327186\H
 ,6.2210235012,3.1848863992,3.4748649163\H,6.3203386352,-0.3249839318,0
 .9536595885\H,4.9769157754,-4.5497352399,-0.4827545153\H,2.5453184607,
 -4.3681612177,-0.8791437329\H,2.7235123806,-0.2636955428,0.3553254052\
 H,0.7994208096,-1.1301641671,-0.2415166499\H,-0.732335624,-0.552600130
 4,-1.6848153984\H,-3.022052953,0.3322593737,-1.7440692402\H,-4.4547021
 08,-3.2098318617,0.2006653474\H,-2.1421478621,-4.1157754466,0.23776142
 2\H,-5.4787090171,-0.2970789453,-1.7300815499\H,-6.0136425468,-1.66032
 51942,-0.7584651029\H,-5.0929860062,1.7429335303,-0.8409860604\H,-6.10
 81840682,2.129303787,0.5446678042\H,-3.8367192639,2.8659582094,1.06183
 38559\H,-3.1601229333,1.2844693092,0.6412562056\H,-6.1311486255,2.1587
 30507,2.9103851663\H,-4.7184679125,3.1776753615,3.2495289447\H,-5.0636
 004581,1.7750182372,4.2756755159\H,-4.6195836472,-0.4240809203,3.49021
 42169\H,-3.6287787971,-0.6264921027,2.0378984783\H,-6.6363547376,-0.01
 32319733,2.1507915865\H,-5.9003794339,-1.5117646182,1.59143087\H,6.950
 5592944,-2.4864883869,1.5340766576\H,7.3225943902,-2.048791684,-0.1421
 963822\H,7.02824507,-3.7320650443,0.2856998639\\Version=EM64L-G09RevA.
 02\State=1-A\HF=-1581.7640372\RMSD=5.367e-09\RMSF=3.998e-06\Dipole=-0.
 2771117,2.0852122,0.6665318\Quadrupole=9.0053065,-2.5654688,-6.4398377
 ,-1.0103243,0.9316185,1.5593651\PG=C01 [X(C29H31N7O1)]\\@


 THE SOLUTION TO A PROBLEM CHANGES THE PROBLEM.

                                 -- JOHN PEERS
           PAUL DICKSON'S "THE OFFICIAL RULES"
 Job cpu time:  0 days 16 hours 10 minutes 49.8 seconds.
 File lengths (MBytes):  RWF=    244 Int=      0 D2E=      0 Chk=     25 Scr=      1
 Normal termination of Gaussian 09 at Tue Mar  3 13:07:51 2020.
