 Entering Gaussian System, Link 0=g09
 Input=MOLECULE0-opt-29-28-25-24-217.com
 Output=MOLECULE0-opt-29-28-25-24-217.log
 Initial command:
 /opt/g09gh/gaussian/g09/l1.exe /scratch/bdw2292/Gau-MOLECULE0/Gau-52802.inp -scrdir=/scratch/bdw2292/Gau-MOLECULE0/
 Entering Link 1 = /opt/g09gh/gaussian/g09/l1.exe PID=     52803.
  
 Copyright (c) 1988,1990,1992,1993,1995,1998,2003,2009, Gaussian, Inc.
                  All Rights Reserved.
  
 This is part of the Gaussian(R) 09 program.  It is based on
 the Gaussian(R) 03 system (copyright 2003, Gaussian, Inc.),
 the Gaussian(R) 98 system (copyright 1998, Gaussian, Inc.),
 the Gaussian(R) 94 system (copyright 1995, Gaussian, Inc.),
 the Gaussian 92(TM) system (copyright 1992, Gaussian, Inc.),
 the Gaussian 90(TM) system (copyright 1990, Gaussian, Inc.),
 the Gaussian 88(TM) system (copyright 1988, Gaussian, Inc.),
 the Gaussian 86(TM) system (copyright 1986, Carnegie Mellon
 University), and the Gaussian 82(TM) system (copyright 1983,
 Carnegie Mellon University). Gaussian is a federally registered
 trademark of Gaussian, Inc.
  
 This software contains proprietary and confidential information,
 including trade secrets, belonging to Gaussian, Inc.
  
 This software is provided under written license and may be
 used, copied, transmitted, or stored only in accord with that
 written license.
  
 The following legend is applicable only to US Government
 contracts under FAR:
  
                    RESTRICTED RIGHTS LEGEND
  
 Use, reproduction and disclosure by the US Government is
 subject to restrictions as set forth in subparagraphs (a)
 and (c) of the Commercial Computer Software - Restricted
 Rights clause in FAR 52.227-19.
  
 Gaussian, Inc.
 340 Quinnipiac St., Bldg. 40, Wallingford CT 06492
  
  
 ---------------------------------------------------------------
 Warning -- This program may not be used in any manner that
 competes with the business of Gaussian, Inc. or will provide
 assistance to any competitor of Gaussian, Inc.  The licensee
 of this program is prohibited from giving any competitor of
 Gaussian, Inc. access to this program.  By using this program,
 the user acknowledges that Gaussian, Inc. is engaged in the
 business of creating and licensing software in the field of
 computational chemistry and represents and warrants to the
 licensee that it is not a competitor of Gaussian, Inc. and that
 it will not use this program in any manner prohibited above.
 ---------------------------------------------------------------
  

 Cite this work as:
 Gaussian 09, Revision A.02,
 M. J. Frisch, G. W. Trucks, H. B. Schlegel, G. E. Scuseria, 
 M. A. Robb, J. R. Cheeseman, G. Scalmani, V. Barone, B. Mennucci, 
 G. A. Petersson, H. Nakatsuji, M. Caricato, X. Li, H. P. Hratchian, 
 A. F. Izmaylov, J. Bloino, G. Zheng, J. L. Sonnenberg, M. Hada, 
 M. Ehara, K. Toyota, R. Fukuda, J. Hasegawa, M. Ishida, T. Nakajima, 
 Y. Honda, O. Kitao, H. Nakai, T. Vreven, J. A. Montgomery, Jr., 
 J. E. Peralta, F. Ogliaro, M. Bearpark, J. J. Heyd, E. Brothers, 
 K. N. Kudin, V. N. Staroverov, R. Kobayashi, J. Normand, 
 K. Raghavachari, A. Rendell, J. C. Burant, S. S. Iyengar, J. Tomasi, 
 M. Cossi, N. Rega, J. M. Millam, M. Klene, J. E. Knox, J. B. Cross, 
 V. Bakken, C. Adamo, J. Jaramillo, R. Gomperts, R. E. Stratmann, 
 O. Yazyev, A. J. Austin, R. Cammi, C. Pomelli, J. W. Ochterski, 
 R. L. Martin, K. Morokuma, V. G. Zakrzewski, G. A. Voth, 
 P. Salvador, J. J. Dannenberg, S. Dapprich, A. D. Daniels, 
 O. Farkas, J. B. Foresman, J. V. Ortiz, J. Cioslowski, 
 and D. J. Fox, Gaussian, Inc., Wallingford CT, 2009.
 
 ******************************************
 Gaussian 09:  EM64L-G09RevA.02 11-Jun-2009
                10-Mar-2020 
 ******************************************
 %RWF=/scratch/bdw2292/Gau-MOLECULE0/,100GB
 %Nosave
 %Chk=MOLECULE0-opt-29-28-25-24-217.chk
 %Mem=20GB
 %Nproc=6
 Will use up to    6 processors via shared memory.
 --------------------------------------------------
 #P opt=(,maxcycle=400) wB97XD/6-31G* MaxDisk=100GB
 --------------------------------------------------
 1/6=400,14=-1,18=20,19=15,26=3,38=1/1,3;
 2/9=110,12=2,17=6,18=5,40=1/2;
 3/5=1,6=6,7=1,11=2,16=1,25=1,30=1,71=1,74=-58/1,2,3;
 4//1;
 5/5=2,38=5/2;
 6/7=2,8=2,9=2,10=2,28=1/1;
 7//1,2,3,16;
 1/6=400,14=-1,18=20,19=15/3(2);
 2/9=110/2;
 99//99;
 2/9=110/2;
 3/5=1,6=6,7=1,11=2,16=1,25=1,30=1,71=1,74=-58/1,2,3;
 4/5=5,16=3/1;
 5/5=2,38=5/2;
 7//1,2,3,16;
 1/6=400,14=-1,18=20,19=15/3(-5);
 2/9=110/2;
 6/7=2,8=2,9=2,10=2,19=2,28=1/1;
 99/9=1/99;
 Leave Link    1 at Tue Mar 10 14:43:35 2020, MaxMem= 2684354560 cpu:       0.3
 (Enter /opt/g09gh/gaussian/g09/l101.exe)
 -----------------------------------------------------------------
 MOLECULE0 Rotatable Bond Optimization on g2-node38.bme.utexas.edu
 -----------------------------------------------------------------
 Symbolic Z-matrix:
 Charge =  0 Multiplicity = 1
 C                    -1.07197   0.95483  -7.30484 
 C                     0.31848   0.84163  -7.44343 
 C                     1.05371   0.04866  -6.53991 
 C                     0.29216  -0.61306  -5.5447 
 N                    -1.03576  -0.52422  -5.39879 
 C                    -1.69797   0.25593  -6.26633 
 C                     2.55013  -0.13395  -6.61235 
 C                     3.39122   0.37539  -7.61423 
 C                     4.74369   0.03354  -7.50096 
 N                     5.25449  -0.70806  -6.52185 
 C                     4.37804  -1.13162  -5.58711 
 N                     3.06909  -0.86589  -5.60784 
 N                     4.91789  -1.88984  -4.55815 
 C                     4.3392   -2.58013  -3.43034 
 C                     5.1015   -3.57645  -2.74836 
 C                     4.4786   -4.23808  -1.67609 
 C                     3.17529  -3.96841  -1.24183 
 C                     2.45442  -2.96472  -1.8968 
 C                     3.04411  -2.2949   -2.98058 
 N                     1.11936  -2.55024  -1.58783 
 C                     0.17859  -3.08081  -0.73705 
 C                    -1.23631  -2.54581  -0.8459 
 C                    -1.82333  -2.16022  -2.06168 
 C                    -3.12085  -1.64519  -2.08826 
 C                    -3.89629  -1.50995  -0.91687 
 C                    -3.29563  -1.9223    0.28647 
 C                    -1.99776  -2.43777   0.32801 
 C                    -5.29518  -0.89174  -1.02663 
 N                    -5.94567   0.00358  -0.04967 
 C                    -5.47525   1.40879   0.0018 
 C                    -4.50041   1.78433   1.14429 
 N                    -4.98693   1.39496   2.48886 
 C                    -5.94843   2.29902   3.13084 
 C                    -5.3242   -0.04584   2.46327 
 C                    -6.29495  -0.44585   1.31937 
 O                     0.45268  -3.93176   0.09474 
 C                     6.51381  -3.96905  -3.14697 
 H                    -1.65726   1.56672  -7.98482 
 H                     0.80155   1.38796  -8.24975 
 H                     0.78351  -1.27674  -4.84176 
 H                    -2.77628   0.31356  -6.12613 
 H                     3.04736   0.96778  -8.45324 
 H                     5.45957   0.3729   -8.24896 
 H                     5.90423  -2.02661  -4.72129 
 H                     5.02263  -5.01757  -1.14404 
 H                     2.72998  -4.50592  -0.41338 
 H                     2.49286  -1.52326  -3.49306 
 H                     0.78723  -1.7734   -2.14226 
 H                    -1.25641  -2.24449  -2.98617 
 H                    -3.5243   -1.33871  -3.05377 
 H                    -3.85337  -1.9037    1.21527 
 H                    -1.55614  -2.76545   1.26606 
 H                    -5.30953  -0.31973  -1.96679 
 H                    -5.98615  -1.74346  -1.1237 
 H                    -4.78731   1.77444  -1.30497 
 H                    -6.70495   2.30303   0.15977 
 H                    -4.23508   2.77466   1.13977 
 H                    -3.1792    0.92802   0.86974 
 H                    -6.89226   2.32963   2.575 
 H                    -5.53583   3.31331   3.18027 
 H                    -6.15118   1.96855   4.1558 
 H                    -6.04387  -0.3974    3.7758 
 H                    -4.54011  -0.51126   2.45919 
 H                    -7.66492   0.34661   1.68848 
 H                    -6.54364  -1.49098   1.32733 
 H                     7.21578  -3.1349   -3.00753 
 H                     6.56548  -4.27177  -4.20228 
 H                     6.90578  -4.81223  -2.56156 
 
 NAtoms=     68 NQM=     68 NQMF=      0 NMic=      0 NMicF=      0 NTot=     68.
                    Isotopes and Nuclear Properties:
 (Nuclear quadrupole moments (NQMom) in fm**2, nuclear magnetic moments (NMagM)
  in nuclear magnetons)

  Atom         1           2           3           4           5           6           7           8           9          10
 IAtWgt=          12          12          12          12          14          12          12          12          12          14
 AtmWgt=  12.0000000  12.0000000  12.0000000  12.0000000  14.0030740  12.0000000  12.0000000  12.0000000  12.0000000  14.0030740
 NucSpn=           0           0           0           0           2           0           0           0           0           2
 AtZEff=   0.0000000   0.0000000   0.0000000   0.0000000   0.0000000   0.0000000   0.0000000   0.0000000   0.0000000   0.0000000
 NQMom=    0.0000000   0.0000000   0.0000000   0.0000000   2.0440000   0.0000000   0.0000000   0.0000000   0.0000000   2.0440000
 NMagM=    0.0000000   0.0000000   0.0000000   0.0000000   0.4037610   0.0000000   0.0000000   0.0000000   0.0000000   0.4037610

  Atom        11          12          13          14          15          16          17          18          19          20
 IAtWgt=          12          14          14          12          12          12          12          12          12          14
 AtmWgt=  12.0000000  14.0030740  14.0030740  12.0000000  12.0000000  12.0000000  12.0000000  12.0000000  12.0000000  14.0030740
 NucSpn=           0           2           2           0           0           0           0           0           0           2
 AtZEff=   0.0000000   0.0000000   0.0000000   0.0000000   0.0000000   0.0000000   0.0000000   0.0000000   0.0000000   0.0000000
 NQMom=    0.0000000   2.0440000   2.0440000   0.0000000   0.0000000   0.0000000   0.0000000   0.0000000   0.0000000   2.0440000
 NMagM=    0.0000000   0.4037610   0.4037610   0.0000000   0.0000000   0.0000000   0.0000000   0.0000000   0.0000000   0.4037610

  Atom        21          22          23          24          25          26          27          28          29          30
 IAtWgt=          12          12          12          12          12          12          12          12          14          12
 AtmWgt=  12.0000000  12.0000000  12.0000000  12.0000000  12.0000000  12.0000000  12.0000000  12.0000000  14.0030740  12.0000000
 NucSpn=           0           0           0           0           0           0           0           0           2           0
 AtZEff=   0.0000000   0.0000000   0.0000000   0.0000000   0.0000000   0.0000000   0.0000000   0.0000000   0.0000000   0.0000000
 NQMom=    0.0000000   0.0000000   0.0000000   0.0000000   0.0000000   0.0000000   0.0000000   0.0000000   2.0440000   0.0000000
 NMagM=    0.0000000   0.0000000   0.0000000   0.0000000   0.0000000   0.0000000   0.0000000   0.0000000   0.4037610   0.0000000

  Atom        31          32          33          34          35          36          37          38          39          40
 IAtWgt=          12          14          12          12          12          16          12           1           1           1
 AtmWgt=  12.0000000  14.0030740  12.0000000  12.0000000  12.0000000  15.9949146  12.0000000   1.0078250   1.0078250   1.0078250
 NucSpn=           0           2           0           0           0           0           0           1           1           1
 AtZEff=   0.0000000   0.0000000   0.0000000   0.0000000   0.0000000   0.0000000   0.0000000   0.0000000   0.0000000   0.0000000
 NQMom=    0.0000000   2.0440000   0.0000000   0.0000000   0.0000000   0.0000000   0.0000000   0.0000000   0.0000000   0.0000000
 NMagM=    0.0000000   0.4037610   0.0000000   0.0000000   0.0000000   0.0000000   0.0000000   2.7928460   2.7928460   2.7928460

  Atom        41          42          43          44          45          46          47          48          49          50
 IAtWgt=           1           1           1           1           1           1           1           1           1           1
 AtmWgt=   1.0078250   1.0078250   1.0078250   1.0078250   1.0078250   1.0078250   1.0078250   1.0078250   1.0078250   1.0078250
 NucSpn=           1           1           1           1           1           1           1           1           1           1
 AtZEff=   0.0000000   0.0000000   0.0000000   0.0000000   0.0000000   0.0000000   0.0000000   0.0000000   0.0000000   0.0000000
 NQMom=    0.0000000   0.0000000   0.0000000   0.0000000   0.0000000   0.0000000   0.0000000   0.0000000   0.0000000   0.0000000
 NMagM=    2.7928460   2.7928460   2.7928460   2.7928460   2.7928460   2.7928460   2.7928460   2.7928460   2.7928460   2.7928460

  Atom        51          52          53          54          55          56          57          58          59          60
 IAtWgt=           1           1           1           1           1           1           1           1           1           1
 AtmWgt=   1.0078250   1.0078250   1.0078250   1.0078250   1.0078250   1.0078250   1.0078250   1.0078250   1.0078250   1.0078250
 NucSpn=           1           1           1           1           1           1           1           1           1           1
 AtZEff=   0.0000000   0.0000000   0.0000000   0.0000000   0.0000000   0.0000000   0.0000000   0.0000000   0.0000000   0.0000000
 NQMom=    0.0000000   0.0000000   0.0000000   0.0000000   0.0000000   0.0000000   0.0000000   0.0000000   0.0000000   0.0000000
 NMagM=    2.7928460   2.7928460   2.7928460   2.7928460   2.7928460   2.7928460   2.7928460   2.7928460   2.7928460   2.7928460

  Atom        61          62          63          64          65          66          67          68
 IAtWgt=           1           1           1           1           1           1           1           1
 AtmWgt=   1.0078250   1.0078250   1.0078250   1.0078250   1.0078250   1.0078250   1.0078250   1.0078250
 NucSpn=           1           1           1           1           1           1           1           1
 AtZEff=   0.0000000   0.0000000   0.0000000   0.0000000   0.0000000   0.0000000   0.0000000   0.0000000
 NQMom=    0.0000000   0.0000000   0.0000000   0.0000000   0.0000000   0.0000000   0.0000000   0.0000000
 NMagM=    2.7928460   2.7928460   2.7928460   2.7928460   2.7928460   2.7928460   2.7928460   2.7928460
 Leave Link  101 at Tue Mar 10 14:43:35 2020, MaxMem= 2684354560 cpu:       0.4
 (Enter /opt/g09gh/gaussian/g09/l103.exe)

 GradGradGradGradGradGradGradGradGradGradGradGradGradGradGradGradGradGrad
 Berny optimization.
 Initialization pass.
                           ----------------------------
                           !    Initial Parameters    !
                           ! (Angstroms and Degrees)  !
 --------------------------                            --------------------------
 ! Name  Definition              Value          Derivative Info.                !
 --------------------------------------------------------------------------------
 ! R1    R(1,2)                  1.4019         estimate D2E/DX2                !
 ! R2    R(1,6)                  1.3996         estimate D2E/DX2                !
 ! R3    R(1,38)                 1.086          estimate D2E/DX2                !
 ! R4    R(2,3)                  1.4092         estimate D2E/DX2                !
 ! R5    R(2,39)                 1.0872         estimate D2E/DX2                !
 ! R6    R(3,4)                  1.4171         estimate D2E/DX2                !
 ! R7    R(3,7)                  1.5093         estimate D2E/DX2                !
 ! R8    R(4,5)                  1.3389         estimate D2E/DX2                !
 ! R9    R(4,40)                 1.0844         estimate D2E/DX2                !
 ! R10   R(5,6)                  1.3416         estimate D2E/DX2                !
 ! R11   R(6,41)                 1.0889         estimate D2E/DX2                !
 ! R12   R(7,8)                  1.4038         estimate D2E/DX2                !
 ! R13   R(7,12)                 1.3469         estimate D2E/DX2                !
 ! R14   R(8,9)                  1.3996         estimate D2E/DX2                !
 ! R15   R(8,42)                 1.0831         estimate D2E/DX2                !
 ! R16   R(9,10)                 1.3302         estimate D2E/DX2                !
 ! R17   R(9,43)                 1.0896         estimate D2E/DX2                !
 ! R18   R(10,11)                1.3496         estimate D2E/DX2                !
 ! R19   R(11,12)                1.3358         estimate D2E/DX2                !
 ! R20   R(11,13)                1.3875         estimate D2E/DX2                !
 ! R21   R(13,14)                1.4434         estimate D2E/DX2                !
 ! R22   R(13,44)                1.0091         estimate D2E/DX2                !
 ! R23   R(14,15)                1.4279         estimate D2E/DX2                !
 ! R24   R(14,19)                1.4003         estimate D2E/DX2                !
 ! R25   R(15,16)                1.4055         estimate D2E/DX2                !
 ! R26   R(15,37)                1.5191         estimate D2E/DX2                !
 ! R27   R(16,17)                1.4            estimate D2E/DX2                !
 ! R28   R(16,45)                1.0893         estimate D2E/DX2                !
 ! R29   R(17,18)                1.3986         estimate D2E/DX2                !
 ! R30   R(17,46)                1.0833         estimate D2E/DX2                !
 ! R31   R(18,19)                1.4039         estimate D2E/DX2                !
 ! R32   R(18,20)                1.4317         estimate D2E/DX2                !
 ! R33   R(19,47)                1.0779         estimate D2E/DX2                !
 ! R34   R(20,21)                1.3749         estimate D2E/DX2                !
 ! R35   R(20,48)                1.0105         estimate D2E/DX2                !
 ! R36   R(21,22)                1.5166         estimate D2E/DX2                !
 ! R37   R(21,36)                1.2211         estimate D2E/DX2                !
 ! R38   R(22,23)                1.4041         estimate D2E/DX2                !
 ! R39   R(22,27)                1.4034         estimate D2E/DX2                !
 ! R40   R(23,24)                1.3962         estimate D2E/DX2                !
 ! R41   R(23,49)                1.0877         estimate D2E/DX2                !
 ! R42   R(24,25)                1.4113         estimate D2E/DX2                !
 ! R43   R(24,50)                1.0904         estimate D2E/DX2                !
 ! R44   R(25,26)                1.4067         estimate D2E/DX2                !
 ! R45   R(25,28)                1.5333         estimate D2E/DX2                !
 ! R46   R(26,27)                1.3971         estimate D2E/DX2                !
 ! R47   R(26,51)                1.0836         estimate D2E/DX2                !
 ! R48   R(27,52)                1.0874         estimate D2E/DX2                !
 ! R49   R(28,29)                1.4762         estimate D2E/DX2                !
 ! R50   R(28,53)                1.1006         estimate D2E/DX2                !
 ! R51   R(28,54)                1.101          estimate D2E/DX2                !
 ! R52   R(29,30)                1.4827         estimate D2E/DX2                !
 ! R53   R(29,35)                1.4827         estimate D2E/DX2                !
 ! R54   R(30,31)                1.5481         estimate D2E/DX2                !
 ! R55   R(30,55)                1.5214         estimate D2E/DX2                !
 ! R56   R(30,56)                1.5287         estimate D2E/DX2                !
 ! R57   R(31,32)                1.4819         estimate D2E/DX2                !
 ! R58   R(31,57)                1.0253         estimate D2E/DX2                !
 ! R59   R(31,58)                1.5982         estimate D2E/DX2                !
 ! R60   R(32,33)                1.4676         estimate D2E/DX2                !
 ! R61   R(32,34)                1.48           estimate D2E/DX2                !
 ! R62   R(33,59)                1.0958         estimate D2E/DX2                !
 ! R63   R(33,60)                1.0961         estimate D2E/DX2                !
 ! R64   R(33,61)                1.0958         estimate D2E/DX2                !
 ! R65   R(34,35)                1.5527         estimate D2E/DX2                !
 ! R66   R(34,62)                1.5376         estimate D2E/DX2                !
 ! R67   R(34,63)                0.9118         estimate D2E/DX2                !
 ! R68   R(35,64)                1.6251         estimate D2E/DX2                !
 ! R69   R(35,65)                1.0743         estimate D2E/DX2                !
 ! R70   R(37,66)                1.0991         estimate D2E/DX2                !
 ! R71   R(37,67)                1.0991         estimate D2E/DX2                !
 ! R72   R(37,68)                1.0988         estimate D2E/DX2                !
 ! A1    A(2,1,6)              118.4668         estimate D2E/DX2                !
 ! A2    A(2,1,38)             121.2075         estimate D2E/DX2                !
 ! A3    A(6,1,38)             120.3255         estimate D2E/DX2                !
 ! A4    A(1,2,3)              119.9695         estimate D2E/DX2                !
 ! A5    A(1,2,39)             118.2578         estimate D2E/DX2                !
 ! A6    A(3,2,39)             121.7678         estimate D2E/DX2                !
 ! A7    A(2,3,4)              115.6364         estimate D2E/DX2                !
 ! A8    A(2,3,7)              123.6851         estimate D2E/DX2                !
 ! A9    A(4,3,7)              120.6653         estimate D2E/DX2                !
 ! A10   A(3,4,5)              125.3481         estimate D2E/DX2                !
 ! A11   A(3,4,40)             119.8345         estimate D2E/DX2                !
 ! A12   A(5,4,40)             114.7939         estimate D2E/DX2                !
 ! A13   A(4,5,6)              117.2383         estimate D2E/DX2                !
 ! A14   A(1,6,5)              123.3287         estimate D2E/DX2                !
 ! A15   A(1,6,41)             120.7992         estimate D2E/DX2                !
 ! A16   A(5,6,41)             115.8695         estimate D2E/DX2                !
 ! A17   A(3,7,8)              125.7613         estimate D2E/DX2                !
 ! A18   A(3,7,12)             114.3297         estimate D2E/DX2                !
 ! A19   A(8,7,12)             119.9072         estimate D2E/DX2                !
 ! A20   A(7,8,9)              115.6326         estimate D2E/DX2                !
 ! A21   A(7,8,42)             124.1309         estimate D2E/DX2                !
 ! A22   A(9,8,42)             120.2035         estimate D2E/DX2                !
 ! A23   A(8,9,10)             124.5271         estimate D2E/DX2                !
 ! A24   A(8,9,43)             120.2173         estimate D2E/DX2                !
 ! A25   A(10,9,43)            115.2545         estimate D2E/DX2                !
 ! A26   A(9,10,11)            115.8106         estimate D2E/DX2                !
 ! A27   A(10,11,12)           124.2763         estimate D2E/DX2                !
 ! A28   A(10,11,13)           115.6255         estimate D2E/DX2                !
 ! A29   A(12,11,13)           120.0982         estimate D2E/DX2                !
 ! A30   A(7,12,11)            119.8176         estimate D2E/DX2                !
 ! A31   A(11,13,14)           133.222          estimate D2E/DX2                !
 ! A32   A(11,13,44)           109.542          estimate D2E/DX2                !
 ! A33   A(14,13,44)           116.9623         estimate D2E/DX2                !
 ! A34   A(13,14,15)           119.5284         estimate D2E/DX2                !
 ! A35   A(13,14,19)           121.6241         estimate D2E/DX2                !
 ! A36   A(15,14,19)           118.8471         estimate D2E/DX2                !
 ! A37   A(14,15,16)           117.1438         estimate D2E/DX2                !
 ! A38   A(14,15,37)           123.4595         estimate D2E/DX2                !
 ! A39   A(16,15,37)           119.3769         estimate D2E/DX2                !
 ! A40   A(15,16,17)           123.9556         estimate D2E/DX2                !
 ! A41   A(15,16,45)           119.2169         estimate D2E/DX2                !
 ! A42   A(17,16,45)           116.8249         estimate D2E/DX2                !
 ! A43   A(16,17,18)           118.2172         estimate D2E/DX2                !
 ! A44   A(16,17,46)           121.6235         estimate D2E/DX2                !
 ! A45   A(18,17,46)           120.1541         estimate D2E/DX2                !
 ! A46   A(17,18,19)           119.171          estimate D2E/DX2                !
 ! A47   A(17,18,20)           125.9696         estimate D2E/DX2                !
 ! A48   A(19,18,20)           114.845          estimate D2E/DX2                !
 ! A49   A(14,19,18)           122.6313         estimate D2E/DX2                !
 ! A50   A(14,19,47)           117.7797         estimate D2E/DX2                !
 ! A51   A(18,19,47)           119.5878         estimate D2E/DX2                !
 ! A52   A(18,20,21)           131.2917         estimate D2E/DX2                !
 ! A53   A(18,20,48)           114.245          estimate D2E/DX2                !
 ! A54   A(21,20,48)           114.2847         estimate D2E/DX2                !
 ! A55   A(20,21,22)           117.2461         estimate D2E/DX2                !
 ! A56   A(20,21,36)           122.4682         estimate D2E/DX2                !
 ! A57   A(22,21,36)           120.2745         estimate D2E/DX2                !
 ! A58   A(21,22,23)           123.3046         estimate D2E/DX2                !
 ! A59   A(21,22,27)           118.2494         estimate D2E/DX2                !
 ! A60   A(23,22,27)           118.4452         estimate D2E/DX2                !
 ! A61   A(22,23,24)           120.4183         estimate D2E/DX2                !
 ! A62   A(22,23,49)           119.7857         estimate D2E/DX2                !
 ! A63   A(24,23,49)           119.7844         estimate D2E/DX2                !
 ! A64   A(23,24,25)           122.0152         estimate D2E/DX2                !
 ! A65   A(23,24,50)           117.6706         estimate D2E/DX2                !
 ! A66   A(25,24,50)           120.313          estimate D2E/DX2                !
 ! A67   A(24,25,26)           116.5715         estimate D2E/DX2                !
 ! A68   A(24,25,28)           118.7181         estimate D2E/DX2                !
 ! A69   A(26,25,28)           124.6779         estimate D2E/DX2                !
 ! A70   A(25,26,27)           122.0223         estimate D2E/DX2                !
 ! A71   A(25,26,51)           120.5598         estimate D2E/DX2                !
 ! A72   A(27,26,51)           117.3236         estimate D2E/DX2                !
 ! A73   A(22,27,26)           120.5018         estimate D2E/DX2                !
 ! A74   A(22,27,52)           118.5585         estimate D2E/DX2                !
 ! A75   A(26,27,52)           120.9396         estimate D2E/DX2                !
 ! A76   A(25,28,29)           126.8108         estimate D2E/DX2                !
 ! A77   A(25,28,53)           106.4146         estimate D2E/DX2                !
 ! A78   A(25,28,54)           105.4836         estimate D2E/DX2                !
 ! A79   A(29,28,53)           104.1447         estimate D2E/DX2                !
 ! A80   A(29,28,54)           104.5354         estimate D2E/DX2                !
 ! A81   A(53,28,54)           108.5745         estimate D2E/DX2                !
 ! A82   A(28,29,30)           117.2552         estimate D2E/DX2                !
 ! A83   A(28,29,35)           122.0763         estimate D2E/DX2                !
 ! A84   A(30,29,35)           109.2665         estimate D2E/DX2                !
 ! A85   A(29,30,31)           117.0839         estimate D2E/DX2                !
 ! A86   A(29,30,55)           109.963          estimate D2E/DX2                !
 ! A87   A(29,30,56)           107.6237         estimate D2E/DX2                !
 ! A88   A(31,30,55)           106.9088         estimate D2E/DX2                !
 ! A89   A(31,30,56)           106.7613         estimate D2E/DX2                !
 ! A90   A(55,30,56)           108.1743         estimate D2E/DX2                !
 ! A91   A(30,31,32)           113.5228         estimate D2E/DX2                !
 ! A92   A(30,31,57)           113.2049         estimate D2E/DX2                !
 ! A93   A(30,31,58)           105.2967         estimate D2E/DX2                !
 ! A94   A(32,31,57)           110.0439         estimate D2E/DX2                !
 ! A95   A(32,31,58)           106.6479         estimate D2E/DX2                !
 ! A96   A(57,31,58)           107.6284         estimate D2E/DX2                !
 ! A97   A(31,32,33)           116.7512         estimate D2E/DX2                !
 ! A98   A(31,32,34)           108.3554         estimate D2E/DX2                !
 ! A99   A(33,32,34)           117.2555         estimate D2E/DX2                !
 ! A100  A(32,33,59)           111.0758         estimate D2E/DX2                !
 ! A101  A(32,33,60)           110.0676         estimate D2E/DX2                !
 ! A102  A(32,33,61)           110.1566         estimate D2E/DX2                !
 ! A103  A(59,33,60)           108.7387         estimate D2E/DX2                !
 ! A104  A(59,33,61)           108.8757         estimate D2E/DX2                !
 ! A105  A(60,33,61)           107.85           estimate D2E/DX2                !
 ! A106  A(32,34,35)           113.9551         estimate D2E/DX2                !
 ! A107  A(32,34,62)           108.3302         estimate D2E/DX2                !
 ! A108  A(32,34,63)           107.5191         estimate D2E/DX2                !
 ! A109  A(35,34,62)           106.1019         estimate D2E/DX2                !
 ! A110  A(35,34,63)           113.7552         estimate D2E/DX2                !
 ! A111  A(62,34,63)           106.8334         estimate D2E/DX2                !
 ! A112  A(29,35,34)           117.0574         estimate D2E/DX2                !
 ! A113  A(29,35,64)           105.0995         estimate D2E/DX2                !
 ! A114  A(29,35,65)           110.8705         estimate D2E/DX2                !
 ! A115  A(34,35,64)           103.5378         estimate D2E/DX2                !
 ! A116  A(34,35,65)           112.9477         estimate D2E/DX2                !
 ! A117  A(64,35,65)           106.1142         estimate D2E/DX2                !
 ! A118  A(15,37,66)           111.3675         estimate D2E/DX2                !
 ! A119  A(15,37,67)           111.5204         estimate D2E/DX2                !
 ! A120  A(15,37,68)           112.966          estimate D2E/DX2                !
 ! A121  A(66,37,67)           107.5072         estimate D2E/DX2                !
 ! A122  A(66,37,68)           106.6766         estimate D2E/DX2                !
 ! A123  A(67,37,68)           106.4655         estimate D2E/DX2                !
 ! D1    D(6,1,2,3)             -0.6379         estimate D2E/DX2                !
 ! D2    D(6,1,2,39)          -179.8493         estimate D2E/DX2                !
 ! D3    D(38,1,2,3)           179.5056         estimate D2E/DX2                !
 ! D4    D(38,1,2,39)            0.2942         estimate D2E/DX2                !
 ! D5    D(2,1,6,5)             -0.3649         estimate D2E/DX2                !
 ! D6    D(2,1,6,41)          -179.7584         estimate D2E/DX2                !
 ! D7    D(38,1,6,5)           179.4929         estimate D2E/DX2                !
 ! D8    D(38,1,6,41)            0.0993         estimate D2E/DX2                !
 ! D9    D(1,2,3,4)              1.2007         estimate D2E/DX2                !
 ! D10   D(1,2,3,7)            179.8841         estimate D2E/DX2                !
 ! D11   D(39,2,3,4)          -179.6163         estimate D2E/DX2                !
 ! D12   D(39,2,3,7)            -0.933          estimate D2E/DX2                !
 ! D13   D(2,3,4,5)             -0.9083         estimate D2E/DX2                !
 ! D14   D(2,3,4,40)           177.2322         estimate D2E/DX2                !
 ! D15   D(7,3,4,5)           -179.6346         estimate D2E/DX2                !
 ! D16   D(7,3,4,40)            -1.4941         estimate D2E/DX2                !
 ! D17   D(2,3,7,8)             -4.3102         estimate D2E/DX2                !
 ! D18   D(2,3,7,12)           176.1994         estimate D2E/DX2                !
 ! D19   D(4,3,7,8)            174.3097         estimate D2E/DX2                !
 ! D20   D(4,3,7,12)            -5.1806         estimate D2E/DX2                !
 ! D21   D(3,4,5,6)             -0.0265         estimate D2E/DX2                !
 ! D22   D(40,4,5,6)          -178.2497         estimate D2E/DX2                !
 ! D23   D(4,5,6,1)              0.6932         estimate D2E/DX2                !
 ! D24   D(4,5,6,41)          -179.8857         estimate D2E/DX2                !
 ! D25   D(3,7,8,9)           -177.6059         estimate D2E/DX2                !
 ! D26   D(3,7,8,42)             0.302          estimate D2E/DX2                !
 ! D27   D(12,7,8,9)             1.8584         estimate D2E/DX2                !
 ! D28   D(12,7,8,42)          179.7663         estimate D2E/DX2                !
 ! D29   D(3,7,12,11)          177.8862         estimate D2E/DX2                !
 ! D30   D(8,7,12,11)           -1.6367         estimate D2E/DX2                !
 ! D31   D(7,8,9,10)            -0.7655         estimate D2E/DX2                !
 ! D32   D(7,8,9,43)           178.822          estimate D2E/DX2                !
 ! D33   D(42,8,9,10)         -178.7618         estimate D2E/DX2                !
 ! D34   D(42,8,9,43)            0.8257         estimate D2E/DX2                !
 ! D35   D(8,9,10,11)           -0.5599         estimate D2E/DX2                !
 ! D36   D(43,9,10,11)         179.8342         estimate D2E/DX2                !
 ! D37   D(9,10,11,12)           0.8862         estimate D2E/DX2                !
 ! D38   D(9,10,11,13)        -179.1766         estimate D2E/DX2                !
 ! D39   D(10,11,12,7)           0.2092         estimate D2E/DX2                !
 ! D40   D(13,11,12,7)        -179.7254         estimate D2E/DX2                !
 ! D41   D(10,11,13,14)       -176.0793         estimate D2E/DX2                !
 ! D42   D(10,11,13,44)         -2.4586         estimate D2E/DX2                !
 ! D43   D(12,11,13,14)          3.8608         estimate D2E/DX2                !
 ! D44   D(12,11,13,44)        177.4815         estimate D2E/DX2                !
 ! D45   D(11,13,14,15)        162.8034         estimate D2E/DX2                !
 ! D46   D(11,13,14,19)        -17.416          estimate D2E/DX2                !
 ! D47   D(44,13,14,15)        -10.45           estimate D2E/DX2                !
 ! D48   D(44,13,14,19)        169.3307         estimate D2E/DX2                !
 ! D49   D(13,14,15,16)       -178.6159         estimate D2E/DX2                !
 ! D50   D(13,14,15,37)         -0.2502         estimate D2E/DX2                !
 ! D51   D(19,14,15,16)          1.5973         estimate D2E/DX2                !
 ! D52   D(19,14,15,37)        179.963          estimate D2E/DX2                !
 ! D53   D(13,14,19,18)        179.1824         estimate D2E/DX2                !
 ! D54   D(13,14,19,47)         -1.2228         estimate D2E/DX2                !
 ! D55   D(15,14,19,18)         -1.0355         estimate D2E/DX2                !
 ! D56   D(15,14,19,47)        178.5593         estimate D2E/DX2                !
 ! D57   D(14,15,16,17)         -0.5311         estimate D2E/DX2                !
 ! D58   D(14,15,16,45)        178.8519         estimate D2E/DX2                !
 ! D59   D(37,15,16,17)       -178.9665         estimate D2E/DX2                !
 ! D60   D(37,15,16,45)          0.4165         estimate D2E/DX2                !
 ! D61   D(14,15,37,66)         64.9563         estimate D2E/DX2                !
 ! D62   D(14,15,37,67)        -55.1437         estimate D2E/DX2                !
 ! D63   D(14,15,37,68)       -175.0121         estimate D2E/DX2                !
 ! D64   D(16,15,37,66)       -116.7126         estimate D2E/DX2                !
 ! D65   D(16,15,37,67)        123.1874         estimate D2E/DX2                !
 ! D66   D(16,15,37,68)          3.3189         estimate D2E/DX2                !
 ! D67   D(15,16,17,18)         -1.1618         estimate D2E/DX2                !
 ! D68   D(15,16,17,46)        179.6595         estimate D2E/DX2                !
 ! D69   D(45,16,17,18)        179.4416         estimate D2E/DX2                !
 ! D70   D(45,16,17,46)          0.263          estimate D2E/DX2                !
 ! D71   D(16,17,18,19)          1.7443         estimate D2E/DX2                !
 ! D72   D(16,17,18,20)       -179.7144         estimate D2E/DX2                !
 ! D73   D(46,17,18,19)       -179.0645         estimate D2E/DX2                !
 ! D74   D(46,17,18,20)         -0.5232         estimate D2E/DX2                !
 ! D75   D(17,18,19,14)         -0.6864         estimate D2E/DX2                !
 ! D76   D(17,18,19,47)        179.7259         estimate D2E/DX2                !
 ! D77   D(20,18,19,14)       -179.3854         estimate D2E/DX2                !
 ! D78   D(20,18,19,47)          1.0268         estimate D2E/DX2                !
 ! D79   D(17,18,20,21)         -8.3609         estimate D2E/DX2                !
 ! D80   D(17,18,20,48)        176.8564         estimate D2E/DX2                !
 ! D81   D(19,18,20,21)        170.2355         estimate D2E/DX2                !
 ! D82   D(19,18,20,48)         -4.5472         estimate D2E/DX2                !
 ! D83   D(18,20,21,22)       -168.4793         estimate D2E/DX2                !
 ! D84   D(18,20,21,36)         12.7361         estimate D2E/DX2                !
 ! D85   D(48,20,21,22)          6.3017         estimate D2E/DX2                !
 ! D86   D(48,20,21,36)       -172.4829         estimate D2E/DX2                !
 ! D87   D(20,21,22,23)         35.2095         estimate D2E/DX2                !
 ! D88   D(20,21,22,27)       -145.1192         estimate D2E/DX2                !
 ! D89   D(36,21,22,23)       -145.9779         estimate D2E/DX2                !
 ! D90   D(36,21,22,27)         33.6935         estimate D2E/DX2                !
 ! D91   D(21,22,23,24)       -178.4654         estimate D2E/DX2                !
 ! D92   D(21,22,23,49)          0.2947         estimate D2E/DX2                !
 ! D93   D(27,22,23,24)          1.8638         estimate D2E/DX2                !
 ! D94   D(27,22,23,49)       -179.376          estimate D2E/DX2                !
 ! D95   D(21,22,27,26)        178.5287         estimate D2E/DX2                !
 ! D96   D(21,22,27,52)         -1.6034         estimate D2E/DX2                !
 ! D97   D(23,22,27,26)         -1.7837         estimate D2E/DX2                !
 ! D98   D(23,22,27,52)        178.0842         estimate D2E/DX2                !
 ! D99   D(22,23,24,25)         -0.9764         estimate D2E/DX2                !
 ! D100  D(22,23,24,50)        178.6294         estimate D2E/DX2                !
 ! D101  D(49,23,24,25)       -179.7366         estimate D2E/DX2                !
 ! D102  D(49,23,24,50)         -0.1308         estimate D2E/DX2                !
 ! D103  D(23,24,25,26)         -0.0343         estimate D2E/DX2                !
 ! D104  D(23,24,25,28)        177.9898         estimate D2E/DX2                !
 ! D105  D(50,24,25,26)       -179.6299         estimate D2E/DX2                !
 ! D106  D(50,24,25,28)         -1.6058         estimate D2E/DX2                !
 ! D107  D(24,25,26,27)          0.1179         estimate D2E/DX2                !
 ! D108  D(24,25,26,51)       -176.256          estimate D2E/DX2                !
 ! D109  D(28,25,26,27)       -177.7749         estimate D2E/DX2                !
 ! D110  D(28,25,26,51)          5.8512         estimate D2E/DX2                !
 ! D111  D(24,25,28,29)       -143.1198         estimate D2E/DX2                !
 ! D112  D(24,25,28,53)        -20.5269         estimate D2E/DX2                !
 ! D113  D(24,25,28,54)         94.6987         estimate D2E/DX2                !
 ! D114  D(26,25,28,29)         34.7312         estimate D2E/DX2                !
 ! D115  D(26,25,28,53)        157.3242         estimate D2E/DX2                !
 ! D116  D(26,25,28,54)        -87.4502         estimate D2E/DX2                !
 ! D117  D(25,26,27,22)          0.8098         estimate D2E/DX2                !
 ! D118  D(25,26,27,52)       -179.0549         estimate D2E/DX2                !
 ! D119  D(51,26,27,22)        177.2954         estimate D2E/DX2                !
 ! D120  D(51,26,27,52)         -2.5693         estimate D2E/DX2                !
 ! D121  D(25,28,29,30)         74.9985         estimate D2E/DX2                !
 ! D122  D(25,28,29,35)        -64.545          estimate D2E/DX2                !
 ! D123  D(53,28,29,30)        -48.5469         estimate D2E/DX2                !
 ! D124  D(53,28,29,35)        171.9096         estimate D2E/DX2                !
 ! D125  D(54,28,29,30)       -162.4192         estimate D2E/DX2                !
 ! D126  D(54,28,29,35)         58.0373         estimate D2E/DX2                !
 ! D127  D(28,29,30,31)       -100.8911         estimate D2E/DX2                !
 ! D128  D(28,29,30,55)         21.3378         estimate D2E/DX2                !
 ! D129  D(28,29,30,56)        138.9563         estimate D2E/DX2                !
 ! D130  D(35,29,30,31)         43.4869         estimate D2E/DX2                !
 ! D131  D(35,29,30,55)        165.7158         estimate D2E/DX2                !
 ! D132  D(35,29,30,56)        -76.6657         estimate D2E/DX2                !
 ! D133  D(28,29,35,34)         99.6696         estimate D2E/DX2                !
 ! D134  D(28,29,35,64)       -146.121          estimate D2E/DX2                !
 ! D135  D(28,29,35,65)        -31.8825         estimate D2E/DX2                !
 ! D136  D(30,29,35,34)        -42.6647         estimate D2E/DX2                !
 ! D137  D(30,29,35,64)         71.5447         estimate D2E/DX2                !
 ! D138  D(30,29,35,65)       -174.2168         estimate D2E/DX2                !
 ! D139  D(29,30,31,32)        -51.9313         estimate D2E/DX2                !
 ! D140  D(29,30,31,57)       -178.3237         estimate D2E/DX2                !
 ! D141  D(29,30,31,58)         64.3631         estimate D2E/DX2                !
 ! D142  D(55,30,31,32)       -175.7275         estimate D2E/DX2                !
 ! D143  D(55,30,31,57)         57.88           estimate D2E/DX2                !
 ! D144  D(55,30,31,58)        -59.4331         estimate D2E/DX2                !
 ! D145  D(56,30,31,32)         68.6764         estimate D2E/DX2                !
 ! D146  D(56,30,31,57)        -57.716          estimate D2E/DX2                !
 ! D147  D(56,30,31,58)       -175.0292         estimate D2E/DX2                !
 ! D148  D(30,31,32,33)        -81.5767         estimate D2E/DX2                !
 ! D149  D(30,31,32,34)         53.4622         estimate D2E/DX2                !
 ! D150  D(57,31,32,33)         46.4658         estimate D2E/DX2                !
 ! D151  D(57,31,32,34)       -178.4952         estimate D2E/DX2                !
 ! D152  D(58,31,32,33)        162.9255         estimate D2E/DX2                !
 ! D153  D(58,31,32,34)        -62.0356         estimate D2E/DX2                !
 ! D154  D(31,32,33,59)         65.4145         estimate D2E/DX2                !
 ! D155  D(31,32,33,60)        -55.071          estimate D2E/DX2                !
 ! D156  D(31,32,33,61)       -173.869          estimate D2E/DX2                !
 ! D157  D(34,32,33,59)        -65.6094         estimate D2E/DX2                !
 ! D158  D(34,32,33,60)        173.9052         estimate D2E/DX2                !
 ! D159  D(34,32,33,61)         55.1072         estimate D2E/DX2                !
 ! D160  D(31,32,34,35)        -52.8887         estimate D2E/DX2                !
 ! D161  D(31,32,34,62)       -170.7222         estimate D2E/DX2                !
 ! D162  D(31,32,34,63)         74.1595         estimate D2E/DX2                !
 ! D163  D(33,32,34,35)         81.8925         estimate D2E/DX2                !
 ! D164  D(33,32,34,62)        -35.941          estimate D2E/DX2                !
 ! D165  D(33,32,34,63)       -151.0594         estimate D2E/DX2                !
 ! D166  D(32,34,35,29)         50.5134         estimate D2E/DX2                !
 ! D167  D(32,34,35,64)        -64.5648         estimate D2E/DX2                !
 ! D168  D(32,34,35,65)       -178.8931         estimate D2E/DX2                !
 ! D169  D(62,34,35,29)        169.6203         estimate D2E/DX2                !
 ! D170  D(62,34,35,64)         54.542          estimate D2E/DX2                !
 ! D171  D(62,34,35,65)        -59.7862         estimate D2E/DX2                !
 ! D172  D(63,34,35,29)        -73.2269         estimate D2E/DX2                !
 ! D173  D(63,34,35,64)        171.6949         estimate D2E/DX2                !
 ! D174  D(63,34,35,65)         57.3666         estimate D2E/DX2                !
 --------------------------------------------------------------------------------
 Trust Radius=3.00D-01 FncErr=1.00D-07 GrdErr=1.00D-06
 Number of steps in this run= 400 maximum allowed number of steps= 408.
 GradGradGradGradGradGradGradGradGradGradGradGradGradGradGradGradGradGrad

 Leave Link  103 at Tue Mar 10 14:43:35 2020, MaxMem= 2684354560 cpu:       0.1
 (Enter /opt/g09gh/gaussian/g09/l202.exe)
 Stoichiometry    C29H31N7O
 Framework group  C1[X(C29H31N7O)]
 Deg. of freedom   198
 Full point group                 C1      NOp   1
 Largest Abelian subgroup         C1      NOp   1
 Largest concise Abelian subgroup C1      NOp   1
                         Standard orientation:                         
 ---------------------------------------------------------------------
 Center     Atomic      Atomic             Coordinates (Angstroms)
 Number     Number       Type             X           Y           Z
 ---------------------------------------------------------------------
      1          6           0        1.612711    4.995729   -0.667812
      2          6           0        2.841012    4.501297   -0.207184
      3          6           0        3.065196    3.111077   -0.154840
      4          6           0        1.997638    2.300145   -0.614164
      5          7           0        0.820146    2.751455   -1.064036
      6          6           0        0.637493    4.080426   -1.080134
      7          6           0        4.354234    2.488466    0.323310
      8          6           0        5.514960    3.186383    0.692432
      9          6           0        6.609067    2.392617    1.055367
     10          7           0        6.599998    1.062664    1.081561
     11          6           0        5.433972    0.476136    0.738521
     12          7           0        4.336110    1.142564    0.371144
     13          7           0        5.423501   -0.910540    0.784322
     14          6           0        4.435711   -1.903621    0.435897
     15          6           0        4.838211   -3.260499    0.246884
     16          6           0        3.840683   -4.180029   -0.120452
     17          6           0        2.493423   -3.843091   -0.297280
     18          6           0        2.108441   -2.517324   -0.073273
     19          6           0        3.083987   -1.572098    0.281443
     20          7           0        0.781649   -1.994330   -0.198711
     21          6           0       -0.372719   -2.557007   -0.689855
     22          6           0       -1.551395   -1.631674   -0.923305
     23          6           0       -1.415042   -0.305770   -1.364644
     24          6           0       -2.540666    0.503758   -1.529373
     25          6           0       -3.846581    0.028359   -1.283741
     26          6           0       -3.960573   -1.309101   -0.862969
     27          6           0       -2.842917   -2.129858   -0.692361
     28          6           0       -5.025182    0.996044   -1.443795
     29          7           0       -6.244001    1.050566   -0.612721
     30          6           0       -6.116749    1.641352    0.741281
     31          6           0       -6.019470    0.658059    1.933034
     32          7           0       -7.101559   -0.354264    1.954431
     33          6           0       -8.388650    0.066425    2.520433
     34          6           0       -7.128984   -1.034989    0.640588
     35          6           0       -7.218187   -0.066291   -0.569590
     36          8           0       -0.474904   -3.752872   -0.914743
     37          6           0        6.274310   -3.735421    0.387218
     38          1           0        1.415516    6.062852   -0.709066
     39          1           0        3.595184    5.215208    0.114601
     40          1           0        2.113899    1.222423   -0.646196
     41          1           0       -0.328408    4.422828   -1.448247
     42          1           0        5.606156    4.265518    0.676442
     43          1           0        7.553918    2.856667    1.336564
     44          1           0        6.340055   -1.246755    1.039424
     45          1           0        4.113759   -5.220560   -0.291837
     46          1           0        1.756268   -4.582345   -0.586497
     47          1           0        2.795407   -0.547498    0.451320
     48          1           0        0.694109   -1.019845    0.054072
     49          1           0       -0.424741    0.099499   -1.560178
     50          1           0       -2.381317    1.532973   -1.852229
     51          1           0       -4.935167   -1.758727   -0.714353
     52          1           0       -2.952448   -3.165900   -0.380988
     53          1           0       -4.605902    2.011191   -1.373225
     54          1           0       -5.396274    0.840314   -2.468660
     55          1           0       -4.887777    2.535929    0.804261
     56          1           0       -7.351235    2.509221    0.985455
     57          1           0       -5.961012    1.129203    2.841766
     58          1           0       -4.651649   -0.138430    1.711919
     59          1           0       -8.853034    0.846283    1.906525
     60          1           0       -8.244117    0.456139    3.534686
     61          1           0       -9.071103   -0.788661    2.583225
     62          1           0       -8.389294   -1.913553    0.577381
     63          1           0       -6.412602   -1.598182    0.608244
     64          1           0       -8.668064    0.643600   -0.382575
     65          1           0       -7.256141   -0.577736   -1.513609
     66          1           0        6.633612   -3.624661    1.420005
     67          1           0        6.953013   -3.164558   -0.261981
     68          1           0        6.404093   -4.793256    0.119957
 ---------------------------------------------------------------------
 Rotational constants (GHZ):      0.1454618      0.0455358      0.0372281
 Leave Link  202 at Tue Mar 10 14:43:35 2020, MaxMem= 2684354560 cpu:       0.0
 (Enter /opt/g09gh/gaussian/g09/l301.exe)
 Standard basis: 6-31G(d) (6D, 7F)
 Ernie: Thresh=  0.10000D-02 Tol=  0.10000D-05 Strict=F.
 There are   617 symmetry adapted basis functions of A   symmetry.
 Integral buffers will be    131072 words long.
 Raffenetti 2 integral format.
 Two-electron integral symmetry is turned on.
   617 basis functions,  1160 primitive gaussians,   617 cartesian basis functions
   131 alpha electrons      131 beta electrons
       nuclear repulsion energy      3660.1107447154 Hartrees.
 IExCor= 4639 DFT=T Ex+Corr=wB97XD ExCW=0 ScaHFX=  1.000000
 ScaDFX=  1.000000  1.000000  1.000000  1.000000 ScalE2=  1.000000  1.000000
 IRadAn=      0 IRanWt=     -1 IRanGd=            0 ICorTp=0
  HFx wShort=  0.000000 wLong=  0.200000 cFull=  0.222036 cShort=  0.000000 cLong=  0.777964
  DFx wShort=  0.000000 wLong=  0.200000 cFull=  0.000000 cShort=  0.000000 cLong=  1.000000
 NAtoms=   68 NActive=   68 NUniq=   68 SFac= 7.50D-01 NAtFMM=   80 NAOKFM=F Big=T
 R6Disp: Dispersion energy =        -0.0558772185 Hartrees.
 Nuclear repulsion after empirical dispersion term =     3660.0548674969 Hartrees.
 Leave Link  301 at Tue Mar 10 14:43:35 2020, MaxMem= 2684354560 cpu:       0.3
 (Enter /opt/g09gh/gaussian/g09/l302.exe)
 NPDir=0 NMtPBC=     1 NCelOv=     1 NCel=       1 NClECP=     1 NCelD=      1
         NCelK=      1 NCelE2=     1 NClLst=     1 CellRange=     0.0.
 One-electron integrals computed using PRISM.
 NBasis=   617 RedAO= T  NBF=   617
 NBsUse=   617 1.00D-06 NBFU=   617
 Precomputing XC quadrature grid using
 IXCGrd= 2 IRadAn=           0 IRanWt=          -1 IRanGd=           0 AccXCQ= 1.00D-10.
 NRdTot=    4400 NPtTot=      562590 NUsed=      594287 NTot=      594319
 NSgBfM=   591   591   591   591   591 NAtAll=    68    68.
 Leave Link  302 at Tue Mar 10 14:43:36 2020, MaxMem= 2684354560 cpu:       7.8
 (Enter /opt/g09gh/gaussian/g09/l303.exe)
 DipDrv:  MaxL=1.
 Leave Link  303 at Tue Mar 10 14:43:37 2020, MaxMem= 2684354560 cpu:       0.6
 (Enter /opt/g09gh/gaussian/g09/l401.exe)
 Harris functional with IExCor= 4639 diagonalized for initial guess.
 ExpMin= 1.61D-01 ExpMax= 5.48D+03 ExpMxC= 8.25D+02 IAcc=1 IRadAn=         1 AccDes= 0.00D+00
 HarFok:  IExCor= 4639 AccDes= 0.00D+00 IRadAn=         1 IDoV= 1
 ScaDFX=  1.000000  1.000000  1.000000  1.000000
 FoFCou: FMM=F IPFlag=           0 FMFlag=      100000 FMFlg1=           1
         NFxFlg=           0 DoJE=T BraDBF=F KetDBF=T FulRan=T
         Omega=  0.000000  0.000000  1.000000  0.000000  0.000000 ICntrl=     500 IOpCl=  0
         NMat0=    1 NMatS0=    1 NMatT0=    0 NMatD0=    1 NMtDS0=    0 NMtDT0=    0
         I1Cent=           4 NGrid=           0.
 Petite list used in FoFCou.
 Harris En= -1512.29703326720    
 Initial guess orbital symmetries:
       Occupied  (A) (A) (A) (A) (A) (A) (A) (A) (A) (A) (A) (A)
                 (A) (A) (A) (A) (A) (A) (A) (A) (A) (A) (A) (A)
                 (A) (A) (A) (A) (A) (A) (A) (A) (A) (A) (A) (A)
                 (A) (A) (A) (A) (A) (A) (A) (A) (A) (A) (A) (A)
                 (A) (A) (A) (A) (A) (A) (A) (A) (A) (A) (A) (A)
                 (A) (A) (A) (A) (A) (A) (A) (A) (A) (A) (A) (A)
                 (A) (A) (A) (A) (A) (A) (A) (A) (A) (A) (A) (A)
                 (A) (A) (A) (A) (A) (A) (A) (A) (A) (A) (A) (A)
                 (A) (A) (A) (A) (A) (A) (A) (A) (A) (A) (A) (A)
                 (A) (A) (A) (A) (A) (A) (A) (A) (A) (A) (A) (A)
                 (A) (A) (A) (A) (A) (A) (A) (A) (A) (A) (A)
       Virtual   (A) (A) (A) (A) (A) (A) (A) (A) (A) (A) (A) (A)
                 (A) (A) (A) (A) (A) (A) (A) (A) (A) (A) (A) (A)
                 (A) (A) (A) (A) (A) (A) (A) (A) (A) (A) (A) (A)
                 (A) (A) (A) (A) (A) (A) (A) (A) (A) (A) (A) (A)
                 (A) (A) (A) (A) (A) (A) (A) (A) (A) (A) (A) (A)
                 (A) (A) (A) (A) (A) (A) (A) (A) (A) (A) (A) (A)
                 (A) (A) (A) (A) (A) (A) (A) (A) (A) (A) (A) (A)
                 (A) (A) (A) (A) (A) (A) (A) (A) (A) (A) (A) (A)
                 (A) (A) (A) (A) (A) (A) (A) (A) (A) (A) (A) (A)
                 (A) (A) (A) (A) (A) (A) (A) (A) (A) (A) (A) (A)
                 (A) (A) (A) (A) (A) (A) (A) (A) (A) (A) (A) (A)
                 (A) (A) (A) (A) (A) (A) (A) (A) (A) (A) (A) (A)
                 (A) (A) (A) (A) (A) (A) (A) (A) (A) (A) (A) (A)
                 (A) (A) (A) (A) (A) (A) (A) (A) (A) (A) (A) (A)
                 (A) (A) (A) (A) (A) (A) (A) (A) (A) (A) (A) (A)
                 (A) (A) (A) (A) (A) (A) (A) (A) (A) (A) (A) (A)
                 (A) (A) (A) (A) (A) (A) (A) (A) (A) (A) (A) (A)
                 (A) (A) (A) (A) (A) (A) (A) (A) (A) (A) (A) (A)
                 (A) (A) (A) (A) (A) (A) (A) (A) (A) (A) (A) (A)
                 (A) (A) (A) (A) (A) (A) (A) (A) (A) (A) (A) (A)
                 (A) (A) (A) (A) (A) (A) (A) (A) (A) (A) (A) (A)
                 (A) (A) (A) (A) (A) (A) (A) (A) (A) (A) (A) (A)
                 (A) (A) (A) (A) (A) (A) (A) (A) (A) (A) (A) (A)
                 (A) (A) (A) (A) (A) (A) (A) (A) (A) (A) (A) (A)
                 (A) (A) (A) (A) (A) (A) (A) (A) (A) (A) (A) (A)
                 (A) (A) (A) (A) (A) (A) (A) (A) (A) (A) (A) (A)
                 (A) (A) (A) (A) (A) (A) (A) (A) (A) (A) (A) (A)
                 (A) (A) (A) (A) (A) (A) (A) (A) (A) (A) (A) (A)
                 (A) (A) (A) (A) (A) (A) (A) (A) (A) (A) (A) (A)
                 (A) (A) (A) (A) (A) (A) (A) (A) (A) (A) (A) (A)
                 (A) (A) (A) (A) (A) (A) (A) (A) (A) (A) (A) (A)
                 (A) (A) (A) (A) (A) (A) (A) (A) (A) (A) (A) (A)
                 (A) (A) (A) (A) (A) (A) (A) (A) (A) (A) (A) (A)
                 (A) (A) (A) (A) (A) (A) (A) (A) (A) (A) (A) (A)
                 (A) (A) (A) (A) (A) (A) (A) (A) (A) (A) (A) (A)
                 (A) (A) (A) (A) (A) (A) (A) (A) (A) (A) (A) (A)
                 (A) (A) (A) (A) (A) (A) (A) (A) (A) (A) (A) (A)
                 (A) (A) (A) (A) (A) (A) (A) (A) (A) (A) (A) (A)
                 (A) (A) (A) (A) (A) (A) (A) (A) (A) (A) (A) (A)
                 (A) (A) (A) (A) (A) (A) (A) (A) (A) (A) (A) (A)
                 (A) (A) (A) (A) (A) (A)
 The electronic state of the initial guess is 1-A.
 Leave Link  401 at Tue Mar 10 14:43:40 2020, MaxMem= 2684354560 cpu:      14.4
 (Enter /opt/g09gh/gaussian/g09/l502.exe)
 Closed shell SCF:
 Requested convergence on RMS density matrix=1.00D-08 within 128 cycles.
 Requested convergence on MAX density matrix=1.00D-06.
 Requested convergence on             energy=1.00D-06.
 No special actions if energy rises.
 Using DIIS extrapolation, IDIIS=  1040.
 Integral symmetry usage will be decided dynamically.
       593662 words used for storage of precomputed grid.
 IEnd=     1762242 IEndB=     1762242 NGot=  2684354560 MDV=  2682990265
 LenX=  2682990265 LenY=  2682608959
 Fock matrices will be formed incrementally for  20 cycles.
 Integral accuracy reduced to 1.0D-05 until final iterations.

 Cycle   1  Pass 0  IDiag  1:
 FoFJK:  IHMeth= 1 ICntrl=     0 DoSepK=T KAlg= 1 I1Cent= 0 FoldK=F
 FoFCou: FMM=T IPFlag=           0 FMFlag=      100000 FMFlg1=           1
         NFxFlg=           0 DoJE=T BraDBF=F KetDBF=F FulRan=T
         Omega=  0.000000  0.000000  1.000000  0.000000  0.000000 ICntrl=     500 IOpCl=  0
         NMat0=    1 NMatS0=    1 NMatT0=    0 NMatD0=    1 NMtDS0=    0 NMtDT0=    0
         I1Cent=           0 NGrid=           0.
 Symmetry not used in FoFCou.
 FMM levels:  10  Number of levels for PrismC:   9
 E= -1581.03102572421    
 DIIS: error= 6.40D-02 at cycle   1 NSaved=   1.
 NSaved= 1 IEnMin= 1 EnMin= -1581.03102572421     IErMin= 1 ErrMin= 6.40D-02
 ErrMax= 6.40D-02 EMaxC= 1.00D-01 BMatC= 1.47D+00 BMatP= 1.47D+00
 IDIUse=3 WtCom= 3.60D-01 WtEn= 6.40D-01
 Coeff-Com:  0.100D+01
 Coeff-En:   0.100D+01
 Coeff:      0.100D+01
 Gap=     0.277 Goal=   None    Shift=    0.000
 GapD=    0.277 DampG=1.000 DampE=0.500 DampFc=0.5000 IDamp=-1.
 Damping current iteration by 5.00D-01
 RMSDP=1.92D-03 MaxDP=8.89D-02              OVMax= 1.71D-01

 Cycle   2  Pass 0  IDiag  1:
 RMSU=  6.79D-04    CP:  1.00D+00
 FoFJK:  IHMeth= 1 ICntrl=     0 DoSepK=T KAlg= 1 I1Cent= 0 FoldK=F
 E= -1581.21279702251     Delta-E=       -0.181771298297 Rises=F Damp=T
 DIIS: error= 3.36D-02 at cycle   2 NSaved=   2.
 NSaved= 2 IEnMin= 2 EnMin= -1581.21279702251     IErMin= 2 ErrMin= 3.36D-02
 ErrMax= 3.36D-02 EMaxC= 1.00D-01 BMatC= 3.22D-01 BMatP= 1.47D+00
 IDIUse=3 WtCom= 6.64D-01 WtEn= 3.36D-01
 Coeff-Com: -0.637D+00 0.164D+01
 Coeff-En:   0.000D+00 0.100D+01
 Coeff:     -0.423D+00 0.142D+01
 Gap=     0.278 Goal=   None    Shift=    0.000
 RMSDP=8.74D-04 MaxDP=3.86D-02 DE=-1.82D-01 OVMax= 1.18D-01

 Cycle   3  Pass 0  IDiag  1:
 RMSU=  5.64D-04    CP:  1.00D+00  1.37D+00
 FoFJK:  IHMeth= 1 ICntrl=     0 DoSepK=T KAlg= 1 I1Cent= 0 FoldK=F
 E= -1581.35289117854     Delta-E=       -0.140094156028 Rises=F Damp=F
 DIIS: error= 8.03D-03 at cycle   3 NSaved=   3.
 NSaved= 3 IEnMin= 3 EnMin= -1581.35289117854     IErMin= 3 ErrMin= 8.03D-03
 ErrMax= 8.03D-03 EMaxC= 1.00D-01 BMatC= 5.78D-02 BMatP= 3.22D-01
 IDIUse=3 WtCom= 9.20D-01 WtEn= 8.03D-02
 Coeff-Com: -0.346D+00 0.717D+00 0.629D+00
 Coeff-En:   0.000D+00 0.000D+00 0.100D+01
 Coeff:     -0.318D+00 0.659D+00 0.659D+00
 Gap=     0.269 Goal=   None    Shift=    0.000
 RMSDP=4.62D-04 MaxDP=2.95D-02 DE=-1.40D-01 OVMax= 5.86D-02

 Cycle   4  Pass 0  IDiag  1:
 RMSU=  1.44D-04    CP:  1.00D+00  1.66D+00  6.09D-01
 FoFJK:  IHMeth= 1 ICntrl=     0 DoSepK=T KAlg= 1 I1Cent= 0 FoldK=F
 E= -1581.40413559419     Delta-E=       -0.051244415649 Rises=F Damp=F
 DIIS: error= 2.90D-03 at cycle   4 NSaved=   4.
 NSaved= 4 IEnMin= 4 EnMin= -1581.40413559419     IErMin= 4 ErrMin= 2.90D-03
 ErrMax= 2.90D-03 EMaxC= 1.00D-01 BMatC= 3.73D-03 BMatP= 5.78D-02
 IDIUse=3 WtCom= 9.71D-01 WtEn= 2.90D-02
 Coeff-Com: -0.153D+00 0.312D+00 0.352D+00 0.489D+00
 Coeff-En:   0.000D+00 0.000D+00 0.000D+00 0.100D+01
 Coeff:     -0.148D+00 0.303D+00 0.342D+00 0.504D+00
 Gap=     0.262 Goal=   None    Shift=    0.000
 RMSDP=1.04D-04 MaxDP=8.81D-03 DE=-5.12D-02 OVMax= 1.03D-02

 Cycle   5  Pass 0  IDiag  1:
 RMSU=  4.63D-05    CP:  1.00D+00  1.64D+00  6.78D-01  7.22D-01
 FoFJK:  IHMeth= 1 ICntrl=     0 DoSepK=T KAlg= 1 I1Cent= 0 FoldK=F
 E= -1581.40738410559     Delta-E=       -0.003248511407 Rises=F Damp=F
 DIIS: error= 5.25D-04 at cycle   5 NSaved=   5.
 NSaved= 5 IEnMin= 5 EnMin= -1581.40738410559     IErMin= 5 ErrMin= 5.25D-04
 ErrMax= 5.25D-04 EMaxC= 1.00D-01 BMatC= 9.42D-05 BMatP= 3.73D-03
 IDIUse=3 WtCom= 9.95D-01 WtEn= 5.25D-03
 Coeff-Com: -0.144D-01 0.284D-01 0.541D-01 0.164D+00 0.768D+00
 Coeff-En:   0.000D+00 0.000D+00 0.000D+00 0.000D+00 0.100D+01
 Coeff:     -0.143D-01 0.282D-01 0.539D-01 0.163D+00 0.769D+00
 Gap=     0.260 Goal=   None    Shift=    0.000
 RMSDP=2.47D-05 MaxDP=2.58D-03 DE=-3.25D-03 OVMax= 2.99D-03

 Cycle   6  Pass 0  IDiag  1:
 RMSU=  1.33D-05    CP:  1.00D+00  1.65D+00  6.84D-01  7.91D-01  9.81D-01
 FoFJK:  IHMeth= 1 ICntrl=     0 DoSepK=T KAlg= 1 I1Cent= 0 FoldK=F
 E= -1581.40747537440     Delta-E=       -0.000091268801 Rises=F Damp=F
 DIIS: error= 4.43D-04 at cycle   6 NSaved=   6.
 NSaved= 6 IEnMin= 6 EnMin= -1581.40747537440     IErMin= 6 ErrMin= 4.43D-04
 ErrMax= 4.43D-04 EMaxC= 1.00D-01 BMatC= 2.75D-05 BMatP= 9.42D-05
 IDIUse=3 WtCom= 9.96D-01 WtEn= 4.43D-03
 Coeff-Com:  0.216D-01-0.447D-01-0.368D-01-0.121D-01 0.393D+00 0.679D+00
 Coeff-En:   0.000D+00 0.000D+00 0.000D+00 0.000D+00 0.000D+00 0.100D+01
 Coeff:      0.215D-01-0.445D-01-0.366D-01-0.120D-01 0.392D+00 0.680D+00
 Gap=     0.261 Goal=   None    Shift=    0.000
 RMSDP=1.33D-05 MaxDP=8.16D-04 DE=-9.13D-05 OVMax= 1.58D-03

 Cycle   7  Pass 0  IDiag  1:
 RMSU=  5.76D-06    CP:  1.00D+00  1.65D+00  6.87D-01  8.18D-01  1.10D+00
                    CP:  8.84D-01
 FoFJK:  IHMeth= 1 ICntrl=     0 DoSepK=T KAlg= 1 I1Cent= 0 FoldK=F
 E= -1581.40750607371     Delta-E=       -0.000030699316 Rises=F Damp=F
 DIIS: error= 5.13D-05 at cycle   7 NSaved=   7.
 NSaved= 7 IEnMin= 7 EnMin= -1581.40750607371     IErMin= 7 ErrMin= 5.13D-05
 ErrMax= 5.13D-05 EMaxC= 1.00D-01 BMatC= 1.73D-06 BMatP= 2.75D-05
 IDIUse=1 WtCom= 1.00D+00 WtEn= 0.00D+00
 Coeff-Com:  0.895D-02-0.183D-01-0.173D-01-0.204D-01 0.596D-01 0.234D+00
 Coeff-Com:  0.754D+00
 Coeff:      0.895D-02-0.183D-01-0.173D-01-0.204D-01 0.596D-01 0.234D+00
 Coeff:      0.754D+00
 Gap=     0.261 Goal=   None    Shift=    0.000
 RMSDP=4.12D-06 MaxDP=2.54D-04 DE=-3.07D-05 OVMax= 6.36D-04

 Initial convergence to 1.0D-05 achieved.  Increase integral accuracy.
 Cycle   8  Pass 1  IDiag  1:
 FoFJK:  IHMeth= 1 ICntrl=     0 DoSepK=T KAlg= 1 I1Cent= 0 FoldK=F
 E= -1581.40581496931     Delta-E=        0.001691104406 Rises=F Damp=F
 DIIS: error= 1.07D-04 at cycle   1 NSaved=   1.
 NSaved= 1 IEnMin= 1 EnMin= -1581.40581496931     IErMin= 1 ErrMin= 1.07D-04
 ErrMax= 1.07D-04 EMaxC= 1.00D-01 BMatC= 1.32D-05 BMatP= 1.32D-05
 IDIUse=3 WtCom= 9.99D-01 WtEn= 1.07D-03
 Coeff-Com:  0.100D+01
 Coeff-En:   0.100D+01
 Coeff:      0.100D+01
 Gap=     0.261 Goal=   None    Shift=    0.000
 RMSDP=4.12D-06 MaxDP=2.54D-04 DE= 1.69D-03 OVMax= 4.05D-04

 Cycle   9  Pass 1  IDiag  1:
 RMSU=  1.83D-05    CP:  1.00D+00
 FoFJK:  IHMeth= 1 ICntrl=     0 DoSepK=T KAlg= 1 I1Cent= 0 FoldK=F
 E= -1581.40582577090     Delta-E=       -0.000010801590 Rises=F Damp=F
 DIIS: error= 3.82D-05 at cycle   2 NSaved=   2.
 NSaved= 2 IEnMin= 2 EnMin= -1581.40582577090     IErMin= 2 ErrMin= 3.82D-05
 ErrMax= 3.82D-05 EMaxC= 1.00D-01 BMatC= 7.81D-07 BMatP= 1.32D-05
 IDIUse=1 WtCom= 1.00D+00 WtEn= 0.00D+00
 Coeff-Com:  0.294D-01 0.971D+00
 Coeff:      0.294D-01 0.971D+00
 Gap=     0.261 Goal=   None    Shift=    0.000
 RMSDP=3.17D-06 MaxDP=2.29D-04 DE=-1.08D-05 OVMax= 3.06D-04

 Cycle  10  Pass 1  IDiag  1:
 RMSU=  2.07D-06    CP:  1.00D+00  1.05D+00
 FoFJK:  IHMeth= 1 ICntrl=     0 DoSepK=T KAlg= 1 I1Cent= 0 FoldK=F
 E= -1581.40582581554     Delta-E=       -0.000000044645 Rises=F Damp=F
 DIIS: error= 6.20D-05 at cycle   3 NSaved=   3.
 NSaved= 3 IEnMin= 3 EnMin= -1581.40582581554     IErMin= 2 ErrMin= 3.82D-05
 ErrMax= 6.20D-05 EMaxC= 1.00D-01 BMatC= 9.67D-07 BMatP= 7.81D-07
 IDIUse=1 WtCom= 1.00D+00 WtEn= 0.00D+00
 Coeff-Com: -0.420D-01 0.546D+00 0.496D+00
 Coeff:     -0.420D-01 0.546D+00 0.496D+00
 Gap=     0.261 Goal=   None    Shift=    0.000
 RMSDP=1.59D-06 MaxDP=1.54D-04 DE=-4.46D-08 OVMax= 1.52D-04

 Cycle  11  Pass 1  IDiag  1:
 RMSU=  6.57D-07    CP:  1.00D+00  1.06D+00  5.74D-01
 FoFJK:  IHMeth= 1 ICntrl=     0 DoSepK=T KAlg= 1 I1Cent= 0 FoldK=F
 E= -1581.40582663489     Delta-E=       -0.000000819346 Rises=F Damp=F
 DIIS: error= 1.02D-05 at cycle   4 NSaved=   4.
 NSaved= 4 IEnMin= 4 EnMin= -1581.40582663489     IErMin= 4 ErrMin= 1.02D-05
 ErrMax= 1.02D-05 EMaxC= 1.00D-01 BMatC= 2.27D-08 BMatP= 7.81D-07
 IDIUse=1 WtCom= 1.00D+00 WtEn= 0.00D+00
 Coeff-Com: -0.175D-01 0.132D+00 0.175D+00 0.711D+00
 Coeff:     -0.175D-01 0.132D+00 0.175D+00 0.711D+00
 Gap=     0.261 Goal=   None    Shift=    0.000
 RMSDP=3.40D-07 MaxDP=3.30D-05 DE=-8.19D-07 OVMax= 4.18D-05

 Cycle  12  Pass 1  IDiag  1:
 RMSU=  2.16D-07    CP:  1.00D+00  1.06D+00  6.24D-01  1.02D+00
 FoFJK:  IHMeth= 1 ICntrl=     0 DoSepK=T KAlg= 1 I1Cent= 0 FoldK=F
 E= -1581.40582665745     Delta-E=       -0.000000022561 Rises=F Damp=F
 DIIS: error= 4.21D-06 at cycle   5 NSaved=   5.
 NSaved= 5 IEnMin= 5 EnMin= -1581.40582665745     IErMin= 5 ErrMin= 4.21D-06
 ErrMax= 4.21D-06 EMaxC= 1.00D-01 BMatC= 4.63D-09 BMatP= 2.27D-08
 IDIUse=1 WtCom= 1.00D+00 WtEn= 0.00D+00
 Coeff-Com:  0.365D-03-0.404D-01-0.147D-01 0.302D+00 0.752D+00
 Coeff:      0.365D-03-0.404D-01-0.147D-01 0.302D+00 0.752D+00
 Gap=     0.261 Goal=   None    Shift=    0.000
 RMSDP=1.86D-07 MaxDP=1.18D-05 DE=-2.26D-08 OVMax= 2.61D-05

 Cycle  13  Pass 1  IDiag  1:
 RMSU=  8.56D-08    CP:  1.00D+00  1.06D+00  6.42D-01  1.16D+00  9.75D-01
 FoFJK:  IHMeth= 1 ICntrl=     0 DoSepK=T KAlg= 1 I1Cent= 0 FoldK=F
 E= -1581.40582666388     Delta-E=       -0.000000006429 Rises=F Damp=F
 DIIS: error= 7.91D-07 at cycle   6 NSaved=   6.
 NSaved= 6 IEnMin= 6 EnMin= -1581.40582666388     IErMin= 6 ErrMin= 7.91D-07
 ErrMax= 7.91D-07 EMaxC= 1.00D-01 BMatC= 5.70D-10 BMatP= 4.63D-09
 IDIUse=1 WtCom= 1.00D+00 WtEn= 0.00D+00
 Coeff-Com:  0.217D-02-0.308D-01-0.267D-01 0.327D-01 0.291D+00 0.732D+00
 Coeff:      0.217D-02-0.308D-01-0.267D-01 0.327D-01 0.291D+00 0.732D+00
 Gap=     0.261 Goal=   None    Shift=    0.000
 RMSDP=7.85D-08 MaxDP=3.00D-06 DE=-6.43D-09 OVMax= 1.51D-05

 Cycle  14  Pass 1  IDiag  1:
 RMSU=  3.61D-08    CP:  1.00D+00  1.06D+00  6.46D-01  1.20D+00  1.11D+00
                    CP:  1.03D+00
 FoFJK:  IHMeth= 1 ICntrl=     0 DoSepK=T KAlg= 1 I1Cent= 0 FoldK=F
 E= -1581.40582666488     Delta-E=       -0.000000001007 Rises=F Damp=F
 DIIS: error= 3.50D-07 at cycle   7 NSaved=   7.
 NSaved= 7 IEnMin= 7 EnMin= -1581.40582666488     IErMin= 7 ErrMin= 3.50D-07
 ErrMax= 3.50D-07 EMaxC= 1.00D-01 BMatC= 1.02D-10 BMatP= 5.70D-10
 IDIUse=1 WtCom= 1.00D+00 WtEn= 0.00D+00
 Coeff-Com:  0.656D-03-0.262D-02-0.695D-02-0.523D-01-0.468D-01 0.267D+00
 Coeff-Com:  0.841D+00
 Coeff:      0.656D-03-0.262D-02-0.695D-02-0.523D-01-0.468D-01 0.267D+00
 Coeff:      0.841D+00
 Gap=     0.261 Goal=   None    Shift=    0.000
 RMSDP=4.34D-08 MaxDP=1.71D-06 DE=-1.01D-09 OVMax= 8.48D-06

 Cycle  15  Pass 1  IDiag  1:
 RMSU=  1.50D-08    CP:  1.00D+00  1.06D+00  6.50D-01  1.23D+00  1.16D+00
                    CP:  1.24D+00  1.10D+00
 FoFJK:  IHMeth= 1 ICntrl=     0 DoSepK=T KAlg= 1 I1Cent= 0 FoldK=F
 E= -1581.40582666516     Delta-E=       -0.000000000276 Rises=F Damp=F
 DIIS: error= 1.30D-07 at cycle   8 NSaved=   8.
 NSaved= 8 IEnMin= 8 EnMin= -1581.40582666516     IErMin= 8 ErrMin= 1.30D-07
 ErrMax= 1.30D-07 EMaxC= 1.00D-01 BMatC= 1.77D-11 BMatP= 1.02D-10
 IDIUse=1 WtCom= 1.00D+00 WtEn= 0.00D+00
 Coeff-Com: -0.857D-04 0.396D-02 0.169D-02-0.251D-01-0.626D-01-0.185D-01
 Coeff-Com:  0.322D+00 0.779D+00
 Coeff:     -0.857D-04 0.396D-02 0.169D-02-0.251D-01-0.626D-01-0.185D-01
 Coeff:      0.322D+00 0.779D+00
 Gap=     0.261 Goal=   None    Shift=    0.000
 RMSDP=1.71D-08 MaxDP=7.97D-07 DE=-2.76D-10 OVMax= 4.34D-06

 Cycle  16  Pass 1  IDiag  1:
 RMSU=  5.93D-09    CP:  1.00D+00  1.06D+00  6.50D-01  1.23D+00  1.18D+00
                    CP:  1.30D+00  1.29D+00  1.07D+00
 FoFJK:  IHMeth= 1 ICntrl=     0 DoSepK=T KAlg= 1 I1Cent= 0 FoldK=F
 E= -1581.40582666524     Delta-E=       -0.000000000083 Rises=F Damp=F
 DIIS: error= 7.19D-08 at cycle   9 NSaved=   9.
 NSaved= 9 IEnMin= 9 EnMin= -1581.40582666524     IErMin= 9 ErrMin= 7.19D-08
 ErrMax= 7.19D-08 EMaxC= 1.00D-01 BMatC= 2.80D-12 BMatP= 1.77D-11
 IDIUse=1 WtCom= 1.00D+00 WtEn= 0.00D+00
 Coeff-Com: -0.159D-03 0.193D-02 0.196D-02 0.944D-03-0.137D-01-0.606D-01
 Coeff-Com: -0.494D-01 0.262D+00 0.857D+00
 Coeff:     -0.159D-03 0.193D-02 0.196D-02 0.944D-03-0.137D-01-0.606D-01
 Coeff:     -0.494D-01 0.262D+00 0.857D+00
 Gap=     0.261 Goal=   None    Shift=    0.000
 RMSDP=7.74D-09 MaxDP=4.04D-07 DE=-8.28D-11 OVMax= 1.91D-06

 SCF Done:  E(RwB97XD) =  -1581.40582667     A.U. after   16 cycles
             Convg  =    0.7742D-08             -V/T =  2.0108
 KE= 1.564526396847D+03 PE=-1.098819123538D+04 EE= 4.182204144372D+03
 Leave Link  502 at Tue Mar 10 14:46:10 2020, MaxMem= 2684354560 cpu:     901.0
 (Enter /opt/g09gh/gaussian/g09/l601.exe)
 Copying SCF densities to generalized density rwf, IOpCl= 0 IROHF=0.

 **********************************************************************

            Population analysis using the SCF density.

 **********************************************************************

 Orbital symmetries:
       Occupied  (A) (A) (A) (A) (A) (A) (A) (A) (A) (A) (A) (A)
                 (A) (A) (A) (A) (A) (A) (A) (A) (A) (A) (A) (A)
                 (A) (A) (A) (A) (A) (A) (A) (A) (A) (A) (A) (A)
                 (A) (A) (A) (A) (A) (A) (A) (A) (A) (A) (A) (A)
                 (A) (A) (A) (A) (A) (A) (A) (A) (A) (A) (A) (A)
                 (A) (A) (A) (A) (A) (A) (A) (A) (A) (A) (A) (A)
                 (A) (A) (A) (A) (A) (A) (A) (A) (A) (A) (A) (A)
                 (A) (A) (A) (A) (A) (A) (A) (A) (A) (A) (A) (A)
                 (A) (A) (A) (A) (A) (A) (A) (A) (A) (A) (A) (A)
                 (A) (A) (A) (A) (A) (A) (A) (A) (A) (A) (A) (A)
                 (A) (A) (A) (A) (A) (A) (A) (A) (A) (A) (A)
       Virtual   (A) (A) (A) (A) (A) (A) (A) (A) (A) (A) (A) (A)
                 (A) (A) (A) (A) (A) (A) (A) (A) (A) (A) (A) (A)
                 (A) (A) (A) (A) (A) (A) (A) (A) (A) (A) (A) (A)
                 (A) (A) (A) (A) (A) (A) (A) (A) (A) (A) (A) (A)
                 (A) (A) (A) (A) (A) (A) (A) (A) (A) (A) (A) (A)
                 (A) (A) (A) (A) (A) (A) (A) (A) (A) (A) (A) (A)
                 (A) (A) (A) (A) (A) (A) (A) (A) (A) (A) (A) (A)
                 (A) (A) (A) (A) (A) (A) (A) (A) (A) (A) (A) (A)
                 (A) (A) (A) (A) (A) (A) (A) (A) (A) (A) (A) (A)
                 (A) (A) (A) (A) (A) (A) (A) (A) (A) (A) (A) (A)
                 (A) (A) (A) (A) (A) (A) (A) (A) (A) (A) (A) (A)
                 (A) (A) (A) (A) (A) (A) (A) (A) (A) (A) (A) (A)
                 (A) (A) (A) (A) (A) (A) (A) (A) (A) (A) (A) (A)
                 (A) (A) (A) (A) (A) (A) (A) (A) (A) (A) (A) (A)
                 (A) (A) (A) (A) (A) (A) (A) (A) (A) (A) (A) (A)
                 (A) (A) (A) (A) (A) (A) (A) (A) (A) (A) (A) (A)
                 (A) (A) (A) (A) (A) (A) (A) (A) (A) (A) (A) (A)
                 (A) (A) (A) (A) (A) (A) (A) (A) (A) (A) (A) (A)
                 (A) (A) (A) (A) (A) (A) (A) (A) (A) (A) (A) (A)
                 (A) (A) (A) (A) (A) (A) (A) (A) (A) (A) (A) (A)
                 (A) (A) (A) (A) (A) (A) (A) (A) (A) (A) (A) (A)
                 (A) (A) (A) (A) (A) (A) (A) (A) (A) (A) (A) (A)
                 (A) (A) (A) (A) (A) (A) (A) (A) (A) (A) (A) (A)
                 (A) (A) (A) (A) (A) (A) (A) (A) (A) (A) (A) (A)
                 (A) (A) (A) (A) (A) (A) (A) (A) (A) (A) (A) (A)
                 (A) (A) (A) (A) (A) (A) (A) (A) (A) (A) (A) (A)
                 (A) (A) (A) (A) (A) (A) (A) (A) (A) (A) (A) (A)
                 (A) (A) (A) (A) (A) (A) (A) (A) (A) (A) (A) (A)
                 (A) (A) (A) (A) (A) (A) (A) (A) (A) (A) (A) (A)
                 (A) (A) (A) (A) (A) (A) (A) (A) (A) (A) (A) (A)
                 (A) (A) (A) (A) (A) (A) (A) (A) (A) (A) (A) (A)
                 (A) (A) (A) (A) (A) (A) (A) (A) (A) (A) (A) (A)
                 (A) (A) (A) (A) (A) (A) (A) (A) (A) (A) (A) (A)
                 (A) (A) (A) (A) (A) (A) (A) (A) (A) (A) (A) (A)
                 (A) (A) (A) (A) (A) (A) (A) (A) (A) (A) (A) (A)
                 (A) (A) (A) (A) (A) (A) (A) (A) (A) (A) (A) (A)
                 (A) (A) (A) (A) (A) (A) (A) (A) (A) (A) (A) (A)
                 (A) (A) (A) (A) (A) (A) (A) (A) (A) (A) (A) (A)
                 (A) (A) (A) (A) (A) (A) (A) (A) (A) (A) (A) (A)
                 (A) (A) (A) (A) (A) (A) (A) (A) (A) (A) (A) (A)
                 (A) (A) (A) (A) (A) (A)
 The electronic state is 1-A.
 Alpha  occ. eigenvalues --  -19.23409 -14.49539 -14.48912 -14.47600 -14.46721
 Alpha  occ. eigenvalues --  -14.46224 -14.45853 -14.45255 -10.42144 -10.40515
 Alpha  occ. eigenvalues --  -10.39599 -10.38313 -10.36919 -10.36509 -10.36093
 Alpha  occ. eigenvalues --  -10.35823 -10.35389 -10.35217 -10.35021 -10.34566
 Alpha  occ. eigenvalues --  -10.34433 -10.34355 -10.34282 -10.33012 -10.32307
 Alpha  occ. eigenvalues --  -10.32136 -10.31520 -10.31420 -10.31377 -10.31098
 Alpha  occ. eigenvalues --  -10.30789 -10.30785 -10.30728 -10.30360 -10.30200
 Alpha  occ. eigenvalues --  -10.29727 -10.29155  -1.13504  -1.11633  -1.05719
 Alpha  occ. eigenvalues --   -1.03999  -1.03738  -1.03040  -1.00194  -1.00169
 Alpha  occ. eigenvalues --   -0.95962  -0.94558  -0.92561  -0.89461  -0.88071
 Alpha  occ. eigenvalues --   -0.87224  -0.86482  -0.84945  -0.84485  -0.83871
 Alpha  occ. eigenvalues --   -0.82329  -0.79813  -0.78330  -0.78009  -0.76051
 Alpha  occ. eigenvalues --   -0.73506  -0.73272  -0.72568  -0.72147  -0.71038
 Alpha  occ. eigenvalues --   -0.70215  -0.69780  -0.68396  -0.66397  -0.64756
 Alpha  occ. eigenvalues --   -0.63349  -0.62671  -0.62340  -0.61670  -0.60097
 Alpha  occ. eigenvalues --   -0.58652  -0.57842  -0.57028  -0.56461  -0.56178
 Alpha  occ. eigenvalues --   -0.55921  -0.55197  -0.54868  -0.54762  -0.54493
 Alpha  occ. eigenvalues --   -0.54025  -0.53329  -0.52946  -0.52236  -0.51837
 Alpha  occ. eigenvalues --   -0.51539  -0.51408  -0.51170  -0.50694  -0.50357
 Alpha  occ. eigenvalues --   -0.50280  -0.50191  -0.49844  -0.49604  -0.48729
 Alpha  occ. eigenvalues --   -0.47636  -0.47430  -0.46432  -0.46241  -0.46067
 Alpha  occ. eigenvalues --   -0.44902  -0.44753  -0.43931  -0.43868  -0.43412
 Alpha  occ. eigenvalues --   -0.43103  -0.42878  -0.42046  -0.41497  -0.40353
 Alpha  occ. eigenvalues --   -0.40164  -0.38078  -0.37545  -0.37369  -0.35918
 Alpha  occ. eigenvalues --   -0.35759  -0.35195  -0.33731  -0.33624  -0.33377
 Alpha  occ. eigenvalues --   -0.32806  -0.31717  -0.31572  -0.29457  -0.27498
 Alpha  occ. eigenvalues --   -0.26862
 Alpha virt. eigenvalues --   -0.00730   0.02763   0.03298   0.04501   0.05880
 Alpha virt. eigenvalues --    0.06908   0.07240   0.07616   0.08556   0.09214
 Alpha virt. eigenvalues --    0.09913   0.11391   0.12969   0.14105   0.14318
 Alpha virt. eigenvalues --    0.15932   0.17095   0.17710   0.18955   0.19116
 Alpha virt. eigenvalues --    0.19471   0.19787   0.20448   0.20661   0.21525
 Alpha virt. eigenvalues --    0.22438   0.22807   0.23076   0.23197   0.23850
 Alpha virt. eigenvalues --    0.23982   0.24317   0.24653   0.25061   0.25147
 Alpha virt. eigenvalues --    0.25607   0.25786   0.26244   0.26888   0.27203
 Alpha virt. eigenvalues --    0.27779   0.28008   0.28417   0.28582   0.29149
 Alpha virt. eigenvalues --    0.29421   0.29550   0.30037   0.30518   0.31222
 Alpha virt. eigenvalues --    0.31369   0.31954   0.33004   0.33217   0.33721
 Alpha virt. eigenvalues --    0.34154   0.34851   0.35844   0.36296   0.37175
 Alpha virt. eigenvalues --    0.37731   0.38339   0.39266   0.39422   0.40037
 Alpha virt. eigenvalues --    0.40568   0.41055   0.41284   0.41531   0.42936
 Alpha virt. eigenvalues --    0.43522   0.44879   0.45728   0.46493   0.46971
 Alpha virt. eigenvalues --    0.47866   0.50183   0.51935   0.52579   0.53771
 Alpha virt. eigenvalues --    0.55431   0.56250   0.56694   0.57187   0.58122
 Alpha virt. eigenvalues --    0.58466   0.58923   0.59208   0.59443   0.59723
 Alpha virt. eigenvalues --    0.60164   0.60747   0.61296   0.61806   0.62041
 Alpha virt. eigenvalues --    0.62383   0.62987   0.63145   0.63452   0.64090
 Alpha virt. eigenvalues --    0.64548   0.64744   0.64999   0.65289   0.65338
 Alpha virt. eigenvalues --    0.65531   0.65829   0.66001   0.66411   0.66621
 Alpha virt. eigenvalues --    0.66812   0.67181   0.67836   0.67970   0.68368
 Alpha virt. eigenvalues --    0.68867   0.69290   0.69505   0.70323   0.70509
 Alpha virt. eigenvalues --    0.70675   0.70952   0.70997   0.71244   0.72192
 Alpha virt. eigenvalues --    0.72666   0.72843   0.73114   0.73702   0.73824
 Alpha virt. eigenvalues --    0.74319   0.75143   0.75686   0.75814   0.76373
 Alpha virt. eigenvalues --    0.77194   0.77213   0.78251   0.79312   0.79565
 Alpha virt. eigenvalues --    0.80530   0.80803   0.81422   0.81824   0.82372
 Alpha virt. eigenvalues --    0.82934   0.83255   0.83400   0.83657   0.84926
 Alpha virt. eigenvalues --    0.85327   0.86049   0.86393   0.86764   0.87639
 Alpha virt. eigenvalues --    0.87844   0.88784   0.89328   0.89579   0.90303
 Alpha virt. eigenvalues --    0.90804   0.91162   0.91418   0.91931   0.92380
 Alpha virt. eigenvalues --    0.92829   0.92981   0.93365   0.93559   0.93693
 Alpha virt. eigenvalues --    0.94012   0.94604   0.94738   0.94883   0.95868
 Alpha virt. eigenvalues --    0.96316   0.97142   0.97599   0.98209   0.98317
 Alpha virt. eigenvalues --    0.99025   0.99245   0.99677   1.00419   1.01453
 Alpha virt. eigenvalues --    1.01981   1.02503   1.02686   1.03166   1.03738
 Alpha virt. eigenvalues --    1.04292   1.04741   1.05435   1.06219   1.06561
[...]
                 (A) (A) (A) (A) (A) (A) (A) (A) (A) (A) (A) (A)
                 (A) (A) (A) (A) (A) (A) (A) (A) (A) (A) (A) (A)
                 (A) (A) (A) (A) (A) (A) (A) (A) (A) (A) (A) (A)
                 (A) (A) (A) (A) (A) (A) (A) (A) (A) (A) (A) (A)
                 (A) (A) (A) (A) (A) (A) (A) (A) (A) (A) (A) (A)
                 (A) (A) (A) (A) (A) (A) (A) (A) (A) (A) (A) (A)
                 (A) (A) (A) (A) (A) (A) (A) (A) (A) (A) (A) (A)
                 (A) (A) (A) (A) (A) (A) (A) (A) (A) (A) (A) (A)
                 (A) (A) (A) (A) (A) (A) (A) (A) (A) (A) (A) (A)
                 (A) (A) (A) (A) (A) (A) (A) (A) (A) (A) (A) (A)
                 (A) (A) (A) (A) (A) (A) (A) (A) (A) (A) (A) (A)
                 (A) (A) (A) (A) (A) (A) (A) (A) (A) (A) (A) (A)
                 (A) (A) (A) (A) (A) (A) (A) (A) (A) (A) (A) (A)
                 (A) (A) (A) (A) (A) (A) (A) (A) (A) (A) (A) (A)
                 (A) (A) (A) (A) (A) (A) (A) (A) (A) (A) (A) (A)
                 (A) (A) (A) (A) (A) (A) (A) (A) (A) (A) (A) (A)
                 (A) (A) (A) (A) (A) (A) (A) (A) (A) (A) (A) (A)
                 (A) (A) (A) (A) (A) (A) (A) (A) (A) (A) (A) (A)
                 (A) (A) (A) (A) (A) (A) (A) (A) (A) (A) (A) (A)
                 (A) (A) (A) (A) (A) (A) (A) (A) (A) (A) (A) (A)
                 (A) (A) (A) (A) (A) (A) (A) (A) (A) (A) (A) (A)
                 (A) (A) (A) (A) (A) (A) (A) (A) (A) (A) (A) (A)
                 (A) (A) (A) (A) (A) (A) (A) (A) (A) (A) (A) (A)
                 (A) (A) (A) (A) (A) (A) (A) (A) (A) (A) (A) (A)
                 (A) (A) (A) (A) (A) (A) (A) (A) (A) (A) (A) (A)
                 (A) (A) (A) (A) (A) (A) (A) (A) (A) (A) (A) (A)
                 (A) (A) (A) (A) (A) (A) (A) (A) (A) (A) (A) (A)
                 (A) (A) (A) (A) (A) (A) (A) (A) (A) (A) (A) (A)
                 (A) (A) (A) (A) (A) (A) (A) (A) (A) (A) (A) (A)
                 (A) (A) (A) (A) (A) (A) (A) (A) (A) (A) (A) (A)
                 (A) (A) (A) (A) (A) (A) (A) (A) (A) (A) (A) (A)
                 (A) (A) (A) (A) (A) (A) (A) (A) (A) (A) (A) (A)
                 (A) (A) (A) (A) (A) (A)
 The electronic state is 1-A.
 Alpha  occ. eigenvalues --  -19.23411 -14.49282 -14.48321 -14.46751 -14.46096
 Alpha  occ. eigenvalues --  -14.45764 -14.43617 -14.43135 -10.41778 -10.40081
 Alpha  occ. eigenvalues --  -10.37615 -10.36338 -10.35325 -10.35084 -10.34623
 Alpha  occ. eigenvalues --  -10.34135 -10.34016 -10.33623 -10.32863 -10.32367
 Alpha  occ. eigenvalues --  -10.31861 -10.31492 -10.31179 -10.30935 -10.30708
 Alpha  occ. eigenvalues --  -10.30688 -10.30676 -10.30586 -10.30533 -10.30403
 Alpha  occ. eigenvalues --  -10.30377 -10.30220 -10.30020 -10.29974 -10.29575
 Alpha  occ. eigenvalues --  -10.28740 -10.28405  -1.13443  -1.12296  -1.06322
 Alpha  occ. eigenvalues --   -1.04565  -1.03829  -1.03634  -1.00716  -0.99558
 Alpha  occ. eigenvalues --   -0.96086  -0.94671  -0.93098  -0.89778  -0.88124
 Alpha  occ. eigenvalues --   -0.87389  -0.86228  -0.85400  -0.84542  -0.83783
 Alpha  occ. eigenvalues --   -0.81888  -0.79581  -0.78270  -0.77798  -0.76320
 Alpha  occ. eigenvalues --   -0.73881  -0.73301  -0.73025  -0.72621  -0.70870
 Alpha  occ. eigenvalues --   -0.70314  -0.69615  -0.68039  -0.66413  -0.65150
 Alpha  occ. eigenvalues --   -0.63656  -0.63409  -0.62228  -0.61762  -0.60211
 Alpha  occ. eigenvalues --   -0.58848  -0.58045  -0.57570  -0.56611  -0.56101
 Alpha  occ. eigenvalues --   -0.55817  -0.55236  -0.55134  -0.54965  -0.54255
 Alpha  occ. eigenvalues --   -0.53867  -0.53239  -0.53154  -0.52612  -0.52174
 Alpha  occ. eigenvalues --   -0.51912  -0.51510  -0.51371  -0.50999  -0.50575
 Alpha  occ. eigenvalues --   -0.50365  -0.50116  -0.49974  -0.49497  -0.48335
 Alpha  occ. eigenvalues --   -0.47217  -0.46906  -0.46619  -0.46319  -0.46211
 Alpha  occ. eigenvalues --   -0.45762  -0.45236  -0.44798  -0.44045  -0.43932
 Alpha  occ. eigenvalues --   -0.43328  -0.43017  -0.42141  -0.41766  -0.41439
 Alpha  occ. eigenvalues --   -0.40964  -0.40776  -0.39912  -0.38187  -0.37592
 Alpha  occ. eigenvalues --   -0.35821  -0.35293  -0.34001  -0.33446  -0.33374
 Alpha  occ. eigenvalues --   -0.32818  -0.31904  -0.30772  -0.29115  -0.27079
 Alpha  occ. eigenvalues --   -0.24996
 Alpha virt. eigenvalues --   -0.00292   0.02872   0.03586   0.04480   0.06433
 Alpha virt. eigenvalues --    0.07258   0.08204   0.10371   0.13887   0.14815
 Alpha virt. eigenvalues --    0.15728   0.16386   0.17252   0.17441   0.18251
 Alpha virt. eigenvalues --    0.19198   0.19759   0.20074   0.20198   0.20629
 Alpha virt. eigenvalues --    0.21234   0.21900   0.22615   0.22767   0.23135
 Alpha virt. eigenvalues --    0.23343   0.23537   0.24192   0.24362   0.24839
 Alpha virt. eigenvalues --    0.25118   0.25124   0.26082   0.26488   0.26551
 Alpha virt. eigenvalues --    0.27065   0.27431   0.27681   0.27996   0.28429
 Alpha virt. eigenvalues --    0.28563   0.28864   0.29437   0.29708   0.30282
 Alpha virt. eigenvalues --    0.31015   0.31165   0.31763   0.32125   0.32246
 Alpha virt. eigenvalues --    0.32892   0.33214   0.33675   0.33955   0.34428
 Alpha virt. eigenvalues --    0.35001   0.36036   0.36538   0.37755   0.38123
 Alpha virt. eigenvalues --    0.38651   0.38809   0.39299   0.40138   0.40740
 Alpha virt. eigenvalues --    0.41234   0.41464   0.42064   0.42207   0.42713
 Alpha virt. eigenvalues --    0.43814   0.45043   0.46208   0.47058   0.47330
 Alpha virt. eigenvalues --    0.48355   0.49428   0.51938   0.53014   0.54230
 Alpha virt. eigenvalues --    0.55738   0.56536   0.57256   0.57912   0.58309
 Alpha virt. eigenvalues --    0.59047   0.59371   0.59611   0.60510   0.60897
 Alpha virt. eigenvalues --    0.61370   0.61486   0.61680   0.62222   0.62698
 Alpha virt. eigenvalues --    0.63200   0.63355   0.63864   0.64090   0.64889
 Alpha virt. eigenvalues --    0.64931   0.65336   0.65507   0.65529   0.65821
 Alpha virt. eigenvalues --    0.66021   0.66272   0.66897   0.66982   0.67472
 Alpha virt. eigenvalues --    0.67616   0.67787   0.68308   0.68614   0.69045
 Alpha virt. eigenvalues --    0.69766   0.70018   0.70550   0.71042   0.71240
 Alpha virt. eigenvalues --    0.71763   0.72092   0.72268   0.72585   0.73056
 Alpha virt. eigenvalues --    0.73334   0.73462   0.74254   0.75226   0.75349
 Alpha virt. eigenvalues --    0.75594   0.75945   0.76256   0.76932   0.77677
 Alpha virt. eigenvalues --    0.77802   0.79112   0.80382   0.80455   0.81763
 Alpha virt. eigenvalues --    0.81971   0.82305   0.83131   0.83262   0.84196
 Alpha virt. eigenvalues --    0.84655   0.85716   0.86629   0.86887   0.87423
 Alpha virt. eigenvalues --    0.88278   0.89047   0.89674   0.90200   0.90738
 Alpha virt. eigenvalues --    0.90925   0.91157   0.91468   0.92209   0.92295
 Alpha virt. eigenvalues --    0.92392   0.92543   0.93563   0.93885   0.94046
 Alpha virt. eigenvalues --    0.94341   0.94529   0.94676   0.95250   0.95604
 Alpha virt. eigenvalues --    0.95948   0.96541   0.97598   0.98197   0.98359
 Alpha virt. eigenvalues --    0.98516   0.99007   0.99058   0.99700   0.99825
 Alpha virt. eigenvalues --    1.00451   1.00623   1.01372   1.01926   1.02022
 Alpha virt. eigenvalues --    1.02501   1.02652   1.03217   1.03674   1.04408
 Alpha virt. eigenvalues --    1.05623   1.05882   1.06646   1.06768   1.07380
 Alpha virt. eigenvalues --    1.07618   1.08219   1.08750   1.08901   1.09056
 Alpha virt. eigenvalues --    1.10208   1.10700   1.11027   1.11714   1.12089
 Alpha virt. eigenvalues --    1.12634   1.13093   1.13793   1.14264   1.15632
 Alpha virt. eigenvalues --    1.16461   1.16988   1.17694   1.18301   1.19272
 Alpha virt. eigenvalues --    1.20081   1.21180   1.21738   1.23134   1.23418
 Alpha virt. eigenvalues --    1.24744   1.25514   1.26100   1.26963   1.27425
 Alpha virt. eigenvalues --    1.29019   1.29353   1.29706   1.30411   1.30875
 Alpha virt. eigenvalues --    1.31926   1.33069   1.33761   1.33900   1.34766
 Alpha virt. eigenvalues --    1.35492   1.36942   1.37301   1.37888   1.38645
 Alpha virt. eigenvalues --    1.39298   1.42347   1.43370   1.43715   1.44583
 Alpha virt. eigenvalues --    1.46485   1.47299   1.47752   1.48441   1.48546
 Alpha virt. eigenvalues --    1.48648   1.49180   1.49467   1.50259   1.51635
 Alpha virt. eigenvalues --    1.51970   1.52736   1.53659   1.54082   1.54530
 Alpha virt. eigenvalues --    1.55183   1.55560   1.56281   1.56870   1.56982
 Alpha virt. eigenvalues --    1.57524   1.57807   1.58456   1.59180   1.59303
 Alpha virt. eigenvalues --    1.59661   1.60105   1.60821   1.61986   1.62520
 Alpha virt. eigenvalues --    1.63912   1.64943   1.65122   1.65691   1.67669
 Alpha virt. eigenvalues --    1.68409   1.69750   1.72013   1.75169   1.76230
 Alpha virt. eigenvalues --    1.78748   1.80597   1.81507   1.82526   1.84277
 Alpha virt. eigenvalues --    1.84719   1.85643   1.86429   1.86959   1.87887
 Alpha virt. eigenvalues --    1.87957   1.88948   1.89941   1.90638   1.90826
 Alpha virt. eigenvalues --    1.91215   1.92461   1.92803   1.93435   1.94263
 Alpha virt. eigenvalues --    1.94426   1.94936   1.95569   1.96613   1.97942
 Alpha virt. eigenvalues --    1.98717   1.99604   2.00122   2.00240   2.01198
 Alpha virt. eigenvalues --    2.01310   2.01500   2.01783   2.02573   2.03679
 Alpha virt. eigenvalues --    2.05537   2.06501   2.06638   2.07325   2.08211
 Alpha virt. eigenvalues --    2.08613   2.08851   2.09735   2.10838   2.11395
 Alpha virt. eigenvalues --    2.12241   2.12580   2.13555   2.14168   2.14817
 Alpha virt. eigenvalues --    2.15878   2.16188   2.17690   2.19549   2.20432
 Alpha virt. eigenvalues --    2.21104   2.21285   2.21687   2.22413   2.22784
 Alpha virt. eigenvalues --    2.22976   2.23633   2.23942   2.24603   2.25133
 Alpha virt. eigenvalues --    2.25945   2.26147   2.26369   2.26887   2.28050
 Alpha virt. eigenvalues --    2.28544   2.29387   2.29951   2.31588   2.32594
 Alpha virt. eigenvalues --    2.34098   2.34928   2.36376   2.37132   2.37172
 Alpha virt. eigenvalues --    2.37913   2.38059   2.38212   2.39476   2.39888
 Alpha virt. eigenvalues --    2.40252   2.40811   2.42121   2.42800   2.43234
 Alpha virt. eigenvalues --    2.43390   2.44334   2.44769   2.44889   2.46220
 Alpha virt. eigenvalues --    2.46453   2.47886   2.48103   2.49415   2.49811
 Alpha virt. eigenvalues --    2.50304   2.50933   2.52052   2.53873   2.56002
 Alpha virt. eigenvalues --    2.58456   2.59877   2.60857   2.62125   2.63398
 Alpha virt. eigenvalues --    2.64709   2.65081   2.65953   2.66090   2.67626
 Alpha virt. eigenvalues --    2.68705   2.70008   2.71801   2.72056   2.72665
 Alpha virt. eigenvalues --    2.74011   2.74385   2.75463   2.76174   2.76865
 Alpha virt. eigenvalues --    2.77168   2.78481   2.78950   2.80940   2.81729
 Alpha virt. eigenvalues --    2.82745   2.83152   2.83724   2.84482   2.85526
 Alpha virt. eigenvalues --    2.86030   2.86479   2.87315   2.88411   2.89256
 Alpha virt. eigenvalues --    2.89962   2.91946   2.92699   2.93387   2.94568
 Alpha virt. eigenvalues --    2.94833   2.96132   2.97874   3.01370   3.02993
 Alpha virt. eigenvalues --    3.04142   3.06694   3.09291   3.10085   3.12017
 Alpha virt. eigenvalues --    3.18948   3.26898   3.29153   3.39175   3.41513
 Alpha virt. eigenvalues --    3.45040   3.53456   3.56407   3.57589   4.12660
 Alpha virt. eigenvalues --    4.13540   4.15201   4.16852   4.18260   4.19134
 Alpha virt. eigenvalues --    4.19562   4.20448   4.21989   4.23543   4.25287
 Alpha virt. eigenvalues --    4.26035   4.27473   4.28698   4.30762   4.31719
 Alpha virt. eigenvalues --    4.33381   4.34588   4.36933   4.40132   4.40370
 Alpha virt. eigenvalues --    4.41612   4.44511   4.46129   4.49150   4.49440
 Alpha virt. eigenvalues --    4.49747   4.52846   4.57341   4.60739   4.61923
 Alpha virt. eigenvalues --    4.64161   4.67477   4.69411   4.79024   4.85076
 Alpha virt. eigenvalues --    4.89519
          Condensed to atoms (all electrons):
 Mulliken atomic charges:
              1
     1  C   -0.197840
     2  C   -0.154403
     3  C    0.035503
     4  C    0.009583
     5  N   -0.437523
     6  C    0.035730
     7  C    0.295166
     8  C   -0.254765
     9  C    0.049017
    10  N   -0.493037
    11  C    0.714371
    12  N   -0.568410
    13  N   -0.802069
    14  C    0.291486
    15  C    0.119860
    16  C   -0.240382
    17  C   -0.191299
    18  C    0.358159
    19  C   -0.269699
    20  N   -0.757971
    21  C    0.585741
    22  C    0.015198
    23  C   -0.205365
    24  C   -0.217901
    25  C    0.155956
    26  C   -0.223075
    27  C   -0.178383
    28  C   -0.263557
    29  N   -0.382217
    30  C   -0.183898
    31  C   -0.181778
    32  N   -0.385714
    33  C   -0.349277
    34  C   -0.182635
    35  C   -0.186526
    36  O   -0.513287
    37  C   -0.607373
    38  H    0.186141
    39  H    0.186727
    40  H    0.198124
    41  H    0.179046
    42  H    0.180747
    43  H    0.189491
    44  H    0.369213
    45  H    0.160819
    46  H    0.213081
    47  H    0.199367
    48  H    0.361560
    49  H    0.185467
    50  H    0.172057
    51  H    0.163617
    52  H    0.195610
    53  H    0.170279
    54  H    0.168918
    55  H    0.148145
    56  H    0.158364
    57  H    0.141659
    58  H    0.174884
    59  H    0.135267
    60  H    0.164120
    61  H    0.167873
    62  H    0.153494
    63  H    0.172932
    64  H    0.159412
    65  H    0.154995
    66  H    0.178039
    67  H    0.182744
    68  H    0.190420
 Sum of Mulliken atomic charges =   0.00000
 Mulliken charges with hydrogens summed into heavy atoms:
              1
     1  C   -0.011699
     2  C    0.032324
     3  C    0.035503
     4  C    0.207707
     5  N   -0.437523
     6  C    0.214776
     7  C    0.295166
     8  C   -0.074019
     9  C    0.238509
    10  N   -0.493037
    11  C    0.714371
    12  N   -0.568410
    13  N   -0.432856
    14  C    0.291486
    15  C    0.119860
    16  C   -0.079563
    17  C    0.021783
    18  C    0.358159
    19  C   -0.070332
    20  N   -0.396411
    21  C    0.585741
    22  C    0.015198
    23  C   -0.019898
    24  C   -0.045845
    25  C    0.155956
    26  C   -0.059458
    27  C    0.017226
    28  C    0.075640
    29  N   -0.382217
    30  C    0.122610
    31  C    0.134764
    32  N   -0.385714
    33  C    0.117983
    34  C    0.143792
    35  C    0.127881
    36  O   -0.513287
    37  C   -0.056169
 Sum of Mulliken charges with hydrogens summed into heavy atoms =   0.00000
 Electronic spatial extent (au):  <R**2>=          21211.7469
 Charge=              0.0000 electrons
 Dipole moment (field-independent basis, Debye):
    X=              0.5803    Y=              6.5721    Z=              0.4341  Tot=              6.6120
 Quadrupole moment (field-independent basis, Debye-Ang):
   XX=           -193.2985   YY=           -202.5051   ZZ=           -220.4853
   XY=              3.1056   XZ=             -1.2799   YZ=             -5.2211
 Traceless Quadrupole moment (field-independent basis, Debye-Ang):
   XX=             12.1312   YY=              2.9245   ZZ=            -15.0557
   XY=              3.1056   XZ=             -1.2799   YZ=             -5.2211
 Octapole moment (field-independent basis, Debye-Ang**2):
  XXX=             80.0526  YYY=            204.3853  ZZZ=             11.3528  XYY=             33.4260
  XXY=            -43.1175  XXZ=             31.6485  XZZ=            -22.7203  YZZ=              1.3416
  YYZ=             17.7587  XYZ=              2.2802
 Hexadecapole moment (field-independent basis, Debye-Ang**3):
 XXXX=         -18570.1024 YYYY=          -7864.9794 ZZZZ=          -1607.7296 XXXY=            -50.9696
 XXXZ=           -102.8394 YYYX=            149.1184 YYYZ=            -76.2694 ZZZX=            -50.0472
 ZZZY=             15.0310 XXYY=          -4005.3596 XXZZ=          -3409.1729 YYZZ=          -1721.4771
 XXYZ=            -52.7848 YYXZ=            -15.8672 ZZXY=            -24.6047
 N-N= 3.895095391184D+03 E-N=-1.146178635663D+04  KE= 1.567155870482D+03
 No NMR shielding tensors so no spin-rotation constants.
 Leave Link  601 at Tue Mar 10 16:33:31 2020, MaxMem= 2684354560 cpu:       3.2
 (Enter /opt/g09gh/gaussian/g09/l9999.exe)
 1\1\GINC-NODE43\FOpt\RwB97XD\6-31G(d)\C29H31N7O1\BDW2292\10-Mar-2020\0
 \\#P opt=(,maxcycle=400) wB97XD/6-31G* MaxDisk=100GB\\MOLECULE0 Rotata
 ble Bond Optimization on g2-node38.bme.utexas.edu\\0,1\C,-1.7268605567
 ,1.7566641053,-5.3251401623\C,-0.3680426605,1.6992012796,-5.6104293042
 \C,0.3428228282,0.5445223287,-5.2876399817\C,-0.3696306138,-0.50647591
 15,-4.6948787701\N,-1.6706415155,-0.4645474601,-4.4130891059\C,-2.3282
 539202,0.6566277301,-4.7233939943\C,1.8047226905,0.4063586857,-5.50802
 64958\C,2.5172225131,1.1210826048,-6.4666685584\C,3.8895571786,0.87882
 10957,-6.5162682382\N,4.5169901713,0.0213074783,-5.7230236109\C,3.7316
 820128,-0.6304866386,-4.8415008761\N,2.4159539315,-0.4671757476,-4.704
 2040856\N,4.3900697597,-1.5224288384,-4.0397913548\C,3.8900113217,-2.4
 17461946,-3.0755136908\C,4.7221818732,-3.4701599355,-2.643399477\C,4.2
 045879146,-4.3605996019,-1.7066124481\C,2.9111433529,-4.2699747964,-1.
 1955016524\C,2.1112379514,-3.2196722409,-1.6354025666\C,2.6119057616,-
 2.2893972709,-2.5457534525\N,0.7743056465,-3.012129679,-1.2577107061\C
 ,-0.0755839911,-3.8133345271,-0.5392159454\C,-1.4996327953,-3.33789700
 84,-0.6047131816\C,-2.0277392575,-2.7595493925,-1.7627879986\C,-3.3319
 824021,-2.2878616805,-1.7789000754\C,-4.1319543458,-2.3585397646,-0.63
 84712122\C,-3.6158223317,-2.9889104688,0.4972397723\C,-2.3164406412,-3
 .4822090938,0.5161356669\C,-5.5053186585,-1.7074869919,-0.6174744984\N
 ,-5.5633666983,-0.2827386802,-0.3276905996\C,-5.1489427558,0.648741681
 5,-1.3714911807\C,-3.6780361896,1.0940173572,-1.2789911392\N,-3.306412
 154,1.5714408457,0.0500536238\C,-3.8165856553,2.8945863559,0.362426876
 9\C,-3.6428103056,0.5596175469,1.0491011292\C,-5.1192194202,0.13264270
 16,0.9982382289\O,0.2717466219,-4.7923731245,0.0996068799\C,6.11969004
 44,-3.636888817,-3.1838530213\H,-2.3082292803,2.6434751511,-5.55344775
 14\H,0.1348151878,2.5548835916,-6.0518076696\H,0.1537520226,-1.4262907
 94,-4.4465324931\H,-3.3870120208,0.6744465355,-4.4738906648\H,2.046572
 7387,1.8142556828,-7.1527704915\H,4.5138681911,1.4024900196,-7.2374842
 109\H,5.3729947771,-1.5830668107,-4.2597759802\H,4.8376796737,-5.17640
 8635,-1.3667538123\H,2.5303002191,-4.9910886758,-0.4853493026\H,1.9878
 863735,-1.4721981889,-2.8743284515\H,0.360344521,-2.1738891478,-1.6380
 788373\H,-1.4402685298,-2.6863526192,-2.6733858059\H,-3.7144358236,-1.
 8385913315,-2.6918612533\H,-4.2373994919,-3.0804234173,1.3852774142\H,
 -1.9140846762,-3.9680886042,1.3994731151\H,-5.9924968452,-1.8620891877
 ,-1.5878343766\H,-6.1265428373,-2.2163150924,0.130730448\H,-5.34731098
 31,0.192693094,-2.3488844769\H,-5.7937337093,1.5378509609,-1.302287114
 9\H,-3.4837526292,1.8929376145,-2.0060615738\H,-3.0159652478,0.2578034
 516,-1.5297255055\H,-4.9167174404,2.9867610429,0.3896503529\H,-3.44301
 4426,3.607406005,-0.3810924104\H,-3.4347102718,3.2014545619,1.34225408
 39\H,-3.3989031754,0.9518474643,2.0438766745\H,-3.0002721168,-0.310624
 8122,0.8715966991\H,-5.7503057139,0.9734353422,1.3226074861\H,-5.30078
 14931,-0.6860396146,1.7035926935\H,6.7638348579,-2.7800180439,-2.94335
 06783\H,6.1244781393,-3.759983387,-4.2746973374\H,6.594556305,-4.52320
 43367,-2.7556265629\\Version=EM64L-G09RevA.02\State=1-A\HF=-1581.76321
 61\RMSD=5.914e-09\RMSF=5.298e-06\Dipole=-0.1315738,2.0661749,-1.575005
 8\Quadrupole=4.4787658,-6.827563,2.3487972,-4.064079,-6.4044276,-5.775
 8035\PG=C01 [X(C29H31N7O1)]\\@


 MODELS ARE TO BE USED, NOT BELIEVED.

    -- PARAPHRASED BY H. THIEL IN "PRINCIPLES OF ECONOMETRICS"
 Job cpu time:  0 days 10 hours 56 minutes 28.5 seconds.
 File lengths (MBytes):  RWF=    244 Int=      0 D2E=      0 Chk=     25 Scr=      1
 Normal termination of Gaussian 09 at Tue Mar 10 16:33:31 2020.
