
    -----------------------------------------------------------------------
          Psi4: An Open-Source Ab Initio Electronic Structure Package
                               Psi4 1.3.2 release

                         Git: Rev {HEAD} ecbda83 


    R. M. Parrish, L. A. Burns, D. G. A. Smith, A. C. Simmonett,
    A. E. DePrince III, E. G. Hohenstein, U. Bozkaya, A. Yu. Sokolov,
    R. Di Remigio, R. M. Richard, J. F. Gonthier, A. M. James,
    H. R. McAlexander, A. Kumar, M. Saitow, X. Wang, B. P. Pritchard,
    P. Verma, H. F. Schaefer III, K. Patkowski, R. A. King, E. F. Valeev,
    F. A. Evangelista, J. M. Turney, T. D. Crawford, and C. D. Sherrill,
    J. Chem. Theory Comput. 13(7) pp 3185--3197 (2017).
    (doi: 10.1021/acs.jctc.7b00174)


                         Additional Contributions by
    P. Kraus, H. Kruse, M. H. Lechner, M. C. Schieber, R. A. Shaw,
    A. Alenaizan, R. Galvelis, Z. L. Glick, S. Lehtola, and J. P. Misiewicz

    -----------------------------------------------------------------------


    Psi4 started on: Wednesday, 04 March 2020 12:32PM

    Process ID: 56875
    Host:       node45.bme.utexas.edu
    PSIDATADIR: /home/bdw2292/miniconda3/envs/p4env/share/psi4
    Memory:     500.0 MiB
    Threads:    1
    
  ==> Input File <==

--------------------------------------------------------------------------
molecule { 
0 1
 C    5.063362    1.329108    2.977175
 C    4.801788    0.045151    2.480165
 C    3.999700   -0.117479    1.332523
 C    3.517777    1.078669    0.746495
 N    3.758099    2.313343    1.204663
 C    4.517288    2.427664    2.304466
 C    3.648765   -1.462581    0.745123
 C    4.098908   -2.700732    1.231804
 C    3.638235   -3.827484    0.543482
 N    2.818389   -3.785772   -0.501788
 C    2.427684   -2.555087   -0.895716
 N    2.818759   -1.416106   -0.316415
 N    1.562774   -2.535967   -1.978229
 C    0.926847   -1.487193   -2.733576
 C    0.310017   -1.807347   -3.982492
 C   -0.335531   -0.764296   -4.667716
 C   -0.411495    0.550550   -4.194736
 C    0.199617    0.842996   -2.972230
 C    0.844027   -0.174054   -2.253784
 N    0.206722    2.114093   -2.352910
 C   -0.810413    3.021192   -2.230116
 C   -1.698330    2.785500   -1.028600
 C   -1.169664    2.488005    0.237844
 C   -2.022231    2.234929    1.313712
 C   -3.421535    2.271291    1.165299
 C   -3.935470    2.587545   -0.107403
 C   -3.090872    2.854055   -1.187802
 C   -4.342390    1.912223    2.332119
 N   -4.642368    0.490240    2.581715
 C   -3.606622   -0.367164    3.200302
 C   -2.748816   -1.171521    2.189776
 N   -3.539965   -1.979389    1.232531
 C   -4.019985   -3.281995    1.708642
 C   -4.543646   -1.104666    0.578086
 C   -5.403138   -0.268478    1.562606
 O   -0.996029    3.937489   -3.010806
 C    0.309336   -3.202288   -4.585511
 H    5.672612    1.475858    3.864008
 H    5.222237   -0.805361    3.010788
 H    2.911137    1.034950   -0.150923
 H    4.695184    3.442703    2.656264
 H    4.763201   -2.816953    2.079138
 H    3.945215   -4.825441    0.854663
 H    1.417753   -3.479158   -2.306005
 H   -0.819820   -0.974160   -5.620814
 H   -0.920262    1.327621   -4.753761
 H    1.279398    0.049899   -1.292851
 H    1.101450    2.478395   -2.055804
 H   -0.091638    2.443642    0.371296
 H   -1.582842    1.986892    2.279894
 H   -5.012923    2.614281   -0.268497
 H   -3.492821    3.091795   -2.169566
 H   -3.910351    2.316700    3.258981
 H   -5.307254    2.418660    2.184393
 H   -3.018954    0.185446    3.884606
 H   -4.372861   -1.457218    4.051456
 H   -1.885812   -2.088364    2.979014
 H   -2.044656   -0.458185    1.567002
 H   -4.747861   -3.161620    2.518827
 H   -3.180078   -3.884139    2.073283
 H   -4.494600   -3.831486    0.887629
 H   -5.170106   -1.705703   -0.099742
 H   -3.770676   -0.125882   -0.274498
 H   -6.285942   -1.317760    2.337219
 H   -6.115946    0.414399    1.012862
 H   -0.266713   -3.904062   -3.965838
 H    1.328442   -3.603375   -4.678974
 H   -0.131617   -3.235350   -5.591410
}
memory 20GB
set_num_threads(6)
psi4_io.set_default_path("/scratch/bdw2292")
set freeze_core True
E, wfn = energy('mp2/6-311++G**',return_wfn=True)
oeprop(wfn,"WIBERG_LOWDIN_INDICES")
clean()
--------------------------------------------------------------------------

  Memory set to  18.626 GiB by Python driver.
  Threads set to 6 by Python driver.
    SCF Algorithm Type (re)set to DF.

*** tstart() called on node45.bme.utexas.edu
*** at Wed Mar  4 12:32:22 2020

   => Loading Basis Set <=

    Name: 6-311++G**
    Role: ORBITAL
    Keyword: BASIS
    atoms 1-4, 6-9, 11, 14-19, 21-28, 30-31, 33-35, 37 entry C          line   119 file /home/bdw2292/miniconda3/envs/p4env/share/psi4/basis/6-311ppgss.gbs 
    atoms 5, 10, 12-13, 20, 29, 32                     entry N          line   140 file /home/bdw2292/miniconda3/envs/p4env/share/psi4/basis/6-311ppgss.gbs 
    atoms 36                                           entry O          line   161 file /home/bdw2292/miniconda3/envs/p4env/share/psi4/basis/6-311ppgss.gbs 
    atoms 38-68                                        entry H          line    42 file /home/bdw2292/miniconda3/envs/p4env/share/psi4/basis/6-311ppgss.gbs 


         ---------------------------------------------------------
                                   SCF
               by Justin Turney, Rob Parrish, Andy Simmonett
                          and Daniel G. A. Smith
                              RHF Reference
                        6 Threads,  19073 MiB Core
         ---------------------------------------------------------

  ==> Geometry <==

    Molecular point group: c1
    Full point group: C1

    Geometry (in Angstrom), charge = 0, multiplicity = 1:

       Center              X                  Y                   Z               Mass       
    ------------   -----------------  -----------------  -----------------  -----------------
         C            5.160279310637     1.319198117247     3.162786480613    12.000000000000
         C            4.898705310637     0.035241117247     2.665776480613    12.000000000000
         C            4.096617310637    -0.127388882753     1.518134480613    12.000000000000
         C            3.614694310637     1.068759117247     0.932106480613    12.000000000000
         N            3.855016310637     2.303433117247     1.390274480613    14.003074004430
         C            4.614205310637     2.417754117247     2.490077480613    12.000000000000
         C            3.745682310637    -1.472490882753     0.930734480613    12.000000000000
         C            4.195825310637    -2.710641882753     1.417415480613    12.000000000000
         C            3.735152310637    -3.837393882753     0.729093480613    12.000000000000
         N            2.915306310637    -3.795681882753    -0.316176519387    14.003074004430
         C            2.524601310637    -2.564996882753    -0.710104519387    12.000000000000
         N            2.915676310637    -1.426015882753    -0.130803519387    14.003074004430
         N            1.659691310637    -2.545876882753    -1.792617519387    14.003074004430
         C            1.023764310637    -1.497102882753    -2.547964519387    12.000000000000
         C            0.406934310637    -1.817256882753    -3.796880519387    12.000000000000
         C           -0.238613689363    -0.774205882753    -4.482104519387    12.000000000000
         C           -0.314577689363     0.540640117247    -4.009124519387    12.000000000000
         C            0.296534310637     0.833086117247    -2.786618519387    12.000000000000
         C            0.940944310637    -0.183963882753    -2.068172519387    12.000000000000
         N            0.303639310637     2.104183117247    -2.167298519387    14.003074004430
         C           -0.713495689363     3.011282117247    -2.044504519387    12.000000000000
         C           -1.601412689363     2.775590117247    -0.842988519387    12.000000000000
         C           -1.072746689363     2.478095117247     0.423455480613    12.000000000000
         C           -1.925313689363     2.225019117247     1.499323480613    12.000000000000
         C           -3.324617689363     2.261381117247     1.350910480613    12.000000000000
         C           -3.838552689363     2.577635117247     0.078208480613    12.000000000000
         C           -2.993954689363     2.844145117247    -1.002190519387    12.000000000000
         C           -4.245472689363     1.902313117247     2.517730480613    12.000000000000
         N           -4.545450689363     0.480330117247     2.767326480613    14.003074004430
         C           -3.509704689363    -0.377073882753     3.385913480613    12.000000000000
         C           -2.651898689363    -1.181430882753     2.375387480613    12.000000000000
         N           -3.443047689363    -1.989298882753     1.418142480613    14.003074004430
         C           -3.923067689363    -3.291904882753     1.894253480613    12.000000000000
         C           -4.446728689363    -1.114575882753     0.763697480613    12.000000000000
         C           -5.306220689363    -0.278387882753     1.748217480613    12.000000000000
         O           -0.899111689363     3.927579117247    -2.825194519387    15.994914619570
         C            0.406253310637    -3.212197882753    -4.399899519387    12.000000000000
         H            5.769529310637     1.465948117247     4.049619480613     1.007825032230
         H            5.319154310637    -0.815270882753     3.196399480613     1.007825032230
         H            3.008054310637     1.025040117247     0.034688480613     1.007825032230
         H            4.792101310637     3.432793117247     2.841875480613     1.007825032230
         H            4.860118310637    -2.826862882753     2.264749480613     1.007825032230
         H            4.042132310637    -4.835350882753     1.040274480613     1.007825032230
         H            1.514670310637    -3.489067882753    -2.120393519387     1.007825032230
         H           -0.722902689363    -0.984069882753    -5.435202519387     1.007825032230
         H           -0.823344689363     1.317711117247    -4.568149519387     1.007825032230
         H            1.376315310637     0.039989117247    -1.107239519387     1.007825032230
         H            1.198367310637     2.468485117247    -1.870192519387     1.007825032230
         H            0.005279310637     2.433732117247     0.556907480613     1.007825032230
         H           -1.485924689363     1.976982117247     2.465505480613     1.007825032230
         H           -4.916005689363     2.604371117247    -0.082885519387     1.007825032230
         H           -3.395903689363     3.081885117247    -1.983954519387     1.007825032230
         H           -3.813433689363     2.306790117247     3.444592480613     1.007825032230
         H           -5.210336689363     2.408750117247     2.370004480613     1.007825032230
         H           -2.922036689363     0.175536117247     4.070217480613     1.007825032230
         H           -4.275943689363    -1.467127882753     4.237067480613     1.007825032230
         H           -1.788894689363    -2.098273882753     3.164625480613     1.007825032230
         H           -1.947738689363    -0.468094882753     1.752613480613     1.007825032230
         H           -4.650943689363    -3.171529882753     2.704438480613     1.007825032230
         H           -3.083160689363    -3.894048882753     2.258894480613     1.007825032230
         H           -4.397682689363    -3.841395882753     1.073240480613     1.007825032230
         H           -5.073188689363    -1.715612882753     0.085869480613     1.007825032230
         H           -3.673758689363    -0.135791882753    -0.088886519387     1.007825032230
         H           -6.189024689363    -1.327669882753     2.522830480613     1.007825032230
         H           -6.019028689363     0.404489117247     1.198473480613     1.007825032230
         H           -0.169795689363    -3.913971882753    -3.780226519387     1.007825032230
         H            1.425359310637    -3.613284882753    -4.493362519387     1.007825032230
         H           -0.034699689363    -3.245259882753    -5.405798519387     1.007825032230

  Running in c1 symmetry.

  Rotational constants: A =      0.00349  B =      0.00228  C =      0.00218 [cm^-1]
  Rotational constants: A =    104.58600  B =     68.26196  C =     65.43081 [MHz]
  Nuclear repulsion = 3848.029012421349307

  Charge       = 0
  Multiplicity = 1
  Electrons    = 262
  Nalpha       = 131
  Nbeta        = 131

  ==> Algorithm <==

  SCF Algorithm Type is DF.
  DIIS enabled.
  MOM disabled.
  Fractional occupation disabled.
  Guess Type is SAD.
  Energy threshold   = 1.00e-08
  Density threshold  = 1.00e-08
  Integral threshold = 0.00e+00

  ==> Primary Basis <==

  Basis Set: 6-311++G**
    Blend: 6-311++G**
    Number of shells: 525
    Number of basis function: 1031
    Number of Cartesian functions: 1068
    Spherical Harmonics?: true
    Max angular momentum: 2

   => Loading Basis Set <=

    Name: (6-311++G** AUX)
    Role: JKFIT
    Keyword: DF_BASIS_SCF
    atoms 1-4, 6-9, 11, 14-19, 21-28, 30-31, 33-35, 37 entry C          line   162 file /home/bdw2292/miniconda3/envs/p4env/share/psi4/basis/aug-cc-pvtz-jkfit.gbs 
    atoms 5, 10, 12-13, 20, 29, 32                     entry N          line   224 file /home/bdw2292/miniconda3/envs/p4env/share/psi4/basis/aug-cc-pvtz-jkfit.gbs 
    atoms 36                                           entry O          line   286 file /home/bdw2292/miniconda3/envs/p4env/share/psi4/basis/aug-cc-pvtz-jkfit.gbs 
    atoms 38-68                                        entry H          line    70 file /home/bdw2292/miniconda3/envs/p4env/share/psi4/basis/aug-cc-pvtz-jkfit.gbs 

  ==> Pre-Iterations <==

   -------------------------------------------------------
    Irrep   Nso     Nmo     Nalpha   Nbeta   Ndocc  Nsocc
   -------------------------------------------------------
     A       1031    1031       0       0       0       0
   -------------------------------------------------------
    Total    1031    1031     131     131     131       0
   -------------------------------------------------------

  ==> Integral Setup <==

  ==> DiskDFJK: Density-Fitted J/K Matrices <==

    J tasked:                  Yes
    K tasked:                  Yes
    wK tasked:                  No
    OpenMP threads:              6
    Integrals threads:           6
    Memory [MiB]:            14305
    Algorithm:                Disk
    Integral Cache:           NONE
    Schwarz Cutoff:          1E-12
    Fitting Condition:       1E-10

   => Auxiliary Basis Set <=

  Basis Set: (6-311++G** AUX)
    Blend: AUG-CC-PVTZ-JKFIT
    Number of shells: 1544
    Number of basis function: 5274
    Number of Cartesian functions: 6552
    Spherical Harmonics?: true
    Max angular momentum: 4

  Minimum eigenvalue in the overlap matrix is 1.2119070291E-07.
  Using Symmetric Orthogonalization.

  SCF Guess: Superposition of Atomic Densities via on-the-fly atomic UHF.

  ==> Iterations <==

                           Total Energy        Delta E     RMS |[F,P]|

   @DF-RHF iter SAD: -1571.25897583001256   -1.57126e+03   0.00000e+00 
   @DF-RHF iter   1: -1571.29981309437653   -4.08373e-02   1.21888e-03 DIIS
   @DF-RHF iter   2: -1572.08007662377850   -7.80264e-01   6.40064e-04 DIIS
   @DF-RHF iter   3: -1572.27519362710382   -1.95117e-01   1.61040e-04 DIIS
   @DF-RHF iter   4: -1572.29218388557047   -1.69903e-02   6.80838e-05 DIIS
   @DF-RHF iter   5: -1572.29494941556277   -2.76553e-03   1.49712e-05 DIIS
   @DF-RHF iter   6: -1572.29513573927966   -1.86324e-04   6.83633e-06 DIIS
   @DF-RHF iter   7: -1572.29518098486460   -4.52456e-05   2.19457e-06 DIIS
   @DF-RHF iter   8: -1572.29518817791677   -7.19305e-06   9.86822e-07 DIIS
   @DF-RHF iter   9: -1572.29518944653728   -1.26862e-06   3.59967e-07 DIIS
   @DF-RHF iter  10: -1572.29518967281524   -2.26278e-07   1.65585e-07 DIIS
   @DF-RHF iter  11: -1572.29518971644393   -4.36287e-08   6.72684e-08 DIIS
   @DF-RHF iter  12: -1572.29518972671372   -1.02698e-08   3.02886e-08 DIIS
   @DF-RHF iter  13: -1572.29518972882579   -2.11207e-09   1.30103e-08 DIIS
   @DF-RHF iter  14: -1572.29518972923279   -4.06999e-10   6.69179e-09 DIIS
  Energy and wave function converged.


  ==> Post-Iterations <==

    Orbital Energies [Eh]
    ---------------------

    Doubly Occupied:                                                      

       1A    -20.554366     2A    -15.601948     3A    -15.582388  
       4A    -15.571914     5A    -15.571733     6A    -15.567573  
       7A    -15.563042     8A    -15.553619     9A    -11.373458  
      10A    -11.368302    11A    -11.332180    12A    -11.312078  
      13A    -11.311591    14A    -11.303647    15A    -11.303059  
      16A    -11.300695    17A    -11.298310    18A    -11.297016  
      19A    -11.296270    20A    -11.287970    21A    -11.286003  
      22A    -11.280526    23A    -11.276847    24A    -11.261995  
      25A    -11.257319    26A    -11.254657    27A    -11.253507  
      28A    -11.250870    29A    -11.249858    30A    -11.249578  
      31A    -11.247719    32A    -11.246696    33A    -11.243063  
      34A    -11.242322    35A    -11.236493    36A    -11.230506  
      37A    -11.227582    38A     -1.403234    39A     -1.342417  
      40A     -1.274391    41A     -1.248938    42A     -1.245927  
      43A     -1.239415    44A     -1.207297    45A     -1.199766  
      46A     -1.162196    47A     -1.139008    48A     -1.112675  
      49A     -1.072805    50A     -1.058604    51A     -1.045901  
      52A     -1.037457    53A     -1.025354    54A     -1.008605  
      55A     -1.000644    56A     -0.978080    57A     -0.944469  
      58A     -0.929095    59A     -0.923459    60A     -0.899209  
      61A     -0.869776    62A     -0.867864    63A     -0.855119  
      64A     -0.848028    65A     -0.838105    66A     -0.832582  
      67A     -0.822629    68A     -0.810147    69A     -0.777690  
      70A     -0.750643    71A     -0.741069    72A     -0.725250  
      73A     -0.714985    74A     -0.708745    75A     -0.703823  
      76A     -0.682344    77A     -0.679620    78A     -0.667894  
      79A     -0.666478    80A     -0.655718    81A     -0.653440  
      82A     -0.653042    83A     -0.646074    84A     -0.633686  
      85A     -0.623544    86A     -0.621179    87A     -0.617023  
      88A     -0.613407    89A     -0.607758    90A     -0.604251  
      91A     -0.602332    92A     -0.600448    93A     -0.595878  
      94A     -0.590816    95A     -0.583314    96A     -0.581734  
      97A     -0.578064    98A     -0.573931    99A     -0.558198  
     100A     -0.554164   101A     -0.540767   102A     -0.539586  
     103A     -0.535479   104A     -0.530773   105A     -0.524960  
     106A     -0.522958   107A     -0.514134   108A     -0.509556  
     109A     -0.507153   110A     -0.498726   111A     -0.494412  
     112A     -0.491665   113A     -0.485132   114A     -0.481876  
     115A     -0.456763   116A     -0.449858   117A     -0.442839  
     118A     -0.437860   119A     -0.423222   120A     -0.416670  
     121A     -0.412127   122A     -0.397094   123A     -0.392799  
     124A     -0.378127   125A     -0.372490   126A     -0.344572  
     127A     -0.343414   128A     -0.342688   129A     -0.316629  
     130A     -0.309260   131A     -0.292743  

    Virtual:                                                              

     132A      0.027416   133A      0.036455   134A      0.039122  
     135A      0.043083   136A      0.044334   137A      0.046558  
     138A      0.049633   139A      0.051841   140A      0.055588  
     141A      0.060226   142A      0.062310   143A      0.063634  
     144A      0.067473   145A      0.069421   146A      0.073509  
     147A      0.075593   148A      0.075993   149A      0.078282  
     150A      0.081932   151A      0.084077   152A      0.087012  
     153A      0.089986   154A      0.090375   155A      0.090880  
     156A      0.095417   157A      0.099908   158A      0.102947  
     159A      0.104932   160A      0.106534   161A      0.109851  
     162A      0.112987   163A      0.114836   164A      0.116497  
     165A      0.118062   166A      0.119677   167A      0.120526  
     168A      0.124890   169A      0.126976   170A      0.131475  
     171A      0.132478   172A      0.134120   173A      0.137073  
     174A      0.141984   175A      0.145783   176A      0.147786  
     177A      0.150552   178A      0.151095   179A      0.153533  
     180A      0.155405   181A      0.157451   182A      0.159971  
     183A      0.160994   184A      0.164318   185A      0.164859  
     186A      0.165553   187A      0.167161   188A      0.170859  
     189A      0.171869   190A      0.174215   191A      0.176752  
     192A      0.177907   193A      0.178798   194A      0.180178  
     195A      0.182308   196A      0.182720   197A      0.184807  
     198A      0.186634   199A      0.188859   200A      0.189477  
     201A      0.193520   202A      0.194531   203A      0.197458  
     204A      0.198166   205A      0.200064   206A      0.201850  
     207A      0.202677   208A      0.205987   209A      0.208665  
     210A      0.209580   211A      0.211641   212A      0.212306  
     213A      0.213841   214A      0.215980   215A      0.218444  
     216A      0.218816   217A      0.219012   218A      0.221025  
     219A      0.226758   220A      0.227034   221A      0.228180  
     222A      0.229025   223A      0.230656   224A      0.233681  
     225A      0.234384   226A      0.237199   227A      0.239264  
     228A      0.240176   229A      0.242028   230A      0.243550  
     231A      0.248417   232A      0.250218   233A      0.253706  
     234A      0.255502   235A      0.257347   236A      0.262282  
     237A      0.263622   238A      0.266043   239A      0.267419  
     240A      0.267800   241A      0.271481   242A      0.272031  
     243A      0.275985   244A      0.277018   245A      0.278045  
     246A      0.281043   247A      0.282501   248A      0.283360  
     249A      0.290218   250A      0.293119   251A      0.294662  
     252A      0.297081   253A      0.299689   254A      0.302380  
     255A      0.303315   256A      0.306185   257A      0.310749  
     258A      0.311907   259A      0.316351   260A      0.318275  
     261A      0.318767   262A      0.321824   263A      0.323543  
     264A      0.324186   265A      0.326679   266A      0.328104  
     267A      0.330369   268A      0.332953   269A      0.336916  
     270A      0.340829   271A      0.342290   272A      0.343393  
     273A      0.345553   274A      0.347837   275A      0.349997  
     276A      0.351866   277A      0.353579   278A      0.355853  
     279A      0.357775   280A      0.360210   281A      0.361799  
     282A      0.364302   283A      0.368329   284A      0.368976  
     285A      0.370618   286A      0.372006   287A      0.373936  
     288A      0.376793   289A      0.377165   290A      0.378872  
     291A      0.381512   292A      0.384126   293A      0.385392  
     294A      0.386204   295A      0.388885   296A      0.389700  
     297A      0.390365   298A      0.393473   299A      0.395460  
     300A      0.397554   301A      0.399272   302A      0.400540  
     303A      0.402680   304A      0.404398   305A      0.405992  
     306A      0.408637   307A      0.410410   308A      0.410670  
     309A      0.413703   310A      0.415525   311A      0.418583  
     312A      0.419661   313A      0.422197   314A      0.424343  
     315A      0.425978   316A      0.427164   317A      0.429739  
     318A      0.430917   319A      0.433812   320A      0.434928  
     321A      0.435908   322A      0.439349   323A      0.441509  
     324A      0.442753   325A      0.443656   326A      0.446157  
     327A      0.450822   328A      0.453138   329A      0.454586  
     330A      0.458479   331A      0.459015   332A      0.460476  
     333A      0.462585   334A      0.468108   335A      0.469677  
     336A      0.471316   337A      0.473468   338A      0.476274  
     339A      0.477265   340A      0.480987   341A      0.487408  
     342A      0.489518   343A      0.491299   344A      0.494719  
     345A      0.495611   346A      0.500937   347A      0.501897  
     348A      0.503318   349A      0.507539   350A      0.508771  
     351A      0.511077   352A      0.512050   353A      0.514088  
     354A      0.518040   355A      0.521060   356A      0.524611  
     357A      0.526169   358A      0.526723   359A      0.528968  
     360A      0.535224   361A      0.538416   362A      0.540036  
     363A      0.545759   364A      0.548219   365A      0.550785  
     366A      0.553163   367A      0.559978   368A      0.564093  
     369A      0.566346   370A      0.576105   371A      0.576732  
     372A      0.580935   373A      0.583201   374A      0.590833  
     375A      0.595527   376A      0.597607   377A      0.602379  
     378A      0.605301   379A      0.607494   380A      0.614971  
     381A      0.617818   382A      0.624882   383A      0.629220  
     384A      0.636394   385A      0.640584   386A      0.648676  
     387A      0.655669   388A      0.663447   389A      0.677853  
     390A      0.685784   391A      0.691835   392A      0.694087  
     393A      0.698911   394A      0.704800   395A      0.712136  
     396A      0.713436   397A      0.716804   398A      0.724272  
     399A      0.728874   400A      0.740544   401A      0.742557  
     402A      0.744034   403A      0.747999   404A      0.755459  
     405A      0.759182   406A      0.762773   407A      0.766194  
     408A      0.769754   409A      0.770766   410A      0.774603  
     411A      0.778108   412A      0.782950   413A      0.789777  
     414A      0.792972   415A      0.795652   416A      0.801031  
     417A      0.807159   418A      0.808094   419A      0.809541  
     420A      0.812281   421A      0.814561   422A      0.816617  
     423A      0.823992   424A      0.829295   425A      0.834189  
     426A      0.835564   427A      0.839878   428A      0.842062  
     429A      0.843124   430A      0.847076   431A      0.851311  
     432A      0.859054   433A      0.861470   434A      0.866033  
     435A      0.867009   436A      0.870455   437A      0.871687  
     438A      0.880404   439A      0.883117   440A      0.885722  
     441A      0.886179   442A      0.889445   443A      0.895722  
     444A      0.901590   445A      0.906442   446A      0.914095  
     447A      0.915039   448A      0.917298   449A      0.919766  
     450A      0.922270   451A      0.925295   452A      0.926012  
     453A      0.932750   454A      0.935373   455A      0.936444  
     456A      0.939563   457A      0.941981   458A      0.945993  
     459A      0.948090   460A      0.949974   461A      0.954281  
     462A      0.955033   463A      0.964346   464A      0.966742  
     465A      0.968182   466A      0.971261   467A      0.974081  
     468A      0.975859   469A      0.977967   470A      0.981291  
     471A      0.983474   472A      0.989105   473A      0.990683  
     474A      0.992638   475A      0.995744   476A      0.999136  
     477A      1.002295   478A      1.003614   479A      1.010219  
     480A      1.014058   481A      1.018284   482A      1.019426  
     483A      1.023073   484A      1.027531   485A      1.032963  
     486A      1.036928   487A      1.043184   488A      1.046786  
     489A      1.054094   490A      1.058249   491A      1.060200  
     492A      1.062995   493A      1.068666   494A      1.070087  
     495A      1.077196   496A      1.080111   497A      1.086078  
     498A      1.090288   499A      1.093807   500A      1.094738  
     501A      1.098753   502A      1.101992   503A      1.111048  
     504A      1.114140   505A      1.117148   506A      1.120437  
     507A      1.131030   508A      1.133756   509A      1.137595  
     510A      1.145175   511A      1.152119   512A      1.154832  
     513A      1.160046   514A      1.161879   515A      1.166506  
     516A      1.169219   517A      1.176816   518A      1.179132  
     519A      1.182166   520A      1.188082   521A      1.191540  
     522A      1.195911   523A      1.196164   524A      1.200258  
     525A      1.204191   526A      1.209162   527A      1.213409  
     528A      1.218337   529A      1.219263   530A      1.224516  
     531A      1.225508   532A      1.229056   533A      1.235057  
     534A      1.236501   535A      1.242862   536A      1.246538  
     537A      1.248290   538A      1.254406   539A      1.259098  
     540A      1.262811   541A      1.263809   542A      1.266552  
     543A      1.269840   544A      1.276472   545A      1.279599  
     546A      1.280259   547A      1.283131   548A      1.288593  
     549A      1.292992   550A      1.303318   551A      1.306817  
     552A      1.310398   553A      1.313515   554A      1.324731  
     555A      1.337069   556A      1.340096   557A      1.344923  
     558A      1.348219   559A      1.354400   560A      1.356598  
     561A      1.360508   562A      1.367181   563A      1.373301  
     564A      1.382026   565A      1.390122   566A      1.398094  
     567A      1.406735   568A      1.412837   569A      1.416894  
     570A      1.417985   571A      1.433364   572A      1.436118  
     573A      1.438852   574A      1.446483   575A      1.453199  
     576A      1.454427   577A      1.460988   578A      1.466537  
     579A      1.480466   580A      1.490151   581A      1.498102  
     582A      1.500898   583A      1.513907   584A      1.523997  
     585A      1.530481   586A      1.536338   587A      1.545024  
     588A      1.551836   589A      1.556908   590A      1.578307  
     591A      1.590764   592A      1.593172   593A      1.597108  
     594A      1.613646   595A      1.620458   596A      1.626094  
     597A      1.630130   598A      1.636079   599A      1.641152  
     600A      1.645544   601A      1.661403   602A      1.667024  
     603A      1.681747   604A      1.684848   605A      1.699247  
     606A      1.707835   607A      1.714034   608A      1.716964  
     609A      1.725385   610A      1.728768   611A      1.750995  
     612A      1.751884   613A      1.753070   614A      1.756546  
     615A      1.764232   616A      1.768685   617A      1.776231  
     618A      1.784105   619A      1.784691   620A      1.787207  
     621A      1.795393   622A      1.797166   623A      1.804812  
     624A      1.814038   625A      1.815594   626A      1.822338  
     627A      1.822735   628A      1.826109   629A      1.827146  
     630A      1.834444   631A      1.836993   632A      1.838787  
     633A      1.840599   634A      1.848169   635A      1.853027  
     636A      1.854777   637A      1.860272   638A      1.863933  
     639A      1.868829   640A      1.871450   641A      1.872828  
     642A      1.877162   643A      1.880955   644A      1.888129  
     645A      1.898572   646A      1.900652   647A      1.904810  
     648A      1.909048   649A      1.917405   650A      1.920544  
     651A      1.928147   652A      1.937877   653A      1.940396  
     654A      1.943806   655A      1.949943   656A      1.955392  
     657A      1.958415   658A      1.961793   659A      1.965836  
     660A      1.970741   661A      1.975606   662A      1.979092  
     663A      1.984331   664A      1.988381   665A      1.996103  
     666A      1.998355   667A      2.001704   668A      2.005973  
     669A      2.009550   670A      2.011161   671A      2.015116  
     672A      2.021451   673A      2.027649   674A      2.032816  
     675A      2.042950   676A      2.048371   677A      2.050252  
     678A      2.051690   679A      2.061571   680A      2.064437  
     681A      2.071201   682A      2.072309   683A      2.075807  
     684A      2.080737   685A      2.082266   686A      2.088926  
     687A      2.092286   688A      2.098119   689A      2.107205  
     690A      2.110313   691A      2.119397   692A      2.125512  
     693A      2.129226   694A      2.145624   695A      2.150534  
     696A      2.154922   697A      2.165306   698A      2.174375  
     699A      2.178927   700A      2.182240   701A      2.183609  
     702A      2.188675   703A      2.197768   704A      2.205234  
     705A      2.215713   706A      2.223415   707A      2.225424  
     708A      2.225782   709A      2.233106   710A      2.239786  
     711A      2.243492   712A      2.247746   713A      2.252011  
     714A      2.258253   715A      2.262270   716A      2.264998  
     717A      2.272715   718A      2.274472   719A      2.283703  
     720A      2.284767   721A      2.286601   722A      2.293011  
     723A      2.298957   724A      2.307924   725A      2.312035  
     726A      2.317474   727A      2.320440   728A      2.321761  
     729A      2.326447   730A      2.331196   731A      2.342047  
     732A      2.349237   733A      2.351896   734A      2.356100  
     735A      2.364174   736A      2.372010   737A      2.378601  
     738A      2.384496   739A      2.397659   740A      2.403474  
     741A      2.409919   742A      2.411199   743A      2.416533  
     744A      2.416868   745A      2.439407   746A      2.443424  
     747A      2.448082   748A      2.457514   749A      2.467233  
     750A      2.468352   751A      2.472301   752A      2.481717  
     753A      2.497163   754A      2.499086   755A      2.501786  
     756A      2.517578   757A      2.526969   758A      2.535446  
     759A      2.543845   760A      2.546432   761A      2.548823  
     762A      2.566931   763A      2.571141   764A      2.576706  
     765A      2.588689   766A      2.597625   767A      2.603654  
     768A      2.621806   769A      2.632102   770A      2.637412  
     771A      2.654353   772A      2.658235   773A      2.668941  
     774A      2.687125   775A      2.699737   776A      2.711609  
     777A      2.718384   778A      2.722695   779A      2.740109  
     780A      2.749616   781A      2.753031   782A      2.764569  
     783A      2.768121   784A      2.780949   785A      2.788606  
     786A      2.806496   787A      2.814127   788A      2.814757  
     789A      2.827004   790A      2.831750   791A      2.839106  
     792A      2.852689   793A      2.854455   794A      2.857185  
     795A      2.866274   796A      2.872699   797A      2.874284  
     798A      2.884163   799A      2.896830   800A      2.899036  
     801A      2.907192   802A      2.924232   803A      2.927278  
     804A      2.937243   805A      2.942160   806A      2.950982  
     807A      2.956130   808A      2.961892   809A      2.963206  
     810A      2.969958   811A      2.975261   812A      2.980367  
     813A      2.982943   814A      2.987430   815A      2.996593  
     816A      3.005792   817A      3.007199   818A      3.010306  
     819A      3.019003   820A      3.021618   821A      3.032300  
     822A      3.034515   823A      3.042433   824A      3.054817  
     825A      3.058436   826A      3.061254   827A      3.066465  
     828A      3.069957   829A      3.071228   830A      3.074459  
     831A      3.081284   832A      3.085518   833A      3.094180  
     834A      3.100110   835A      3.106739   836A      3.110154  
     837A      3.112253   838A      3.119610   839A      3.124440  
     840A      3.131114   841A      3.136232   842A      3.139284  
     843A      3.149585   844A      3.155762   845A      3.157469  
     846A      3.168856   847A      3.171777   848A      3.178768  
     849A      3.179563   850A      3.186334   851A      3.188888  
     852A      3.203601   853A      3.205588   854A      3.215965  
     855A      3.218616   856A      3.225606   857A      3.235901  
     858A      3.242207   859A      3.248879   860A      3.251585  
     861A      3.259988   862A      3.271327   863A      3.273010  
     864A      3.283323   865A      3.287820   866A      3.295424  
     867A      3.309004   868A      3.311582   869A      3.315657  
     870A      3.320133   871A      3.325607   872A      3.326823  
     873A      3.334712   874A      3.337381   875A      3.338327  
     876A      3.347224   877A      3.353177   878A      3.356186  
     879A      3.363336   880A      3.364930   881A      3.369788  
     882A      3.374097   883A      3.391597   884A      3.397603  
     885A      3.400513   886A      3.405544   887A      3.416631  
     888A      3.424761   889A      3.434360   890A      3.437265  
     891A      3.447829   892A      3.469707   893A      3.483774  
     894A      3.517014   895A      3.522169   896A      3.544502  
     897A      3.586480   898A      3.598707   899A      3.605884  
     900A      3.609568   901A      3.629658   902A      3.639348  
     903A      3.649442   904A      3.653969   905A      3.660097  
     906A      3.671416   907A      3.672513   908A      3.689230  
     909A      3.734182   910A      3.762904   911A      3.772935  
     912A      3.773705   913A      3.777792   914A      3.796400  
     915A      3.814032   916A      3.827166   917A      3.838617  
     918A      3.860277   919A      3.865098   920A      3.877658  
     921A      3.901036   922A      3.918406   923A      3.931137  
     924A      3.934257   925A      3.947775   926A      3.960614  
     927A      3.977239   928A      3.980328   929A      3.985577  
     930A      3.989705   931A      4.002630   932A      4.015260  
     933A      4.037278   934A      4.053941   935A      4.067152  
     936A      4.077344   937A      4.102867   938A      4.122650  
     939A      4.125255   940A      4.133327   941A      4.152921  
     942A      4.162717   943A      4.184979   944A      4.188229  
     945A      4.190588   946A      4.205694   947A      4.207172  
     948A      4.218394   949A      4.253241   950A      4.332463  
     951A      4.356847   952A      4.361253   953A      4.385647  
     954A      4.419395   955A      4.423886   956A      4.428806  
     957A      4.435219   958A      4.444760   959A      4.452404  
     960A      4.468936   961A      4.494211   962A      4.524398  
     963A      4.545968   964A      4.556760   965A      4.582167  
     966A      4.586270   967A      4.602858   968A      4.621133  
     969A      4.638488   970A      4.675766   971A      4.722751  
     972A      4.766049   973A      4.769525   974A      4.773144  
     975A      4.910338   976A      4.940044   977A      5.009792  
     978A      5.044414   979A      5.247458   980A      5.250379  
     981A      5.270081   982A      5.282434   983A      5.294656  
     984A      5.307610   985A      5.344464   986A      5.385597  
     987A      5.423232   988A      5.562346   989A      5.688625  
     990A      5.707535   991A      5.800417   992A      5.813002  
     993A      5.862493   994A      6.344988   995A     24.800784  
     996A     24.814151   997A     24.845946   998A     24.853477  
     999A     24.906009  1000A     24.931935  1001A     24.946324  
    1002A     25.015882  1003A     25.024230  1004A     25.027633  
    1005A     25.042066  1006A     25.069727  1007A     25.072479  
    1008A     25.093992  1009A     25.105880  1010A     25.124814  
    1011A     25.128781  1012A     25.134566  1013A     25.138235  
    1014A     25.171259  1015A     25.173492  1016A     25.205436  
    1017A     25.210697  1018A     25.240263  1019A     25.246678  
    1020A     25.250388  1021A     25.253443  1022A     25.322564  
    1023A     25.329177  1024A     36.952646  1025A     36.992484  
    1026A     37.028014  1027A     37.078606  1028A     37.111838  
    1029A     37.136415  1030A     37.158819  1031A     51.718926  

    Final Occupation by Irrep:
              A 
    DOCC [   131 ]

  @DF-RHF Final Energy: -1572.29518972923279

   => Energetics <=

    Nuclear Repulsion Energy =           3848.0290124213493073
    One-Electron Energy =               -9794.3228898790512176
    Two-Electron Energy =                4373.9986877284691218
    Total Energy =                      -1572.2951897292323338

Computation Completed


Properties will be evaluated at   0.000000,   0.000000,   0.000000 [a0]

Properties computed using the SCF density matrix

  Nuclear Dipole Moment: [e a0]
     X:   -29.3415      Y:   -15.6229      Z:    13.4794

  Electronic Dipole Moment: [e a0]
     X:    30.3763      Y:    14.2567      Z:   -12.0854

  Dipole Moment: [e a0]
     X:     1.0348      Y:    -1.3662      Z:     1.3940     Total:     2.2092

  Dipole Moment: [D]
     X:     2.6303      Y:    -3.4724      Z:     3.5433     Total:     5.6152


*** tstop() called on node45.bme.utexas.edu at Wed Mar  4 12:55:23 2020
Module time:
	user time   =    4079.82 seconds =      68.00 minutes
	system time =     169.79 seconds =       2.83 minutes
	total time  =       1381 seconds =      23.02 minutes
Total time:
	user time   =    4079.82 seconds =      68.00 minutes
	system time =     169.79 seconds =       2.83 minutes
	total time  =       1381 seconds =      23.02 minutes

*** tstart() called on node45.bme.utexas.edu
*** at Wed Mar  4 12:55:23 2020


  //>>>>>>>>>>>>>>>>>>>>>>>>>>>>>>>>>>>//
  //               DFMP2               //
  //<<<<<<<<<<<<<<<<<<<<<<<<<<<<<<<<<<<//

   => Loading Basis Set <=

    Name: (6-311++G** AUX)
    Role: RIFIT
    Keyword: DF_BASIS_MP2
    atoms 1-4, 6-9, 11, 14-19, 21-28, 30-31, 33-35, 37 entry C          line   148 file /home/bdw2292/miniconda3/envs/p4env/share/psi4/basis/aug-cc-pvtz-ri.gbs 
    atoms 5, 10, 12-13, 20, 29, 32                     entry N          line   206 file /home/bdw2292/miniconda3/envs/p4env/share/psi4/basis/aug-cc-pvtz-ri.gbs 
    atoms 36                                           entry O          line   264 file /home/bdw2292/miniconda3/envs/p4env/share/psi4/basis/aug-cc-pvtz-ri.gbs 
    atoms 38-68                                        entry H          line    30 file /home/bdw2292/miniconda3/envs/p4env/share/psi4/basis/aug-cc-pvtz-ri.gbs 

	 --------------------------------------------------------
	                          DF-MP2                         
	      2nd-Order Density-Fitted Moller-Plesset Theory     
	              RMP2 Wavefunction,   6 Threads             
	                                                         
	        Rob Parrish, Justin Turney, Andy Simmonett,      
	           Ed Hohenstein, and C. David Sherrill          
	 --------------------------------------------------------

   => Auxiliary Basis Set <=

  Basis Set: (6-311++G** AUX)
    Blend: AUG-CC-PVTZ-RI
    Number of shells: 1470
    Number of basis function: 5348
    Number of Cartesian functions: 6737
    Spherical Harmonics?: true
    Max angular momentum: 4

	 --------------------------------------------------------
	                 NBF =  1031, NAUX =  5348
	 --------------------------------------------------------
	   CLASS    FOCC     OCC    AOCC    AVIR     VIR    FVIR
	   PAIRS      37     131      94     900     900       0
	 --------------------------------------------------------

	-----------------------------------------------------------
	 ==================> DF-MP2 Energies <==================== 
	-----------------------------------------------------------
	 Reference Energy          =   -1572.2951897292327885 [Eh]
	 Singles Energy            =      -0.0000000000000000 [Eh]
	 Same-Spin Energy          =      -1.4701665590342943 [Eh]
	 Opposite-Spin Energy      =      -4.0484062510817163 [Eh]
	 Correlation Energy        =      -5.5185728101160105 [Eh]
	 Total Energy              =   -1577.8137625393487724 [Eh]
	-----------------------------------------------------------
	 ================> DF-SCS-MP2 Energies <================== 
	-----------------------------------------------------------
	 SCS Same-Spin Scale       =       0.3333333333333333 [-]
	 SCS Opposite-Spin Scale   =       1.2000000000000000 [-]
	 SCS Same-Spin Energy      =      -0.4900555196780981 [Eh]
	 SCS Opposite-Spin Energy  =      -4.8580875012980593 [Eh]
	 SCS Correlation Energy    =      -5.3481430209761571 [Eh]
	 SCS Total Energy          =   -1577.6433327502088559 [Eh]
	-----------------------------------------------------------


*** tstop() called on node45.bme.utexas.edu at Wed Mar  4 13:03:28 2020
Module time:
	user time   =    2636.32 seconds =      43.94 minutes
	system time =      23.35 seconds =       0.39 minutes
	total time  =        485 seconds =       8.08 minutes
Total time:
	user time   =    6716.14 seconds =     111.94 minutes
	system time =     193.14 seconds =       3.22 minutes
	total time  =       1866 seconds =      31.10 minutes


Properties will be evaluated at   0.000000,   0.000000,   0.000000 [a0]
OEProp: No title given, name of density matrix used for the following properties is 'SCF density'


  Wiberg Bond Indices using Orthogonal Lowdin Orbitals:

  Irrep: 1 Size: 68 x 68

                 1                   2                   3                   4                   5

    1     0.00000000000000     1.46595611803426     0.12491818567610     0.14052044634393     0.12443773975826
    2     1.46595611803426     0.00000000000000     1.40028357597218     0.12842429340448     0.12213367624331
    3     0.12491818567610     1.40028357597218     0.00000000000000     1.36219481006099     0.12007545607736
    4     0.14052044634393     0.12842429340448     1.36219481006099     0.00000000000000     1.67009056820437
    5     0.12443773975826     0.12213367624331     0.12007545607736     1.67009056820437     0.00000000000000
    6     1.46528662154602     0.13786570911741     0.13587778182545     0.15423205316888     1.63316068204824
    7     0.01466276287231     0.10314513047950     1.02117180998227     0.10327163073252     0.01393572078122
    8     0.00362700589593     0.04206276134419     0.09837625325485     0.02384896676349     0.00219456597664
    9     0.00036905940691     0.00478356069910     0.01484217586793     0.00410920900212     0.00069956527874
   10     0.00041188963696     0.00540202935314     0.00577336866825     0.00607498502976     0.00031860303749
   11     0.00089060939574     0.00337770020710     0.01817750684695     0.00683212764058     0.00042716669722
   12     0.00278079282314     0.02214743895270     0.11952126737118     0.06180683904271     0.00400841709949
   13     0.00017169743606     0.00048211733557     0.00163921759124     0.00089445220899     0.00008657269836
   14     0.00002950047195     0.00009122493209     0.00054229134437     0.00115764010657     0.00009149834944
   15     0.00001152278729     0.00002265701816     0.00006483431855     0.00014318842382     0.00001779759320
   16     0.00000186373741     0.00000470574827     0.00003698616086     0.00019471825418     0.00001066563592
   17     0.00001323323024     0.00001851548727     0.00004988176517     0.00025227972102     0.00003491090907
   18     0.00002128254133     0.00004851373156     0.00024762307653     0.00140664752940     0.00016356412494
   19     0.00012339186332     0.00024012683037     0.00184771216063     0.01000771660449     0.00053949244096
   20     0.00003399546376     0.00005973173189     0.00024080605043     0.00243817805608     0.00029461214584
   21     0.00001807343978     0.00001451680761     0.00003202370537     0.00028033051776     0.00012751682490
   22     0.00001937578708     0.00001250887979     0.00003678423426     0.00032001863979     0.00016787570815
   23     0.00028230529465     0.00016108208164     0.00016656942332     0.00243206950872     0.00121839297771
   24     0.00010288211873     0.00006208706969     0.00004407502955     0.00026805294234     0.00018699133944
   25     0.00000259191713     0.00000267139738     0.00000679909587     0.00004212409384     0.00002659365367
   26     0.00000174733337     0.00000135694565     0.00000902168363     0.00006373076971     0.00001852887750
   27     0.00000242235974     0.00000196226311     0.00001152252587     0.00009533349088     0.00003786810116
   28     0.00000106463645     0.00000080073651     0.00000153248431     0.00000657464918     0.00000383962404
   29     0.00000040704035     0.00000059351979     0.00000172134744     0.00000239193929     0.00000160288298
   30     0.00000081899147     0.00000265181203     0.00000938966457     0.00000923953070     0.00000214590245
   31     0.00000500455596     0.00001615554130     0.00003351917030     0.00002496307182     0.00000522957638
   32     0.00000070685794     0.00000116657541     0.00000672518809     0.00000370105690     0.00000142281319
   33     0.00000013550292     0.00000049495032     0.00000110041236     0.00000080166646     0.00000055230757
   34     0.00000032356747     0.00000042144199     0.00000188752927     0.00000429471694     0.00000312484596
   35     0.00000012407200     0.00000023796515     0.00000078938252     0.00000121127724     0.00000102109270
   36     0.00000218220113     0.00000214717707     0.00000818098631     0.00016243889314     0.00004663226299
   37     0.00000212527498     0.00000745460413     0.00003146693085     0.00003499019913     0.00000329442752
   38     0.88648446626599     0.07936681824210     0.01178263650230     0.00638301792444     0.01071677504677
   39     0.07789650753288     0.87061664425319     0.07262929614661     0.01168581226723     0.00392145398125
   40     0.00575683590404     0.01074402213402     0.07009088043513     0.85195332240104     0.08738231125891
   41     0.07749009984437     0.01189642690754     0.00610448787229     0.01582794905116     0.08752361459954
   42     0.00112005090073     0.01451400316695     0.01436235297863     0.00137062038784     0.00029759766024
   43     0.00004472476777     0.00028675413431     0.00145026870188     0.00031414922205     0.00007915720169
   44     0.00002532384388     0.00008392976097     0.00035310204464     0.00008747530312     0.00000749834462
   45     0.00000033447465     0.00000088329364     0.00000585219809     0.00001763117328     0.00000140658074
   46     0.00000082503791     0.00000143363463     0.00000620395555     0.00002756326304     0.00000958074224
   47     0.00010596334067     0.00020657222859     0.00190356550910     0.00778831120747     0.00060954760945
   48     0.00004366708942     0.00005196292693     0.00011553982236     0.00136864318697     0.00045123225053
   49     0.00018835016765     0.00012138179148     0.00012293756315     0.00210932521442     0.00145208645191
   50     0.00002690047200     0.00001773413819     0.00001703591659     0.00006240049008     0.00005821327661
   51     0.00000031289179     0.00000022451585     0.00000105288711     0.00000738671963     0.00000435961678
   52     0.00000071447861     0.00000047677071     0.00000068249206     0.00000503124746     0.00000351066961
   53     0.00000016493543     0.00000013165049     0.00000015292183     0.00000074891710     0.00000065223668
   54     0.00000006326362     0.00000005297379     0.00000037846756     0.00000269726871     0.00000111963717
   55     0.00000110209324     0.00000171428192     0.00000369435293     0.00000354699599     0.00000083187577
   56     0.00000009892871     0.00000015495662     0.00000099172013     0.00000316260917     0.00000071567913
   57     0.00000202003676     0.00000577257640     0.00001097934773     0.00000486871989     0.00000133603231
   58     0.00000696847408     0.00000322092306     0.00001484893807     0.00001814995820     0.00000619295441
   59     0.00000001345739     0.00000006553511     0.00000011127313     0.00000009669812     0.00000006605207
   60     0.00000004048927     0.00000041054422     0.00000049764085     0.00000019046453     0.00000023711354
   61     0.00000001596901     0.00000002873091     0.00000009855963     0.00000007268927     0.00000004717798
   62     0.00000001739120     0.00000003137437     0.00000010700148     0.00000029308156     0.00000026915526
   63     0.00000036455944     0.00000028099193     0.00000086198709     0.00000273615336     0.00000336983265
   64     0.00000000988080     0.00000006548044     0.00000026955750     0.00000028150852     0.00000044353374
   65     0.00000001375069     0.00000003705994     0.00000035478883     0.00000045746230     0.00000034352288
   66     0.00000084554233     0.00000191203727     0.00001078875043     0.00000780584965     0.00000056469927
   67     0.00000120960445     0.00000287432099     0.00001078294079     0.00000974351211     0.00000092104548
   68     0.00000023890886     0.00000082545613     0.00000409550457     0.00000727461007     0.00000065377270

                 6                   7                   8                   9                  10

    1     1.46528662154602     0.01466276287231     0.00362700589593     0.00036905940691     0.00041188963696
    2     0.13786570911741     0.10314513047950     0.04206276134419     0.00478356069910     0.00540202935314
    3     0.13587778182545     1.02117180998227     0.09837625325485     0.01484217586793     0.00577336866825
    4     0.15423205316888     0.10327163073252     0.02384896676349     0.00410920900212     0.00607498502976
    5     1.63316068204824     0.01393572078122     0.00219456597664     0.00069956527874     0.00031860303749
    6     0.00000000000000     0.00974611000230     0.00687408740842     0.00122771456650     0.00338953605786
    7     0.00974611000230     0.00000000000000     1.38826021351492     0.14693087373221     0.11233706026406
    8     0.00687408740842     1.38826021351492     0.00000000000000     1.43244052136002     0.13133000212369
    9     0.00122771456650     0.14693087373221     1.43244052136002     0.00000000000000     1.66423888029367
   10     0.00338953605786     0.11233706026406     0.13133000212369     1.66423888029367     0.00000000000000
   11     0.00085648662880     0.14227171910022     0.11324521848522     0.15257414557852     1.50436200085440
   12     0.00602421718801     1.52969353655076     0.12554205758837     0.11052561921482     0.10948899885836
   13     0.00007212016646     0.01926252659489     0.02034509248407     0.02443713911421     0.16070800247805
   14     0.00003973887226     0.00281913731042     0.00250027070410     0.00326299657835     0.01715757282992
   15     0.00000498537049     0.00049300225920     0.00145469862045     0.00094376623895     0.00316062626853
   16     0.00000295503822     0.00014386719799     0.00019939290844     0.00015788656561     0.00048517588796
   17     0.00000635244709     0.00024419179072     0.00132820405333     0.00044806725293     0.00130812700867
   18     0.00003783458664     0.00049698066297     0.00025161221749     0.00014656355907     0.00043075512388
   19     0.00018011088722     0.00540881338618     0.00307087698895     0.00151657402802     0.00430009210290
   20     0.00004805488336     0.00012092756367     0.00002821040789     0.00001640494213     0.00005912955408
   21     0.00002090492486     0.00001644454610     0.00001219308946     0.00000479639048     0.00001898834418
   22     0.00003503329836     0.00001390303952     0.00001139672244     0.00000341348481     0.00001264672667
   23     0.00012759633216     0.00003925807633     0.00005855960064     0.00001256697967     0.00001921329689
   24     0.00004558450577     0.00002334602591     0.00002415329647     0.00000478584114     0.00000444534701
   25     0.00000659282272     0.00000419321424     0.00000136289157     0.00000054284656     0.00000104578484
   26     0.00000799860331     0.00000565038749     0.00000192627178     0.00000052308861     0.00000119338688
   27     0.00001051666079     0.00000437767153     0.00000627752697     0.00000121104527     0.00000479397092
   28     0.00000135388225     0.00000103755174     0.00000043011460     0.00000024586974     0.00000026160437
   29     0.00000065924651     0.00000481514785     0.00000231235248     0.00000188497856     0.00000063851278
   30     0.00000097126400     0.00002346415662     0.00000591938867     0.00000458212173     0.00000402495155
   31     0.00000465627726     0.00006244678679     0.00006776031844     0.00004955368096     0.00005533990088
   32     0.00000072305950     0.00002443712094     0.00000717292541     0.00000753131505     0.00000665152988
   33     0.00000029997172     0.00000609649279     0.00000378711717     0.00000840298296     0.00001483807773
   34     0.00000142307761     0.00000487802122     0.00000190291504     0.00000201947254     0.00000218659311
   35     0.00000031438349     0.00000145865285     0.00000087186610     0.00000073993540     0.00000069008917
   36     0.00000567760426     0.00000534045713     0.00000393757054     0.00000199736550     0.00000669673308
   37     0.00000201636954     0.00014525660564     0.00013792757298     0.00013900815379     0.00077465515260
   38     0.08234704944192     0.00129752117539     0.00025343235450     0.00003945782518     0.00002583303727
   39     0.01163188636159     0.01611984249387     0.01516513973937     0.00118465727994     0.00040133719256
   40     0.01482975848775     0.01584513975236     0.00168857242360     0.00039723949518     0.00062638684752
   41     0.87972444005704     0.00054924406225     0.00027176143367     0.00005344326514     0.00010476156145
   42     0.00049390951785     0.07551201437401     0.87592251800274     0.08061840951567     0.01045425445133
   43     0.00004424123208     0.01179665141589     0.07633356564488     0.87522073272907     0.08919166706082
   44     0.00001170584053     0.00206635786045     0.00201943467847     0.00375893112004     0.03209478562303
   45     0.00000039473486     0.00001794990609     0.00000728358538     0.00002326896138     0.00005172721207
   46     0.00000133179394     0.00002274637049     0.00004446180294     0.00001740863210     0.00005672119245
   47     0.00021893182408     0.00393472220353     0.00087260848183     0.00040805865116     0.00073143792448
   48     0.00005702215080     0.00004366190932     0.00001597593584     0.00000604822099     0.00001435660309
   49     0.00012214435426     0.00002112581424     0.00001901511517     0.00000648451467     0.00000395957302
   50     0.00001496160606     0.00000956366865     0.00000639274126     0.00000136128956     0.00000094382331
   51     0.00000124611456     0.00000043406542     0.00000008466924     0.00000003371766     0.00000007637749
   52     0.00000114606156     0.00000056473311     0.00000117711690     0.00000020393290     0.00000091041302
   53     0.00000024523586     0.00000016337096     0.00000008122423     0.00000003042306     0.00000005517880
   54     0.00000031927862     0.00000021513172     0.00000011949562     0.00000008728988     0.00000004317278
   55     0.00000079165451     0.00000295360202     0.00000077804628     0.00000023913943     0.00000053949328
   56     0.00000010056963     0.00000542396153     0.00000067311944     0.00000038147304     0.00000088282675
   57     0.00000072156307     0.00002461197423     0.00002597782740     0.00001576236922     0.00001848310854
   58     0.00000617377450     0.00001983232852     0.00001781402266     0.00001348438004     0.00001107939719
   59     0.00000003781904     0.00000025218426     0.00000034481597     0.00000045742900     0.00000035933972
   60     0.00000028454374     0.00000489447000     0.00000489624390     0.00000649172057     0.00001342918282
   61     0.00000005601827     0.00000039776865     0.00000025290940     0.00000035934782     0.00000092089962
   62     0.00000009321518     0.00000032187745     0.00000021308881     0.00000008970237     0.00000016825740
   63     0.00000138753554     0.00000104495210     0.00000057365373     0.00000051945595     0.00000069650763
   64     0.00000011581118     0.00000051485426     0.00000078322425     0.00000069641133     0.00000040323459
   65     0.00000010351802     0.00000081809175     0.00000015486277     0.00000007674924     0.00000004760621
   66     0.00000043973212     0.00004229467615     0.00008043158862     0.00004399400053     0.00026070780979
   67     0.00000140899045     0.00004692626944     0.00011137972174     0.00004502765982     0.00034775294869
   68     0.00000018720567     0.00001445021253     0.00000684080228     0.00000463720075     0.00003521005286

                11                  12                  13                  14                  15

    1     0.00089060939574     0.00278079282314     0.00017169743606     0.00002950047195     0.00001152278729
    2     0.00337770020710     0.02214743895270     0.00048211733557     0.00009122493209     0.00002265701816
    3     0.01817750684695     0.11952126737118     0.00163921759124     0.00054229134437     0.00006483431855
    4     0.00683212764058     0.06180683904271     0.00089445220899     0.00115764010657     0.00014318842382
    5     0.00042716669722     0.00400841709949     0.00008657269836     0.00009149834944     0.00001779759320
    6     0.00085648662880     0.00602421718801     0.00007212016646     0.00003973887226     0.00000498537049
    7     0.14227171910022     1.52969353655076     0.01926252659489     0.00281913731042     0.00049300225920
    8     0.11324521848522     0.12554205758837     0.02034509248407     0.00250027070410     0.00145469862045
    9     0.15257414557852     0.11052561921482     0.02443713911421     0.00326299657835     0.00094376623895
   10     1.50436200085440     0.10948899885836     0.16070800247805     0.01715757282992     0.00316062626853
   11     0.00000000000000     1.53643940068824     1.26893091222033     0.08236351075388     0.01785959064101
   12     1.53643940068824     0.00000000000000     0.14139587982013     0.02900211287874     0.00344293662784
   13     1.26893091222033     0.14139587982013     0.00000000000000     1.13010885699943     0.10688490119391
   14     0.08236351075388     0.02900211287874     1.13010885699943     0.00000000000000     1.31218687962799
   15     0.01785959064101     0.00344293662784     0.10688490119391     1.31218687962799     0.00000000000000
   16     0.00236541029463     0.00106334782662     0.01453245309951     0.12537967775046     1.44558775416954
   17     0.00410881652996     0.00248668675214     0.01228944649906     0.11966475896216     0.12424629389078
   18     0.00241515158484     0.00445333743698     0.01365072406280     0.12454636978379     0.12036947803642
   19     0.02811300082849     0.05267736260524     0.11100376152871     1.40221500525101     0.11935139491145
   20     0.00034241080412     0.00109795293124     0.00138973193973     0.01592773558108     0.01251678045641
   21     0.00007131296031     0.00011132942260     0.00034026688317     0.00278681487860     0.00307426239824
   22     0.00003323535743     0.00006733391624     0.00012386015174     0.00088822036007     0.00111159764191
   23     0.00003539286567     0.00016238075918     0.00015388152633     0.00062908042623     0.00032887243159
   24     0.00001366520909     0.00003897578316     0.00004254101433     0.00009429011817     0.00007331353501
   25     0.00000569364905     0.00000610099490     0.00000765893230     0.00008495766784     0.00004277799482
   26     0.00000589525802     0.00000891440964     0.00000976001220     0.00012515942673     0.00010727492943
   27     0.00001150477798     0.00001616041163     0.00004553629680     0.00026880081740     0.00050778570750
   28     0.00000151904783     0.00000117651143     0.00000133613885     0.00000752153874     0.00000433347071
   29     0.00000955810569     0.00000179493773     0.00000245838458     0.00001075187417     0.00000435237155
   30     0.00004586871138     0.00001125839908     0.00000646432032     0.00003334231408     0.00000586886933
   31     0.00009104000068     0.00014597029622     0.00006264762969     0.00010924805196     0.00004232543425
   32     0.00004630778800     0.00002185955172     0.00003258138247     0.00014451301579     0.00004282262851
   33     0.00003175481875     0.00001034018999     0.00002631051581     0.00003297885623     0.00002521365159
   34     0.00002366596479     0.00000786888261     0.00003272358073     0.00007142864465     0.00005335047731
   35     0.00000828271706     0.00000182696964     0.00000504857788     0.00002412674902     0.00001455855923
   36     0.00002332698455     0.00002698854704     0.00010927145298     0.00068637784335     0.00066768007307
   37     0.00364782722095     0.00078209927409     0.03825157132861     0.09593091730040     1.06047166288648
   38     0.00009121714374     0.00031649730856     0.00001625181234     0.00000680733361     0.00000075420021
   39     0.00028929122237     0.00109249456435     0.00006730490827     0.00002570313195     0.00000392432669
   40     0.00279525197962     0.02571182686940     0.00039877655785     0.00114185558708     0.00015838752095
   41     0.00004453140787     0.00025463542366     0.00000555940709     0.00000399276753     0.00000055037335
   42     0.00573824647591     0.01063925284663     0.00103273633869     0.00012047022325     0.00006549627171
   43     0.01583022192289     0.00397983955302     0.00135483865406     0.00038448509651     0.00006327972872
   44     0.07368484431417     0.01147723392512     0.93290401188451     0.05992236092939     0.01526653585064
   45     0.00037031182819     0.00005924318101     0.00115731470550     0.01143120733508     0.07489413199439
   46     0.00015492172903     0.00015543574781     0.00056105685883     0.00543105676636     0.01084477708431
   47     0.00954885576101     0.03494147305310     0.01583716600166     0.07323313608788     0.00974953886333
   48     0.00007593758168     0.00028148090694     0.00018252304798     0.00176847157457     0.00280091782016
   49     0.00001483254204     0.00008580456435     0.00002587728871     0.00010873374085     0.00011901295438
   50     0.00000380205701     0.00001128943979     0.00000487776753     0.00000947471553     0.00000627826447
   51     0.00000034150241     0.00000081848174     0.00000071707220     0.00000591061611     0.00001248611605
   52     0.00000254548889     0.00000289256879     0.00001098564920     0.00005871977163     0.00009994302971
   53     0.00000040711350     0.00000045701754     0.00000016032330     0.00000075825877     0.00000033947471
   54     0.00000015465408     0.00000008231065     0.00000010101299     0.00000048714930     0.00000054483460
   55     0.00000085832635     0.00000064494192     0.00000022599344     0.00000074541136     0.00000031398280
   56     0.00001919185905     0.00000485724929     0.00000229236777     0.00002750588786     0.00000237775443
   57     0.00002005025908     0.00003073723836     0.00001614944449     0.00001945386516     0.00000303722559
   58     0.00001964565523     0.00008199433207     0.00002172228578     0.00010342836941     0.00001259478876
   59     0.00000139046182     0.00000054920118     0.00000368793692     0.00000850833318     0.00000444184965
   60     0.00002142610368     0.00000601007692     0.00001029162731     0.00001194924617     0.00000509004474
   61     0.00000345918235     0.00000095324130     0.00000425587072     0.00000915573349     0.00000989462086
   62     0.00000123685736     0.00000094347750     0.00000207181636     0.00001525767953     0.00001487509963
   63     0.00000743963433     0.00000386781943     0.00001667317356     0.00003060205145     0.00001730749166
   64     0.00000300590654     0.00000081225934     0.00000115590999     0.00002028490493     0.00001099532684
   65     0.00000044012671     0.00000037131508     0.00000018891641     0.00000066603731     0.00000054878766
   66     0.00073132959426     0.00025612196351     0.00871539683613     0.01631869301825     0.05825041031085
   67     0.00100548723118     0.00031391009161     0.01106669276144     0.01653767721967     0.05820845074334
   68     0.00023893515867     0.00006440009678     0.00203476809466     0.00893123482970     0.05937647338319

                16                  17                  18                  19                  20

    1     0.00000186373741     0.00001323323024     0.00002128254133     0.00012339186332     0.00003399546376
    2     0.00000470574827     0.00001851548727     0.00004851373156     0.00024012683037     0.00005973173189
    3     0.00003698616086     0.00004988176517     0.00024762307653     0.00184771216063     0.00024080605043
    4     0.00019471825418     0.00025227972102     0.00140664752940     0.01000771660449     0.00243817805608
    5     0.00001066563592     0.00003491090907     0.00016356412494     0.00053949244096     0.00029461214584
    6     0.00000295503822     0.00000635244709     0.00003783458664     0.00018011088722     0.00004805488336
    7     0.00014386719799     0.00024419179072     0.00049698066297     0.00540881338618     0.00012092756367
    8     0.00019939290844     0.00132820405333     0.00025161221749     0.00307087698895     0.00002821040789
    9     0.00015788656561     0.00044806725293     0.00014656355907     0.00151657402802     0.00001640494213
   10     0.00048517588796     0.00130812700867     0.00043075512388     0.00430009210290     0.00005912955408
   11     0.00236541029463     0.00410881652996     0.00241515158484     0.02811300082849     0.00034241080412
   12     0.00106334782662     0.00248668675214     0.00445333743698     0.05267736260524     0.00109795293124
   13     0.01453245309951     0.01228944649906     0.01365072406280     0.11100376152871     0.00138973193973
   14     0.12537967775046     0.11966475896216     0.12454636978379     1.40221500525101     0.01592773558108
   15     1.44558775416954     0.12424629389078     0.12036947803642     0.11935139491145     0.01251678045641
   16     0.00000000000000     1.44096952844691     0.13264358044375     0.12555645441995     0.01451365458995
   17     1.44096952844691     0.00000000000000     1.40384957498991     0.12274663503195     0.11397734777543
   18     0.13264358044375     1.40384957498991     0.00000000000000     1.36500140587159     1.14424687307152
   19     0.12555645441995     0.12274663503195     1.36500140587159     0.00000000000000     0.13458401754699
   20     0.01451365458995     0.11397734777543     1.14424687307152     0.13458401754699     0.00000000000000
   21     0.00310167072059     0.02933945756459     0.09336187145809     0.01931231209754     1.20365150493690
   22     0.00084434540669     0.00935428432347     0.02337066507246     0.00762797472130     0.11698012001132
   23     0.00042205342594     0.00201277585323     0.00981962041988     0.00722002439653     0.04245861251957
   24     0.00016348385548     0.00033717794720     0.00103526414121     0.00083641390858     0.00439187660196
   25     0.00007943583702     0.00036113334705     0.00091132022965     0.00041524439088     0.00256399955945
   26     0.00005131035855     0.00030856975296     0.00082275346948     0.00057819961979     0.00245046540164
   27     0.00027058972990     0.00318352749039     0.00530493481247     0.00106222327802     0.01796399832004
   28     0.00000546151276     0.00002733004128     0.00007491825471     0.00003915307237     0.00021944929446
   29     0.00000685912739     0.00002120210442     0.00004244920792     0.00003163784653     0.00012033831791
   30     0.00000240524166     0.00000450238405     0.00002289889405     0.00008991736133     0.00002936039558
   31     0.00006845957561     0.00003385520516     0.00005627153865     0.00028748987408     0.00008802156641
   32     0.00002843904190     0.00003842076295     0.00006027182555     0.00009233525241     0.00001922715418
   33     0.00000835070033     0.00000639828573     0.00001073048715     0.00003001852451     0.00000260766106
   34     0.00006470817928     0.00009572618636     0.00016559539380     0.00013373183539     0.00005982534412
   35     0.00001615182725     0.00003066818385     0.00005608415616     0.00003841520111     0.00004334616454
   36     0.00088106222169     0.01194552783237     0.02851606058919     0.00366967859279     0.16331629091056
   37     0.11592417013799     0.01444400508439     0.00735932280420     0.01387510703014     0.00074073811730
   38     0.00000031791051     0.00000065272100     0.00000396377965     0.00002166209387     0.00000374737448
   39     0.00000133031314     0.00000164644611     0.00000512347090     0.00003573954975     0.00000515500007
   40     0.00017528654850     0.00021181205480     0.00145771655849     0.00840009980364     0.00177555659162
   41     0.00000037505853     0.00000061752686     0.00000246562877     0.00001351613313     0.00000501396899
   42     0.00001053163516     0.00004734850171     0.00002773604388     0.00019401840173     0.00000644801082
   43     0.00001561445184     0.00001105393544     0.00001459280961     0.00010426402874     0.00000157069165
   44     0.00158442143414     0.00109387130174     0.00134030762810     0.01056551584703     0.00026456694123
   45     0.87174567798560     0.07943290801270     0.01171632944111     0.00566960421777     0.00111010045060
   46     0.07745941024113     0.86903331514407     0.07694246556514     0.01154923105343     0.01693897471546
   47     0.00560783914338     0.01014026708567     0.07057354996736     0.83574438567487     0.02527344031359
   48     0.00151479492222     0.01440067495678     0.06325132715220     0.01924440122795     0.93555506667781
   49     0.00010178618976     0.00043004840096     0.00279575751640     0.00231428822444     0.01546255533483
   50     0.00001190471586     0.00001813839799     0.00006582443561     0.00005808316796     0.00024485916263
   51     0.00000463984067     0.00003031904884     0.00006407314812     0.00002899005488     0.00032844564593
   52     0.00004518789687     0.00062567687483     0.00067221431977     0.00007505371045     0.00159010171233
   53     0.00000054340247     0.00000268855440     0.00000851599690     0.00000306894099     0.00004375769506
   54     0.00000040269067     0.00000262236401     0.00000991789460     0.00000421201384     0.00003686708188
   55     0.00000036847219     0.00000060754172     0.00000140622463     0.00000255020245     0.00000451642786
   56     0.00000063381088     0.00000179533248     0.00001771978081     0.00007978813800     0.00000483044481
   57     0.00000251427206     0.00000147325272     0.00000453785199     0.00003211496400     0.00000267262845
   58     0.00004450451666     0.00001622193845     0.00007271241713     0.00030997421529     0.00006113607414
   59     0.00000073746815     0.00000077692087     0.00000198195695     0.00001036972621     0.00000059994410
   60     0.00000095847166     0.00000032702333     0.00000072718573     0.00000525431952     0.00000017362084
   61     0.00000245386106     0.00000066442658     0.00000088326885     0.00000249619583     0.00000032182370
   62     0.00001133460987     0.00001259606320     0.00001728403459     0.00001690090123     0.00000246229589
   63     0.00002875534048     0.00010155419008     0.00020315401583     0.00013208683639     0.00007393434246
   64     0.00001498548355     0.00003317718944     0.00005197049799     0.00003659580875     0.00000276023488
   65     0.00000064611581     0.00000233905338     0.00000310712203     0.00000204886281     0.00001253909689
   66     0.01600781305480     0.00126858112059     0.00310952645789     0.00124533214132     0.00039879041770
   67     0.01441494402860     0.00128014639085     0.00262125103977     0.00122246226806     0.00037423319969
   68     0.02381990932731     0.00190579670097     0.00057887550968     0.00109329898797     0.00009478571047

                21                  22                  23                  24                  25

    1     0.00001807343978     0.00001937578708     0.00028230529465     0.00010288211873     0.00000259191713
    2     0.00001451680761     0.00001250887979     0.00016108208164     0.00006208706969     0.00000267139738
    3     0.00003202370537     0.00003678423426     0.00016656942332     0.00004407502955     0.00000679909587
    4     0.00028033051776     0.00032001863979     0.00243206950872     0.00026805294234     0.00004212409384
    5     0.00012751682490     0.00016787570815     0.00121839297771     0.00018699133944     0.00002659365367
    6     0.00002090492486     0.00003503329836     0.00012759633216     0.00004558450577     0.00000659282272
    7     0.00001644454610     0.00001390303952     0.00003925807633     0.00002334602591     0.00000419321424
    8     0.00001219308946     0.00001139672244     0.00005855960064     0.00002415329647     0.00000136289157
    9     0.00000479639048     0.00000341348481     0.00001256697967     0.00000478584114     0.00000054284656
   10     0.00001898834418     0.00001264672667     0.00001921329689     0.00000444534701     0.00000104578484
   11     0.00007131296031     0.00003323535743     0.00003539286567     0.00001366520909     0.00000569364905
   12     0.00011132942260     0.00006733391624     0.00016238075918     0.00003897578316     0.00000610099490
   13     0.00034026688317     0.00012386015174     0.00015388152633     0.00004254101433     0.00000765893230
   14     0.00278681487860     0.00088822036007     0.00062908042623     0.00009429011817     0.00008495766784
   15     0.00307426239824     0.00111159764191     0.00032887243159     0.00007331353501     0.00004277799482
   16     0.00310167072059     0.00084434540669     0.00042205342594     0.00016348385548     0.00007943583702
   17     0.02933945756459     0.00935428432347     0.00201277585323     0.00033717794720     0.00036113334705
   18     0.09336187145809     0.02337066507246     0.00981962041988     0.00103526414121     0.00091132022965
   19     0.01931231209754     0.00762797472130     0.00722002439653     0.00083641390858     0.00041524439088
   20     1.20365150493690     0.11698012001132     0.04245861251957     0.00439187660196     0.00256399955945
   21     0.00000000000000     0.97531437538590     0.10676927860832     0.01477074596197     0.01198633730758
   22     0.97531437538590     0.00000000000000     1.38384334829827     0.12781655469158     0.12359335604874
   23     0.10676927860832     1.38384334829827     0.00000000000000     1.46797805544900     0.12672485785428
   24     0.01477074596197     0.12781655469158     1.46797805544900     0.00000000000000     1.39443692832476
   25     0.01198633730758     0.12359335604874     0.12672485785428     1.39443692832476     0.00000000000000
   26     0.01482463846780     0.12778853433578     0.13084677175363     0.12523595215806     1.40275183752968
   27     0.11350071332938     1.39453394564940     0.12362154503119     0.12985214404530     0.12650247820817
   28     0.00078194161164     0.00920418170798     0.01469993670562     0.10864049320763     1.01748429767127
   29     0.00043363329894     0.00445693180677     0.00213150092991     0.02273554464021     0.08806962621696
   30     0.00009714418372     0.00093096723571     0.00183652401588     0.01497675493647     0.01911515712312
   31     0.00007375984177     0.00114110494209     0.00793571701414     0.02268653656547     0.01460434859147
   32     0.00006533365433     0.00066990292696     0.00093130831953     0.00274878498661     0.00379921673264
   33     0.00001033840222     0.00011709321193     0.00021880663183     0.00065445812439     0.00102253534212
   34     0.00017537287922     0.00311526801393     0.00295109250552     0.00829291375091     0.02261653493225
   35     0.00012501372741     0.00116065142455     0.00115022567808     0.00542600350965     0.02279102196355
   36     2.30457764492499     0.13933353258612     0.02794795379963     0.00304486399145     0.00750533065688
[...]
   15     0.00000237775443     0.00000303722559     0.00001259478876     0.00000444184965     0.00000509004474
   16     0.00000063381088     0.00000251427206     0.00004450451666     0.00000073746815     0.00000095847166
   17     0.00000179533248     0.00000147325272     0.00001622193845     0.00000077692087     0.00000032702333
   18     0.00001771978081     0.00000453785199     0.00007271241713     0.00000198195695     0.00000072718573
   19     0.00007978813800     0.00003211496400     0.00030997421529     0.00001036972621     0.00000525431952
   20     0.00000483044481     0.00000267262845     0.00006113607414     0.00000059994410     0.00000017362084
   21     0.00002562457753     0.00000593030672     0.00006143665919     0.00000202384575     0.00000074229735
   22     0.00021460803207     0.00007898160040     0.00096796646658     0.00001311233595     0.00001043673177
   23     0.00028210936367     0.00020596705782     0.00660089659792     0.00002294631905     0.00002551425839
   24     0.00074785762087     0.00072008753766     0.01769625202880     0.00008532294741     0.00007495564570
   25     0.00150884210192     0.00051661485694     0.00811861746787     0.00017707923887     0.00009343382824
   26     0.00050177738206     0.00014356275494     0.00195511859811     0.00008359812652     0.00003595310728
   27     0.00012887062159     0.00010439550338     0.00161869572309     0.00002554546680     0.00002368889628
   28     0.01241989737807     0.00100009553195     0.00491642344470     0.00068679696435     0.00011840986268
   29     0.06663998432832     0.01361733696705     0.01210026863250     0.00333048216528     0.00075078526056
   30     0.77305121505201     0.05913914383702     0.04914545400115     0.01327180343736     0.00413838672940
   31     0.05261923588895     0.81808790661267     0.85102895666986     0.01647590506951     0.02189965844243
   32     0.01456529970090     0.05099235522139     0.06115250750057     0.06769001335863     0.06262701239935
   33     0.01650508126059     0.02517589412669     0.01104760878256     0.91096099133145     0.91974018355996
   34     0.00827867648931     0.01556603657842     0.01937349754950     0.01606527508723     0.01236638095567
   35     0.02342740156328     0.00179306633560     0.00700723091830     0.01238454850354     0.00173376431316
   36     0.00001818336406     0.00000377492533     0.00002519799817     0.00000100218200     0.00000036515569
   37     0.00000047094863     0.00000069934567     0.00000408790170     0.00000111184214     0.00000286015487
   38     0.00000000396865     0.00000010100660     0.00000023937870     0.00000000113287     0.00000000348686
   39     0.00000001769821     0.00000160548811     0.00000050207025     0.00000001152349     0.00000003960077
   40     0.00000270051091     0.00000232805622     0.00000595650800     0.00000005147442     0.00000004439213
   41     0.00000000317575     0.00000004505017     0.00000021521140     0.00000000212617     0.00000000664590
   42     0.00000002690902     0.00000669589181     0.00000108909072     0.00000002648969     0.00000029338560
   43     0.00000001576308     0.00000357549349     0.00000063612043     0.00000005149451     0.00000148702123
   44     0.00000225151501     0.00000633984349     0.00000608211310     0.00000133244283     0.00000722522318
   45     0.00000004447426     0.00000010821595     0.00000160463023     0.00000001443694     0.00000003799825
   46     0.00000029273376     0.00000019560621     0.00000186201456     0.00000004528870     0.00000003738808
   47     0.00003430649765     0.00000669714352     0.00004378119894     0.00000080128380     0.00000090674684
   48     0.00000148804864     0.00000035378243     0.00000425839667     0.00000006864283     0.00000005230394
   49     0.00003966304235     0.00001854494029     0.00063060456372     0.00000207111828     0.00000207288459
   50     0.00011056211118     0.00027520606649     0.00412693798462     0.00004341493367     0.00002260923807
   51     0.00012543864818     0.00001673913221     0.00010525855991     0.00002991539686     0.00000507858674
   52     0.00001395885803     0.00000350679226     0.00004718642693     0.00000263300258     0.00000137123035
   53     0.00124590521906     0.00008239631519     0.00077314900670     0.00006409262461     0.00001893724705
   54     0.00045749785668     0.00043445244234     0.00029825201084     0.00006715943402     0.00002473229798
   55     0.02487525667401     0.00608003838697     0.00745795105806     0.00062350634910     0.00017337953197
   56     0.00000000000000     0.01080720978031     0.01482275114633     0.00862133283539     0.00170040609471
   57     0.01080720978031     0.00000000000000     0.02261503269596     0.00349266776553     0.00838560956132
   58     0.01482275114633     0.02261503269596     0.00000000000000     0.00093700882332     0.00107725527864
   59     0.00862133283539     0.00349266776553     0.00093700882332     0.00000000000000     0.03480082622397
   60     0.00170040609471     0.00838560956132     0.00107725527864     0.03480082622397     0.00000000000000
   61     0.00074869954503     0.00129673422412     0.00074872368933     0.03504777353284     0.03775140528308
   62     0.00053536926586     0.00129242160084     0.00096438422740     0.00276281981307     0.00115626569746
   63     0.00078246618010     0.00120261060399     0.00525331590888     0.00103257266936     0.00063750279318
   64     0.00629062889919     0.00043202366001     0.00103981281682     0.00782834152103     0.00063992069001
   65     0.00091609202022     0.00044258468342     0.00040589701088     0.00050430711004     0.00022547229870
   66     0.00000075913499     0.00000038561999     0.00000087550966     0.00000122007989     0.00000336165250
   67     0.00000012333526     0.00000016948721     0.00000070377268     0.00000001652894     0.00000036002184
   68     0.00000002431949     0.00000001380623     0.00000015619652     0.00000005386246     0.00000009014450

                61                  62                  63                  64                  65

    1     0.00000001596901     0.00000001739120     0.00000036455944     0.00000000988080     0.00000001375069
    2     0.00000002873091     0.00000003137437     0.00000028099193     0.00000006548044     0.00000003705994
    3     0.00000009855963     0.00000010700148     0.00000086198709     0.00000026955750     0.00000035478883
    4     0.00000007268927     0.00000029308156     0.00000273615336     0.00000028150852     0.00000045746230
    5     0.00000004717798     0.00000026915526     0.00000336983265     0.00000044353374     0.00000034352288
    6     0.00000005601827     0.00000009321518     0.00000138753554     0.00000011581118     0.00000010351802
    7     0.00000039776865     0.00000032187745     0.00000104495210     0.00000051485426     0.00000081809175
    8     0.00000025290940     0.00000021308881     0.00000057365373     0.00000078322425     0.00000015486277
    9     0.00000035934782     0.00000008970237     0.00000051945595     0.00000069641133     0.00000007674924
   10     0.00000092089962     0.00000016825740     0.00000069650763     0.00000040323459     0.00000004760621
   11     0.00000345918235     0.00000123685736     0.00000743963433     0.00000300590654     0.00000044012671
   12     0.00000095324130     0.00000094347750     0.00000386781943     0.00000081225934     0.00000037131508
   13     0.00000425587072     0.00000207181636     0.00001667317356     0.00000115590999     0.00000018891641
   14     0.00000915573349     0.00001525767953     0.00003060205145     0.00002028490493     0.00000066603731
   15     0.00000989462086     0.00001487509963     0.00001730749166     0.00001099532684     0.00000054878766
   16     0.00000245386106     0.00001133460987     0.00002875534048     0.00001498548355     0.00000064611581
   17     0.00000066442658     0.00001259606320     0.00010155419008     0.00003317718944     0.00000233905338
   18     0.00000088326885     0.00001728403459     0.00020315401583     0.00005197049799     0.00000310712203
   19     0.00000249619583     0.00001690090123     0.00013208683639     0.00003659580875     0.00000204886281
   20     0.00000032182370     0.00000246229589     0.00007393434246     0.00000276023488     0.00001253909689
   21     0.00000141801803     0.00001255043561     0.00024786282299     0.00004989512833     0.00002611703932
   22     0.00001394070738     0.00014345143656     0.00381488315442     0.00031060198288     0.00023363665936
   23     0.00002373826267     0.00014478787700     0.00339612843456     0.00031102425116     0.00027656638001
   24     0.00004695483152     0.00032649003611     0.00674862093559     0.00063833083863     0.00067259655587
   25     0.00009932642172     0.00097221497462     0.01622008972561     0.00152131691089     0.00647552593968
   26     0.00006197211342     0.00090795227247     0.02040002094724     0.00096420693333     0.00645839837158
   27     0.00003497166431     0.00031462601898     0.00982093687178     0.00042537373361     0.00056748372515
   28     0.00011713141794     0.00118626456569     0.00683745221886     0.01189086243856     0.01957593775164
   29     0.00063501770020     0.00991294807928     0.01218607113250     0.06544748636889     0.05707678523133
   30     0.00182957782937     0.00258020433669     0.00740799326743     0.02320871346770     0.01216642244488
   31     0.01285079644001     0.01291141050410     0.01857984789460     0.00822196708068     0.00247044210138
   32     0.06332618383526     0.05955801616166     0.05941126392891     0.01391535418715     0.01028778836341
   33     0.91954940594707     0.01972181683473     0.01269306187111     0.01568106626321     0.00155697450784
   34     0.01831186284541     0.89427062530711     0.75540900191610     0.04909503254878     0.05903101691575
   35     0.00380824947018     0.06159368575031     0.04348113379653     0.77096777153762     0.88423274105515
   36     0.00000058771919     0.00000477674028     0.00008788776505     0.00001700871876     0.00000801251029
   37     0.00000701820154     0.00000625037858     0.00000686035941     0.00000108381033     0.00000011695661
   38     0.00000000088425     0.00000000138575     0.00000002858694     0.00000000151400     0.00000000123991
   39     0.00000000945646     0.00000000264835     0.00000004819652     0.00000000540780     0.00000000260904
   40     0.00000002602749     0.00000010431169     0.00000055641381     0.00000009731033     0.00000013773329
   41     0.00000000804278     0.00000001906760     0.00000029744280     0.00000003199869     0.00000002354024
   42     0.00000006537770     0.00000000479192     0.00000006199703     0.00000003241623     0.00000001001674
   43     0.00000003188465     0.00000000936145     0.00000006575523     0.00000005676421     0.00000000501519
   44     0.00000369339127     0.00000062260819     0.00000212307824     0.00000155664901     0.00000009817834
   45     0.00000033724760     0.00000353794393     0.00000712081954     0.00000098255307     0.00000006750438
   46     0.00000004757953     0.00000148458546     0.00000733592996     0.00000294661122     0.00000020500613
   47     0.00000034453764     0.00000169512864     0.00000618100878     0.00000597069910     0.00000039430872
   48     0.00000005127944     0.00000079821502     0.00000922674819     0.00000297639595     0.00000127125494
   49     0.00000095256594     0.00000653190251     0.00014211477522     0.00001830315342     0.00002425018019
   50     0.00001336915430     0.00002761031899     0.00066861257576     0.00016412312815     0.00007888538591
   51     0.00001364377166     0.00012995061435     0.00322604777399     0.00011571666049     0.00259260914414
   52     0.00000347365565     0.00002609447331     0.00086375480047     0.00004901500794     0.00003152861193
   53     0.00001910390069     0.00025849582004     0.00043206523757     0.00056022225587     0.00107492090384
   54     0.00002197914671     0.00012197180556     0.00089722909785     0.00121456452241     0.00544495626658
   55     0.00021935997777     0.00029567319814     0.00049898627336     0.00091183506465     0.00112577653136
   56     0.00074869954503     0.00053536926586     0.00078246618010     0.00629062889919     0.00091609202022
   57     0.00129673422412     0.00129242160084     0.00120261060399     0.00043202366001     0.00044258468342
   58     0.00074872368933     0.00096438422740     0.00525331590888     0.00103981281682     0.00040589701088
   59     0.03504777353284     0.00276281981307     0.00103257266936     0.00782834152103     0.00050430711004
   60     0.03775140528308     0.00115626569746     0.00063750279318     0.00063992069001     0.00022547229870
   61     0.00000000000000     0.00612271991504     0.00105736547595     0.00177462606802     0.00013218087635
   62     0.00612271991504     0.00000000000000     0.02326012872872     0.00996790626257     0.00573479505885
   63     0.00105736547595     0.02326012872872     0.00000000000000     0.02528868932325     0.00884037715623
   64     0.00177462606802     0.00996790626257     0.02528868932325     0.00000000000000     0.02278802944518
   65     0.00013218087635     0.00573479505885     0.00884037715623     0.02278802944518     0.00000000000000
   66     0.00000874482096     0.00000528540168     0.00000232379783     0.00000088299717     0.00000003736285
   67     0.00000045136882     0.00000027864392     0.00000041673186     0.00000012889719     0.00000003121034
   68     0.00000064557428     0.00000113753641     0.00000045037518     0.00000007651127     0.00000001197923

                66                  67                  68

    1     0.00000084554233     0.00000120960445     0.00000023890886
    2     0.00000191203727     0.00000287432099     0.00000082545613
    3     0.00001078875043     0.00001078294079     0.00000409550457
    4     0.00000780584965     0.00000974351211     0.00000727461007
    5     0.00000056469927     0.00000092104548     0.00000065377270
    6     0.00000043973212     0.00000140899045     0.00000018720567
    7     0.00004229467615     0.00004692626944     0.00001445021253
    8     0.00008043158862     0.00011137972174     0.00000684080228
    9     0.00004399400053     0.00004502765982     0.00000463720075
   10     0.00026070780979     0.00034775294869     0.00003521005286
   11     0.00073132959426     0.00100548723118     0.00023893515867
   12     0.00025612196351     0.00031391009161     0.00006440009678
   13     0.00871539683613     0.01106669276144     0.00203476809466
   14     0.01631869301825     0.01653767721967     0.00893123482970
   15     0.05825041031085     0.05820845074334     0.05937647338319
   16     0.01600781305480     0.01441494402860     0.02381990932731
   17     0.00126858112059     0.00128014639085     0.00190579670097
   18     0.00310952645789     0.00262125103977     0.00057887550968
   19     0.00124533214132     0.00122246226806     0.00109329898797
   20     0.00039879041770     0.00037423319969     0.00009478571047
   21     0.00012393590650     0.00008812359027     0.00003081447070
   22     0.00004746854080     0.00002424832452     0.00000835961085
   23     0.00001795380786     0.00000758474690     0.00000525845541
   24     0.00000322191443     0.00000156757800     0.00000077570208
   25     0.00000178350824     0.00000096691546     0.00000048287656
   26     0.00000546608423     0.00000234137022     0.00000039236679
   27     0.00002230379211     0.00000871307141     0.00000133637136
   28     0.00000057077680     0.00000012382892     0.00000006630760
   29     0.00000071454547     0.00000013302518     0.00000005966307
   30     0.00000191790645     0.00000030657490     0.00000008034228
   31     0.00000453398263     0.00000122836429     0.00000044245494
   32     0.00001181583736     0.00000093967469     0.00000047130202
   33     0.00001599688728     0.00000132398180     0.00000086947340
   34     0.00001252351036     0.00000156508844     0.00000220643401
   35     0.00000144047588     0.00000035559349     0.00000023902605
   36     0.00002748251125     0.00001669882597     0.00000670042108
   37     0.91859174219340     0.91861129447133     0.92015080789618
   38     0.00000008537748     0.00000009838698     0.00000003928274
   39     0.00000024101459     0.00000032196143     0.00000010052791
   40     0.00000698499897     0.00000829233936     0.00000740663028
   41     0.00000005017106     0.00000007632092     0.00000003474997
   42     0.00000352578515     0.00000444682499     0.00000050532778
   43     0.00000277124132     0.00000340708844     0.00000061052639
   44     0.00464115607243     0.00478708739723     0.00108091113166
   45     0.00134451013469     0.00120611330890     0.00767777657166
   46     0.00020909624115     0.00025002722859     0.00013473879302
   47     0.00018308726348     0.00019872950181     0.00035628229962
   48     0.00013019039077     0.00007569027324     0.00002829661176
   49     0.00000550564816     0.00000344643651     0.00000223715515
   50     0.00000034707463     0.00000008348939     0.00000006121122
   51     0.00000056824459     0.00000038208664     0.00000004391921
   52     0.00000518781041     0.00000113126477     0.00000052491660
   53     0.00000002399117     0.00000002062258     0.00000000483503
   54     0.00000003932392     0.00000001514390     0.00000000772887
   55     0.00000009698528     0.00000001290593     0.00000000415086
   56     0.00000075913499     0.00000012333526     0.00000002431949
   57     0.00000038561999     0.00000016948721     0.00000001380623
   58     0.00000087550966     0.00000070377268     0.00000015619652
   59     0.00000122007989     0.00000001652894     0.00000005386246
   60     0.00000336165250     0.00000036002184     0.00000009014450
   61     0.00000874482096     0.00000045136882     0.00000064557428
   62     0.00000528540168     0.00000027864392     0.00000113753641
   63     0.00000232379783     0.00000041673186     0.00000045037518
   64     0.00000088299717     0.00000012889719     0.00000007651127
   65     0.00000003736285     0.00000003121034     0.00000001197923
   66     0.00000000000000     0.03492243168161     0.03820594854659
   67     0.03492243168161     0.00000000000000     0.03866208578700
   68     0.03820594854659     0.03866208578700     0.00000000000000



  Atomic Valences: 

 #  #
 Irrep: 1
      1:  4.3939083
      2:  4.4247647
      3:  4.6052896
      4:  4.5807238
      5:  3.8871100
      6:  4.5447181
      7:  4.7422051
      8:  4.3702006
      9:  4.5257826
     10:  3.8661151
     11:  5.0007783
     12:  3.9547975
     13:  4.0429954
     14:  4.6667041
     15:  4.6253449
     16:  4.4384197
     17:  4.3996971
     18:  4.7210559
     19:  4.4420412
     20:  3.9967163
     21:  5.0316580
     22:  4.6502664
     23:  4.4486889
     24:  4.4762534
     25:  4.7160824
     26:  4.4733335
     27:  4.4432421
     28:  4.4933582
     29:  4.2535017
     30:  4.5609587
     31:  4.5748777
     32:  4.2115881
     33:  4.2893287
     34:  4.5528178
     35:  4.5441180
     36:  2.7928337
     37:  4.1506267
     38:  1.0985381
     39:  1.1023580
     40:  1.1143627
     41:  1.0910880
     42:  1.1100366
     43:  1.0862513
     44:  1.1769637
     45:  1.1009012
     46:  1.0998601
     47:  1.1326943
     48:  1.1745140
     49:  1.1068940
     50:  1.1077176
     51:  1.1063341
     52:  1.0984319
     53:  1.1064769
     54:  1.1074799
     55:  1.1351763
     56:  1.0432440
     57:  1.0443015
     58:  1.1150534
     59:  1.1371765
     60:  1.1103729
     61:  1.1057415
     62:  1.1173428
     63:  1.0514964
     64:  1.0419459
     65:  1.1115068
     66:  1.1053284
     67:  1.1065174
     68:  1.1045825


    Psi4 stopped on: Wednesday, 04 March 2020 01:03PM
    Psi4 wall time for execution: 0:31:08.99

*** Psi4 exiting successfully. Buy a developer a beer!
