 Entering Gaussian System, Link 0=g09
 Input=MOLECULE0-opt-15-14-13-11-083.com
 Output=MOLECULE0-opt-15-14-13-11-083.log
 Initial command:
 /opt/g09gh/gaussian/g09/l1.exe /scratch/bdw2292/Gau-MOLECULE0/Gau-102018.inp -scrdir=/scratch/bdw2292/Gau-MOLECULE0/
 Entering Link 1 = /opt/g09gh/gaussian/g09/l1.exe PID=    102019.
  
 Copyright (c) 1988,1990,1992,1993,1995,1998,2003,2009, Gaussian, Inc.
                  All Rights Reserved.
  
 This is part of the Gaussian(R) 09 program.  It is based on
 the Gaussian(R) 03 system (copyright 2003, Gaussian, Inc.),
 the Gaussian(R) 98 system (copyright 1998, Gaussian, Inc.),
 the Gaussian(R) 94 system (copyright 1995, Gaussian, Inc.),
 the Gaussian 92(TM) system (copyright 1992, Gaussian, Inc.),
 the Gaussian 90(TM) system (copyright 1990, Gaussian, Inc.),
 the Gaussian 88(TM) system (copyright 1988, Gaussian, Inc.),
 the Gaussian 86(TM) system (copyright 1986, Carnegie Mellon
 University), and the Gaussian 82(TM) system (copyright 1983,
 Carnegie Mellon University). Gaussian is a federally registered
 trademark of Gaussian, Inc.
  
 This software contains proprietary and confidential information,
 including trade secrets, belonging to Gaussian, Inc.
  
 This software is provided under written license and may be
 used, copied, transmitted, or stored only in accord with that
 written license.
  
 The following legend is applicable only to US Government
 contracts under FAR:
  
                    RESTRICTED RIGHTS LEGEND
  
 Use, reproduction and disclosure by the US Government is
 subject to restrictions as set forth in subparagraphs (a)
 and (c) of the Commercial Computer Software - Restricted
 Rights clause in FAR 52.227-19.
  
 Gaussian, Inc.
 340 Quinnipiac St., Bldg. 40, Wallingford CT 06492
  
  
 ---------------------------------------------------------------
 Warning -- This program may not be used in any manner that
 competes with the business of Gaussian, Inc. or will provide
 assistance to any competitor of Gaussian, Inc.  The licensee
 of this program is prohibited from giving any competitor of
 Gaussian, Inc. access to this program.  By using this program,
 the user acknowledges that Gaussian, Inc. is engaged in the
 business of creating and licensing software in the field of
 computational chemistry and represents and warrants to the
 licensee that it is not a competitor of Gaussian, Inc. and that
 it will not use this program in any manner prohibited above.
 ---------------------------------------------------------------
  

 Cite this work as:
 Gaussian 09, Revision A.02,
 M. J. Frisch, G. W. Trucks, H. B. Schlegel, G. E. Scuseria, 
 M. A. Robb, J. R. Cheeseman, G. Scalmani, V. Barone, B. Mennucci, 
 G. A. Petersson, H. Nakatsuji, M. Caricato, X. Li, H. P. Hratchian, 
 A. F. Izmaylov, J. Bloino, G. Zheng, J. L. Sonnenberg, M. Hada, 
 M. Ehara, K. Toyota, R. Fukuda, J. Hasegawa, M. Ishida, T. Nakajima, 
 Y. Honda, O. Kitao, H. Nakai, T. Vreven, J. A. Montgomery, Jr., 
 J. E. Peralta, F. Ogliaro, M. Bearpark, J. J. Heyd, E. Brothers, 
 K. N. Kudin, V. N. Staroverov, R. Kobayashi, J. Normand, 
 K. Raghavachari, A. Rendell, J. C. Burant, S. S. Iyengar, J. Tomasi, 
 M. Cossi, N. Rega, J. M. Millam, M. Klene, J. E. Knox, J. B. Cross, 
 V. Bakken, C. Adamo, J. Jaramillo, R. Gomperts, R. E. Stratmann, 
 O. Yazyev, A. J. Austin, R. Cammi, C. Pomelli, J. W. Ochterski, 
 R. L. Martin, K. Morokuma, V. G. Zakrzewski, G. A. Voth, 
 P. Salvador, J. J. Dannenberg, S. Dapprich, A. D. Daniels, 
 O. Farkas, J. B. Foresman, J. V. Ortiz, J. Cioslowski, 
 and D. J. Fox, Gaussian, Inc., Wallingford CT, 2009.
 
 ******************************************
 Gaussian 09:  EM64L-G09RevA.02 11-Jun-2009
                 3-Mar-2020 
 ******************************************
 %RWF=/scratch/bdw2292/Gau-MOLECULE0/,100GB
 %Nosave
 %Chk=MOLECULE0-opt-15-14-13-11-083.chk
 %Mem=20GB
 %Nproc=6
 Will use up to    6 processors via shared memory.
 --------------------------------------------------
 #P opt=(,maxcycle=400) wB97XD/6-31G* MaxDisk=100GB
 --------------------------------------------------
 1/6=400,14=-1,18=20,19=15,26=3,38=1/1,3;
 2/9=110,12=2,17=6,18=5,40=1/2;
 3/5=1,6=6,7=1,11=2,16=1,25=1,30=1,71=1,74=-58/1,2,3;
 4//1;
 5/5=2,38=5/2;
 6/7=2,8=2,9=2,10=2,28=1/1;
 7//1,2,3,16;
 1/6=400,14=-1,18=20,19=15/3(2);
 2/9=110/2;
 99//99;
 2/9=110/2;
 3/5=1,6=6,7=1,11=2,16=1,25=1,30=1,71=1,74=-58/1,2,3;
 4/5=5,16=3/1;
 5/5=2,38=5/2;
 7//1,2,3,16;
 1/6=400,14=-1,18=20,19=15/3(-5);
 2/9=110/2;
 6/7=2,8=2,9=2,10=2,19=2,28=1/1;
 99/9=1/99;
 Leave Link    1 at Tue Mar  3 10:22:26 2020, MaxMem= 2684354560 cpu:       0.2
 (Enter /opt/g09gh/gaussian/g09/l101.exe)
 --------------------------------------------------------------
 MOLECULE0 Rotatable Bond Optimization on node37.bme.utexas.edu
 --------------------------------------------------------------
 Symbolic Z-matrix:
 Charge =  0 Multiplicity = 1
 C                     6.55737   0.8954   -6.46097 
 C                     6.7832    1.37342  -5.16345 
 C                     6.2151    0.70876  -4.05773 
 C                     5.42909  -0.43207  -4.35731 
 N                     5.20398  -0.90072  -5.59205 
 C                     5.76167  -0.244    -6.61915 
 C                     6.40728   1.15583  -2.63054 
 C                     7.16238   2.26837  -2.22103 
 C                     7.20339   2.50537  -0.84223 
 N                     6.58508   1.75777   0.06741 
 C                     5.88802   0.71236  -0.42162 
 N                     5.78171   0.39533  -1.71174 
 N                     5.2401   -0.06318   0.50764 
 C                     4.49812  -1.26178   0.35447 
 C                     5.18105  -2.5098    0.29833 
 C                     4.39173  -3.65918   0.14212 
 C                     2.996    -3.63247   0.03887 
 C                     2.34326  -2.39492   0.10189 
 C                     3.10353  -1.22178   0.25747 
 N                     0.92889  -2.19699  -0.00837 
 C                    -0.08043  -3.07249  -0.3377 
 C                    -1.45078  -2.49313  -0.62869 
 C                    -1.64081  -1.25819  -1.27009 
 C                    -2.92934  -0.76757  -1.49236 
 C                    -4.06942  -1.49297  -1.09812 
 C                    -3.86382  -2.73452  -0.46616 
 C                    -2.57916  -3.23613  -0.24495 
 C                    -5.47741  -0.92759  -1.29401 
 N                    -6.01842   0.0082   -0.2919 
 C                    -5.51566   1.39984  -0.26529 
 C                    -4.34887   1.64009   0.72679 
 N                    -4.63794   1.20629   2.1136 
 C                    -5.40768   2.1366    2.94812 
 C                    -5.10348  -0.20226   2.09167 
 C                    -6.25173  -0.48232   1.08632 
 O                     0.08585  -4.28085  -0.37808 
 C                     6.69349  -2.61975   0.37794 
 H                     6.98543   1.39076  -7.32744 
 H                     7.40047   2.26057  -5.04512 
 H                     4.95983  -0.99117  -3.55223 
 H                     5.55945  -0.65102  -7.60855 
 H                     7.69162   2.92485  -2.90048 
 H                     7.76693   3.34992  -0.44653 
 H                     5.41191   0.24308   1.45459 
 H                     4.87658  -4.63264   0.08232 
 H                     2.42645  -4.54398  -0.09555 
 H                     2.63578  -0.24721   0.2916 
 H                     0.63521  -1.2375    0.10895 
 H                    -0.77566  -0.68624  -1.59648 
 H                    -3.04341   0.19955  -1.98197 
 H                    -4.71775  -3.32508  -0.13506 
 H                    -2.42979  -4.19779   0.23952 
 H                    -5.51457  -0.41789  -2.26778 
 H                    -6.18482  -1.76752  -1.35476 
 H                    -5.29561   1.74308  -1.25023 
 H                    -6.69782   2.29561   0.26044 
 H                    -4.08338   3.11753   0.73827 
 H                    -3.40231   1.12174   0.38755 
 H                    -6.4256    2.26204   2.56234 
 H                    -4.9162    3.11579   2.9752 
 H                    -5.46462   1.76204   3.97658 
 H                    -5.37589  -0.52039   3.1237 
 H                    -3.93292  -1.03329   1.664 
 H                    -7.49982   0.30527   1.65007 
 H                    -6.53568  -1.58125   1.07343 
 H                     7.09385  -2.09552   1.25685 
 H                     7.16978  -2.18135  -0.5105 
 H                     7.04312  -3.65915   0.44587 
 
 NAtoms=     68 NQM=     68 NQMF=      0 NMic=      0 NMicF=      0 NTot=     68.
                    Isotopes and Nuclear Properties:
 (Nuclear quadrupole moments (NQMom) in fm**2, nuclear magnetic moments (NMagM)
  in nuclear magnetons)

  Atom         1           2           3           4           5           6           7           8           9          10
 IAtWgt=          12          12          12          12          14          12          12          12          12          14
 AtmWgt=  12.0000000  12.0000000  12.0000000  12.0000000  14.0030740  12.0000000  12.0000000  12.0000000  12.0000000  14.0030740
 NucSpn=           0           0           0           0           2           0           0           0           0           2
 AtZEff=   0.0000000   0.0000000   0.0000000   0.0000000   0.0000000   0.0000000   0.0000000   0.0000000   0.0000000   0.0000000
 NQMom=    0.0000000   0.0000000   0.0000000   0.0000000   2.0440000   0.0000000   0.0000000   0.0000000   0.0000000   2.0440000
 NMagM=    0.0000000   0.0000000   0.0000000   0.0000000   0.4037610   0.0000000   0.0000000   0.0000000   0.0000000   0.4037610

  Atom        11          12          13          14          15          16          17          18          19          20
 IAtWgt=          12          14          14          12          12          12          12          12          12          14
 AtmWgt=  12.0000000  14.0030740  14.0030740  12.0000000  12.0000000  12.0000000  12.0000000  12.0000000  12.0000000  14.0030740
 NucSpn=           0           2           2           0           0           0           0           0           0           2
 AtZEff=   0.0000000   0.0000000   0.0000000   0.0000000   0.0000000   0.0000000   0.0000000   0.0000000   0.0000000   0.0000000
 NQMom=    0.0000000   2.0440000   2.0440000   0.0000000   0.0000000   0.0000000   0.0000000   0.0000000   0.0000000   2.0440000
 NMagM=    0.0000000   0.4037610   0.4037610   0.0000000   0.0000000   0.0000000   0.0000000   0.0000000   0.0000000   0.4037610

  Atom        21          22          23          24          25          26          27          28          29          30
 IAtWgt=          12          12          12          12          12          12          12          12          14          12
 AtmWgt=  12.0000000  12.0000000  12.0000000  12.0000000  12.0000000  12.0000000  12.0000000  12.0000000  14.0030740  12.0000000
 NucSpn=           0           0           0           0           0           0           0           0           2           0
 AtZEff=   0.0000000   0.0000000   0.0000000   0.0000000   0.0000000   0.0000000   0.0000000   0.0000000   0.0000000   0.0000000
 NQMom=    0.0000000   0.0000000   0.0000000   0.0000000   0.0000000   0.0000000   0.0000000   0.0000000   2.0440000   0.0000000
 NMagM=    0.0000000   0.0000000   0.0000000   0.0000000   0.0000000   0.0000000   0.0000000   0.0000000   0.4037610   0.0000000

  Atom        31          32          33          34          35          36          37          38          39          40
 IAtWgt=          12          14          12          12          12          16          12           1           1           1
 AtmWgt=  12.0000000  14.0030740  12.0000000  12.0000000  12.0000000  15.9949146  12.0000000   1.0078250   1.0078250   1.0078250
 NucSpn=           0           2           0           0           0           0           0           1           1           1
 AtZEff=   0.0000000   0.0000000   0.0000000   0.0000000   0.0000000   0.0000000   0.0000000   0.0000000   0.0000000   0.0000000
 NQMom=    0.0000000   2.0440000   0.0000000   0.0000000   0.0000000   0.0000000   0.0000000   0.0000000   0.0000000   0.0000000
 NMagM=    0.0000000   0.4037610   0.0000000   0.0000000   0.0000000   0.0000000   0.0000000   2.7928460   2.7928460   2.7928460

  Atom        41          42          43          44          45          46          47          48          49          50
 IAtWgt=           1           1           1           1           1           1           1           1           1           1
 AtmWgt=   1.0078250   1.0078250   1.0078250   1.0078250   1.0078250   1.0078250   1.0078250   1.0078250   1.0078250   1.0078250
 NucSpn=           1           1           1           1           1           1           1           1           1           1
 AtZEff=   0.0000000   0.0000000   0.0000000   0.0000000   0.0000000   0.0000000   0.0000000   0.0000000   0.0000000   0.0000000
 NQMom=    0.0000000   0.0000000   0.0000000   0.0000000   0.0000000   0.0000000   0.0000000   0.0000000   0.0000000   0.0000000
 NMagM=    2.7928460   2.7928460   2.7928460   2.7928460   2.7928460   2.7928460   2.7928460   2.7928460   2.7928460   2.7928460

  Atom        51          52          53          54          55          56          57          58          59          60
 IAtWgt=           1           1           1           1           1           1           1           1           1           1
 AtmWgt=   1.0078250   1.0078250   1.0078250   1.0078250   1.0078250   1.0078250   1.0078250   1.0078250   1.0078250   1.0078250
 NucSpn=           1           1           1           1           1           1           1           1           1           1
 AtZEff=   0.0000000   0.0000000   0.0000000   0.0000000   0.0000000   0.0000000   0.0000000   0.0000000   0.0000000   0.0000000
 NQMom=    0.0000000   0.0000000   0.0000000   0.0000000   0.0000000   0.0000000   0.0000000   0.0000000   0.0000000   0.0000000
 NMagM=    2.7928460   2.7928460   2.7928460   2.7928460   2.7928460   2.7928460   2.7928460   2.7928460   2.7928460   2.7928460

  Atom        61          62          63          64          65          66          67          68
 IAtWgt=           1           1           1           1           1           1           1           1
 AtmWgt=   1.0078250   1.0078250   1.0078250   1.0078250   1.0078250   1.0078250   1.0078250   1.0078250
 NucSpn=           1           1           1           1           1           1           1           1
 AtZEff=   0.0000000   0.0000000   0.0000000   0.0000000   0.0000000   0.0000000   0.0000000   0.0000000
 NQMom=    0.0000000   0.0000000   0.0000000   0.0000000   0.0000000   0.0000000   0.0000000   0.0000000
 NMagM=    2.7928460   2.7928460   2.7928460   2.7928460   2.7928460   2.7928460   2.7928460   2.7928460
 Leave Link  101 at Tue Mar  3 10:22:26 2020, MaxMem= 2684354560 cpu:       0.4
 (Enter /opt/g09gh/gaussian/g09/l103.exe)

 GradGradGradGradGradGradGradGradGradGradGradGradGradGradGradGradGradGrad
 Berny optimization.
 Initialization pass.
                           ----------------------------
                           !    Initial Parameters    !
                           ! (Angstroms and Degrees)  !
 --------------------------                            --------------------------
 ! Name  Definition              Value          Derivative Info.                !
 --------------------------------------------------------------------------------
 ! R1    R(1,2)                  1.4011         estimate D2E/DX2                !
 ! R2    R(1,6)                  1.3987         estimate D2E/DX2                !
 ! R3    R(1,38)                 1.086          estimate D2E/DX2                !
 ! R4    R(2,3)                  1.4097         estimate D2E/DX2                !
 ! R5    R(2,39)                 1.0872         estimate D2E/DX2                !
 ! R6    R(3,4)                  1.4174         estimate D2E/DX2                !
 ! R7    R(3,7)                  1.5079         estimate D2E/DX2                !
 ! R8    R(4,5)                  1.3397         estimate D2E/DX2                !
 ! R9    R(4,40)                 1.0867         estimate D2E/DX2                !
 ! R10   R(5,6)                  1.3406         estimate D2E/DX2                !
 ! R11   R(6,41)                 1.0888         estimate D2E/DX2                !
 ! R12   R(7,8)                  1.4056         estimate D2E/DX2                !
 ! R13   R(7,12)                 1.3468         estimate D2E/DX2                !
 ! R14   R(8,9)                  1.3996         estimate D2E/DX2                !
 ! R15   R(8,42)                 1.0829         estimate D2E/DX2                !
 ! R16   R(9,10)                 1.3299         estimate D2E/DX2                !
 ! R17   R(9,43)                 1.0897         estimate D2E/DX2                !
 ! R18   R(10,11)                1.3483         estimate D2E/DX2                !
 ! R19   R(11,12)                1.3327         estimate D2E/DX2                !
 ! R20   R(11,13)                1.3729         estimate D2E/DX2                !
 ! R21   R(13,14)                1.418          estimate D2E/DX2                !
 ! R22   R(13,44)                1.01           estimate D2E/DX2                !
 ! R23   R(14,15)                1.4238         estimate D2E/DX2                !
 ! R24   R(14,19)                1.3985         estimate D2E/DX2                !
 ! R25   R(15,16)                1.403          estimate D2E/DX2                !
 ! R26   R(15,37)                1.5185         estimate D2E/DX2                !
 ! R27   R(16,17)                1.3998         estimate D2E/DX2                !
 ! R28   R(16,45)                1.0892         estimate D2E/DX2                !
 ! R29   R(17,18)                1.4006         estimate D2E/DX2                !
 ! R30   R(17,46)                1.0832         estimate D2E/DX2                !
 ! R31   R(18,19)                1.4066         estimate D2E/DX2                !
 ! R32   R(18,20)                1.4324         estimate D2E/DX2                !
 ! R33   R(19,47)                1.0815         estimate D2E/DX2                !
 ! R34   R(20,21)                1.3761         estimate D2E/DX2                !
 ! R35   R(20,48)                1.0103         estimate D2E/DX2                !
 ! R36   R(21,22)                1.516          estimate D2E/DX2                !
 ! R37   R(21,36)                1.2204         estimate D2E/DX2                !
 ! R38   R(22,23)                1.4045         estimate D2E/DX2                !
 ! R39   R(22,27)                1.4045         estimate D2E/DX2                !
 ! R40   R(23,24)                1.3966         estimate D2E/DX2                !
 ! R41   R(23,49)                1.0873         estimate D2E/DX2                !
 ! R42   R(24,25)                1.4076         estimate D2E/DX2                !
 ! R43   R(24,50)                1.09           estimate D2E/DX2                !
 ! R44   R(25,26)                1.4082         estimate D2E/DX2                !
 ! R45   R(25,28)                1.5299         estimate D2E/DX2                !
 ! R46   R(26,27)                1.3968         estimate D2E/DX2                !
 ! R47   R(26,51)                1.0898         estimate D2E/DX2                !
 ! R48   R(27,52)                1.0871         estimate D2E/DX2                !
 ! R49   R(28,29)                1.474          estimate D2E/DX2                !
 ! R50   R(28,53)                1.0997         estimate D2E/DX2                !
 ! R51   R(28,54)                1.0998         estimate D2E/DX2                !
 ! R52   R(29,30)                1.4799         estimate D2E/DX2                !
 ! R53   R(29,35)                1.4814         estimate D2E/DX2                !
 ! R54   R(30,31)                1.5503         estimate D2E/DX2                !
 ! R55   R(30,55)                1.066          estimate D2E/DX2                !
 ! R56   R(30,56)                1.5736         estimate D2E/DX2                !
 ! R57   R(31,32)                1.4815         estimate D2E/DX2                !
 ! R58   R(31,57)                1.5011         estimate D2E/DX2                !
 ! R59   R(31,58)                1.1313         estimate D2E/DX2                !
 ! R60   R(32,33)                1.4678         estimate D2E/DX2                !
 ! R61   R(32,34)                1.4836         estimate D2E/DX2                !
 ! R62   R(33,59)                1.0958         estimate D2E/DX2                !
 ! R63   R(33,60)                1.0959         estimate D2E/DX2                !
 ! R64   R(33,61)                1.096          estimate D2E/DX2                !
 ! R65   R(34,35)                1.5517         estimate D2E/DX2                !
 ! R66   R(34,62)                1.1138         estimate D2E/DX2                !
 ! R67   R(34,63)                1.4979         estimate D2E/DX2                !
 ! R68   R(35,64)                1.5798         estimate D2E/DX2                !
 ! R69   R(35,65)                1.1351         estimate D2E/DX2                !
 ! R70   R(37,66)                1.0989         estimate D2E/DX2                !
 ! R71   R(37,67)                1.0993         estimate D2E/DX2                !
 ! R72   R(37,68)                1.0987         estimate D2E/DX2                !
 ! A1    A(2,1,6)              118.3174         estimate D2E/DX2                !
 ! A2    A(2,1,38)             121.3129         estimate D2E/DX2                !
 ! A3    A(6,1,38)             120.3697         estimate D2E/DX2                !
 ! A4    A(1,2,3)              120.0377         estimate D2E/DX2                !
 ! A5    A(1,2,39)             118.0794         estimate D2E/DX2                !
 ! A6    A(3,2,39)             121.8828         estimate D2E/DX2                !
 ! A7    A(2,3,4)              115.9258         estimate D2E/DX2                !
 ! A8    A(2,3,7)              123.4527         estimate D2E/DX2                !
 ! A9    A(4,3,7)              120.6214         estimate D2E/DX2                !
 ! A10   A(3,4,5)              124.7166         estimate D2E/DX2                !
 ! A11   A(3,4,40)             119.8003         estimate D2E/DX2                !
 ! A12   A(5,4,40)             115.4831         estimate D2E/DX2                !
 ! A13   A(4,5,6)              117.7            estimate D2E/DX2                !
 ! A14   A(1,6,5)              123.3024         estimate D2E/DX2                !
 ! A15   A(1,6,41)             120.8603         estimate D2E/DX2                !
 ! A16   A(5,6,41)             115.8373         estimate D2E/DX2                !
 ! A17   A(3,7,8)              125.3744         estimate D2E/DX2                !
 ! A18   A(3,7,12)             114.7766         estimate D2E/DX2                !
 ! A19   A(8,7,12)             119.8488         estimate D2E/DX2                !
 ! A20   A(7,8,9)              115.8995         estimate D2E/DX2                !
 ! A21   A(7,8,42)             124.027          estimate D2E/DX2                !
 ! A22   A(9,8,42)             120.0734         estimate D2E/DX2                !
 ! A23   A(8,9,10)             124.402          estimate D2E/DX2                !
 ! A24   A(8,9,43)             120.2734         estimate D2E/DX2                !
 ! A25   A(10,9,43)            115.3245         estimate D2E/DX2                !
 ! A26   A(9,10,11)            115.3493         estimate D2E/DX2                !
 ! A27   A(10,11,12)           125.2243         estimate D2E/DX2                !
 ! A28   A(10,11,13)           115.8795         estimate D2E/DX2                !
 ! A29   A(12,11,13)           118.8947         estimate D2E/DX2                !
 ! A30   A(7,12,11)            119.2758         estimate D2E/DX2                !
 ! A31   A(11,13,14)           130.6429         estimate D2E/DX2                !
 ! A32   A(11,13,44)           112.5236         estimate D2E/DX2                !
 ! A33   A(14,13,44)           116.5269         estimate D2E/DX2                !
 ! A34   A(13,14,15)           119.618          estimate D2E/DX2                !
 ! A35   A(13,14,19)           120.3393         estimate D2E/DX2                !
 ! A36   A(15,14,19)           120.0427         estimate D2E/DX2                !
 ! A37   A(14,15,16)           116.9128         estimate D2E/DX2                !
 ! A38   A(14,15,37)           122.6256         estimate D2E/DX2                !
 ! A39   A(16,15,37)           120.454          estimate D2E/DX2                !
 ! A40   A(15,16,17)           123.6092         estimate D2E/DX2                !
 ! A41   A(15,16,45)           119.2004         estimate D2E/DX2                !
 ! A42   A(17,16,45)           117.1848         estimate D2E/DX2                !
 ! A43   A(16,17,18)           118.5704         estimate D2E/DX2                !
 ! A44   A(16,17,46)           121.1568         estimate D2E/DX2                !
 ! A45   A(18,17,46)           120.2707         estimate D2E/DX2                !
 ! A46   A(17,18,19)           119.3429         estimate D2E/DX2                !
 ! A47   A(17,18,20)           125.3675         estimate D2E/DX2                !
 ! A48   A(19,18,20)           115.2756         estimate D2E/DX2                !
 ! A49   A(14,19,18)           121.5207         estimate D2E/DX2                !
 ! A50   A(14,19,47)           117.0545         estimate D2E/DX2                !
 ! A51   A(18,19,47)           121.4178         estimate D2E/DX2                !
 ! A52   A(18,20,21)           130.8995         estimate D2E/DX2                !
 ! A53   A(18,20,48)           114.1629         estimate D2E/DX2                !
 ! A54   A(21,20,48)           114.7598         estimate D2E/DX2                !
 ! A55   A(20,21,22)           117.7615         estimate D2E/DX2                !
 ! A56   A(20,21,36)           122.5417         estimate D2E/DX2                !
 ! A57   A(22,21,36)           119.6835         estimate D2E/DX2                !
 ! A58   A(21,22,23)           123.0931         estimate D2E/DX2                !
 ! A59   A(21,22,27)           118.1389         estimate D2E/DX2                !
 ! A60   A(23,22,27)           118.7663         estimate D2E/DX2                !
 ! A61   A(22,23,24)           120.4248         estimate D2E/DX2                !
 ! A62   A(22,23,49)           119.4705         estimate D2E/DX2                !
 ! A63   A(24,23,49)           120.1044         estimate D2E/DX2                !
 ! A64   A(23,24,25)           121.4437         estimate D2E/DX2                !
 ! A65   A(23,24,50)           118.6686         estimate D2E/DX2                !
 ! A66   A(25,24,50)           119.8877         estimate D2E/DX2                !
 ! A67   A(24,25,26)           117.502          estimate D2E/DX2                !
 ! A68   A(24,25,28)           121.2717         estimate D2E/DX2                !
 ! A69   A(26,25,28)           121.1753         estimate D2E/DX2                !
 ! A70   A(25,26,27)           121.4653         estimate D2E/DX2                !
 ! A71   A(25,26,51)           119.9817         estimate D2E/DX2                !
 ! A72   A(27,26,51)           118.5527         estimate D2E/DX2                !
 ! A73   A(22,27,26)           120.3765         estimate D2E/DX2                !
 ! A74   A(22,27,52)           118.6432         estimate D2E/DX2                !
 ! A75   A(26,27,52)           120.9734         estimate D2E/DX2                !
 ! A76   A(25,28,29)           119.0369         estimate D2E/DX2                !
 ! A77   A(25,28,53)           108.407          estimate D2E/DX2                !
 ! A78   A(25,28,54)           108.4697         estimate D2E/DX2                !
 ! A79   A(29,28,53)           107.1783         estimate D2E/DX2                !
 ! A80   A(29,28,54)           106.6377         estimate D2E/DX2                !
 ! A81   A(53,28,54)           106.4584         estimate D2E/DX2                !
 ! A82   A(28,29,30)           118.9822         estimate D2E/DX2                !
 ! A83   A(28,29,35)           118.6925         estimate D2E/DX2                !
 ! A84   A(30,29,35)           110.3734         estimate D2E/DX2                !
 ! A85   A(29,30,31)           114.3889         estimate D2E/DX2                !
 ! A86   A(29,30,55)           110.8727         estimate D2E/DX2                !
 ! A87   A(29,30,56)           106.6236         estimate D2E/DX2                !
 ! A88   A(31,30,55)           112.7068         estimate D2E/DX2                !
 ! A89   A(31,30,56)           105.2717         estimate D2E/DX2                !
 ! A90   A(55,30,56)           106.2883         estimate D2E/DX2                !
 ! A91   A(30,31,32)           114.0034         estimate D2E/DX2                !
 ! A92   A(30,31,57)           106.8899         estimate D2E/DX2                !
 ! A93   A(30,31,58)           111.5215         estimate D2E/DX2                !
 ! A94   A(32,31,57)           108.3926         estimate D2E/DX2                !
 ! A95   A(32,31,58)           108.0465         estimate D2E/DX2                !
 ! A96   A(57,31,58)           107.7747         estimate D2E/DX2                !
 ! A97   A(31,32,33)           116.6756         estimate D2E/DX2                !
 ! A98   A(31,32,34)           108.9879         estimate D2E/DX2                !
 ! A99   A(33,32,34)           116.4604         estimate D2E/DX2                !
 ! A100  A(32,33,59)           111.0728         estimate D2E/DX2                !
 ! A101  A(32,33,60)           110.1918         estimate D2E/DX2                !
 ! A102  A(32,33,61)           110.1301         estimate D2E/DX2                !
 ! A103  A(59,33,60)           108.8447         estimate D2E/DX2                !
 ! A104  A(59,33,61)           108.7367         estimate D2E/DX2                !
 ! A105  A(60,33,61)           107.7851         estimate D2E/DX2                !
 ! A106  A(32,34,35)           114.402          estimate D2E/DX2                !
 ! A107  A(32,34,62)           109.5256         estimate D2E/DX2                !
 ! A108  A(32,34,63)           106.602          estimate D2E/DX2                !
 ! A109  A(35,34,62)           111.581          estimate D2E/DX2                !
 ! A110  A(35,34,63)           107.0479         estimate D2E/DX2                !
 ! A111  A(62,34,63)           107.2904         estimate D2E/DX2                !
 ! A112  A(29,35,34)           115.2446         estimate D2E/DX2                !
 ! A113  A(29,35,64)           106.9384         estimate D2E/DX2                !
 ! A114  A(29,35,65)           110.4502         estimate D2E/DX2                !
 ! A115  A(34,35,64)           105.2744         estimate D2E/DX2                !
 ! A116  A(34,35,65)           111.5442         estimate D2E/DX2                !
 ! A117  A(64,35,65)           106.8025         estimate D2E/DX2                !
 ! A118  A(15,37,66)           111.7318         estimate D2E/DX2                !
 ! A119  A(15,37,67)           111.1188         estimate D2E/DX2                !
 ! A120  A(15,37,68)           112.8723         estimate D2E/DX2                !
 ! A121  A(66,37,67)           107.3558         estimate D2E/DX2                !
 ! A122  A(66,37,68)           106.6125         estimate D2E/DX2                !
 ! A123  A(67,37,68)           106.8203         estimate D2E/DX2                !
 ! D1    D(6,1,2,3)              0.0438         estimate D2E/DX2                !
 ! D2    D(6,1,2,39)          -179.8689         estimate D2E/DX2                !
 ! D3    D(38,1,2,3)          -179.9518         estimate D2E/DX2                !
 ! D4    D(38,1,2,39)            0.1354         estimate D2E/DX2                !
 ! D5    D(2,1,6,5)              0.0405         estimate D2E/DX2                !
 ! D6    D(2,1,6,41)          -179.9908         estimate D2E/DX2                !
 ! D7    D(38,1,6,5)          -179.9638         estimate D2E/DX2                !
 ! D8    D(38,1,6,41)            0.0049         estimate D2E/DX2                !
 ! D9    D(1,2,3,4)             -0.1025         estimate D2E/DX2                !
 ! D10   D(1,2,3,7)           -179.9863         estimate D2E/DX2                !
 ! D11   D(39,2,3,4)           179.8068         estimate D2E/DX2                !
 ! D12   D(39,2,3,7)            -0.077          estimate D2E/DX2                !
 ! D13   D(2,3,4,5)              0.0902         estimate D2E/DX2                !
 ! D14   D(2,3,4,40)          -179.8941         estimate D2E/DX2                !
 ! D15   D(7,3,4,5)            179.9776         estimate D2E/DX2                !
 ! D16   D(7,3,4,40)            -0.0067         estimate D2E/DX2                !
 ! D17   D(2,3,7,8)             -0.0791         estimate D2E/DX2                !
 ! D18   D(2,3,7,12)           179.7766         estimate D2E/DX2                !
 ! D19   D(4,3,7,8)           -179.9577         estimate D2E/DX2                !
 ! D20   D(4,3,7,12)            -0.1019         estimate D2E/DX2                !
 ! D21   D(3,4,5,6)             -0.0119         estimate D2E/DX2                !
 ! D22   D(40,4,5,6)           179.973          estimate D2E/DX2                !
 ! D23   D(4,5,6,1)             -0.0566         estimate D2E/DX2                !
 ! D24   D(4,5,6,41)           179.9733         estimate D2E/DX2                !
 ! D25   D(3,7,8,9)            179.7762         estimate D2E/DX2                !
 ! D26   D(3,7,8,42)            -0.1307         estimate D2E/DX2                !
 ! D27   D(12,7,8,9)            -0.0727         estimate D2E/DX2                !
 ! D28   D(12,7,8,42)         -179.9797         estimate D2E/DX2                !
 ! D29   D(3,7,12,11)         -179.7936         estimate D2E/DX2                !
 ! D30   D(8,7,12,11)            0.0707         estimate D2E/DX2                !
 ! D31   D(7,8,9,10)            -0.0408         estimate D2E/DX2                !
 ! D32   D(7,8,9,43)          -179.9112         estimate D2E/DX2                !
 ! D33   D(42,8,9,10)          179.8701         estimate D2E/DX2                !
 ! D34   D(42,8,9,43)           -0.0003         estimate D2E/DX2                !
 ! D35   D(8,9,10,11)            0.1462         estimate D2E/DX2                !
 ! D36   D(43,9,10,11)        -179.9776         estimate D2E/DX2                !
 ! D37   D(9,10,11,12)          -0.1525         estimate D2E/DX2                !
 ! D38   D(9,10,11,13)        -179.704          estimate D2E/DX2                !
 ! D39   D(10,11,12,7)           0.0472         estimate D2E/DX2                !
 ! D40   D(13,11,12,7)         179.5864         estimate D2E/DX2                !
 ! D41   D(10,11,13,14)       -175.7434         estimate D2E/DX2                !
 ! D42   D(10,11,13,44)         -2.4391         estimate D2E/DX2                !
 ! D43   D(12,11,13,14)          4.6751         estimate D2E/DX2                !
 ! D44   D(12,11,13,44)        177.9793         estimate D2E/DX2                !
 ! D45   D(11,13,14,15)         83.0523         estimate D2E/DX2                !
 ! D46   D(11,13,14,19)        -96.8847         estimate D2E/DX2                !
 ! D47   D(44,13,14,15)        -90.0339         estimate D2E/DX2                !
 ! D48   D(44,13,14,19)         90.0291         estimate D2E/DX2                !
 ! D49   D(13,14,15,16)       -179.8267         estimate D2E/DX2                !
 ! D50   D(13,14,15,37)         -0.8266         estimate D2E/DX2                !
 ! D51   D(19,14,15,16)          0.1105         estimate D2E/DX2                !
 ! D52   D(19,14,15,37)        179.1106         estimate D2E/DX2                !
 ! D53   D(13,14,19,18)        179.8473         estimate D2E/DX2                !
 ! D54   D(13,14,19,47)          0.79           estimate D2E/DX2                !
 ! D55   D(15,14,19,18)         -0.0894         estimate D2E/DX2                !
 ! D56   D(15,14,19,47)       -179.1468         estimate D2E/DX2                !
 ! D57   D(14,15,16,17)          0.1313         estimate D2E/DX2                !
 ! D58   D(14,15,16,45)        179.2524         estimate D2E/DX2                !
 ! D59   D(37,15,16,17)       -178.8919         estimate D2E/DX2                !
 ! D60   D(37,15,16,45)          0.2293         estimate D2E/DX2                !
 ! D61   D(14,15,37,66)         52.6567         estimate D2E/DX2                !
 ! D62   D(14,15,37,67)        -67.2246         estimate D2E/DX2                !
 ! D63   D(14,15,37,68)        172.801          estimate D2E/DX2                !
 ! D64   D(16,15,37,66)       -128.3776         estimate D2E/DX2                !
 ! D65   D(16,15,37,67)        111.7411         estimate D2E/DX2                !
 ! D66   D(16,15,37,68)         -8.2333         estimate D2E/DX2                !
 ! D67   D(15,16,17,18)         -0.3892         estimate D2E/DX2                !
 ! D68   D(15,16,17,46)        179.0915         estimate D2E/DX2                !
 ! D69   D(45,16,17,18)       -179.5268         estimate D2E/DX2                !
 ! D70   D(45,16,17,46)         -0.0461         estimate D2E/DX2                !
 ! D71   D(16,17,18,19)          0.3983         estimate D2E/DX2                !
 ! D72   D(16,17,18,20)        178.9697         estimate D2E/DX2                !
 ! D73   D(46,17,18,19)       -179.0872         estimate D2E/DX2                !
 ! D74   D(46,17,18,20)         -0.5158         estimate D2E/DX2                !
 ! D75   D(17,18,19,14)         -0.1714         estimate D2E/DX2                !
 ! D76   D(17,18,19,47)        178.8449         estimate D2E/DX2                !
 ! D77   D(20,18,19,14)       -178.8831         estimate D2E/DX2                !
 ! D78   D(20,18,19,47)          0.1332         estimate D2E/DX2                !
 ! D79   D(17,18,20,21)         -8.1945         estimate D2E/DX2                !
 ! D80   D(17,18,20,48)        176.9839         estimate D2E/DX2                !
 ! D81   D(19,18,20,21)        170.4283         estimate D2E/DX2                !
 ! D82   D(19,18,20,48)         -4.3932         estimate D2E/DX2                !
 ! D83   D(18,20,21,22)       -168.3896         estimate D2E/DX2                !
 ! D84   D(18,20,21,36)         12.9468         estimate D2E/DX2                !
 ! D85   D(48,20,21,22)          6.4073         estimate D2E/DX2                !
 ! D86   D(48,20,21,36)       -172.2563         estimate D2E/DX2                !
 ! D87   D(20,21,22,23)         35.2793         estimate D2E/DX2                !
 ! D88   D(20,21,22,27)       -145.2043         estimate D2E/DX2                !
 ! D89   D(36,21,22,23)       -146.0175         estimate D2E/DX2                !
 ! D90   D(36,21,22,27)         33.4989         estimate D2E/DX2                !
 ! D91   D(21,22,23,24)       -179.0225         estimate D2E/DX2                !
 ! D92   D(21,22,23,49)          1.1778         estimate D2E/DX2                !
 ! D93   D(27,22,23,24)          1.4641         estimate D2E/DX2                !
 ! D94   D(27,22,23,49)       -178.3357         estimate D2E/DX2                !
 ! D95   D(21,22,27,26)        178.7141         estimate D2E/DX2                !
 ! D96   D(21,22,27,52)         -0.3376         estimate D2E/DX2                !
 ! D97   D(23,22,27,26)         -1.7481         estimate D2E/DX2                !
 ! D98   D(23,22,27,52)        179.2002         estimate D2E/DX2                !
 ! D99   D(22,23,24,25)         -0.681          estimate D2E/DX2                !
 ! D100  D(22,23,24,50)        179.277          estimate D2E/DX2                !
 ! D101  D(49,23,24,25)        179.1174         estimate D2E/DX2                !
 ! D102  D(49,23,24,50)         -0.9245         estimate D2E/DX2                !
 ! D103  D(23,24,25,26)          0.1503         estimate D2E/DX2                !
 ! D104  D(23,24,25,28)        177.5834         estimate D2E/DX2                !
 ! D105  D(50,24,25,26)       -179.8073         estimate D2E/DX2                !
 ! D106  D(50,24,25,28)         -2.3742         estimate D2E/DX2                !
 ! D107  D(24,25,26,27)         -0.4396         estimate D2E/DX2                !
 ! D108  D(24,25,26,51)        179.3728         estimate D2E/DX2                !
 ! D109  D(28,25,26,27)       -177.8752         estimate D2E/DX2                !
 ! D110  D(28,25,26,51)          1.9372         estimate D2E/DX2                !
 ! D111  D(24,25,28,29)        -82.9716         estimate D2E/DX2                !
 ! D112  D(24,25,28,53)         39.7645         estimate D2E/DX2                !
 ! D113  D(24,25,28,54)        154.9763         estimate D2E/DX2                !
 ! D114  D(26,25,28,29)         94.3671         estimate D2E/DX2                !
 ! D115  D(26,25,28,53)       -142.8968         estimate D2E/DX2                !
 ! D116  D(26,25,28,54)        -27.6849         estimate D2E/DX2                !
 ! D117  D(25,26,27,22)          1.2607         estimate D2E/DX2                !
 ! D118  D(25,26,27,52)       -179.71           estimate D2E/DX2                !
 ! D119  D(51,26,27,22)       -178.5543         estimate D2E/DX2                !
 ! D120  D(51,26,27,52)          0.475          estimate D2E/DX2                !
 ! D121  D(25,28,29,30)         74.6373         estimate D2E/DX2                !
 ! D122  D(25,28,29,35)        -64.5495         estimate D2E/DX2                !
 ! D123  D(53,28,29,30)        -48.7052         estimate D2E/DX2                !
 ! D124  D(53,28,29,35)        172.1081         estimate D2E/DX2                !
 ! D125  D(54,28,29,30)       -162.4012         estimate D2E/DX2                !
 ! D126  D(54,28,29,35)         58.4121         estimate D2E/DX2                !
 ! D127  D(28,29,30,31)        -94.1123         estimate D2E/DX2                !
 ! D128  D(28,29,30,55)         34.6792         estimate D2E/DX2                !
 ! D129  D(28,29,30,56)        149.9635         estimate D2E/DX2                !
 ! D130  D(35,29,30,31)         48.1825         estimate D2E/DX2                !
 ! D131  D(35,29,30,55)        176.974          estimate D2E/DX2                !
 ! D132  D(35,29,30,56)        -67.7418         estimate D2E/DX2                !
 ! D133  D(28,29,35,34)         95.6935         estimate D2E/DX2                !
 ! D134  D(28,29,35,64)       -147.6866         estimate D2E/DX2                !
 ! D135  D(28,29,35,65)        -31.8329         estimate D2E/DX2                !
 ! D136  D(30,29,35,34)        -46.7243         estimate D2E/DX2                !
 ! D137  D(30,29,35,64)         69.8956         estimate D2E/DX2                !
 ! D138  D(30,29,35,65)       -174.2507         estimate D2E/DX2                !
 ! D139  D(29,30,31,32)        -53.6823         estimate D2E/DX2                !
 ! D140  D(29,30,31,57)       -173.4294         estimate D2E/DX2                !
 ! D141  D(29,30,31,58)         69.0103         estimate D2E/DX2                !
 ! D142  D(55,30,31,32)        178.4537         estimate D2E/DX2                !
 ! D143  D(55,30,31,57)         58.7066         estimate D2E/DX2                !
 ! D144  D(55,30,31,58)        -58.8537         estimate D2E/DX2                !
 ! D145  D(56,30,31,32)         63.0231         estimate D2E/DX2                !
 ! D146  D(56,30,31,57)        -56.7241         estimate D2E/DX2                !
 ! D147  D(56,30,31,58)       -174.2843         estimate D2E/DX2                !
 ! D148  D(30,31,32,33)        -81.8828         estimate D2E/DX2                !
 ! D149  D(30,31,32,34)         52.5623         estimate D2E/DX2                !
 ! D150  D(57,31,32,33)         37.0135         estimate D2E/DX2                !
 ! D151  D(57,31,32,34)        171.4586         estimate D2E/DX2                !
 ! D152  D(58,31,32,33)        153.5451         estimate D2E/DX2                !
 ! D153  D(58,31,32,34)        -72.0098         estimate D2E/DX2                !
 ! D154  D(31,32,33,59)         65.6915         estimate D2E/DX2                !
 ! D155  D(31,32,33,60)        -55.0076         estimate D2E/DX2                !
 ! D156  D(31,32,33,61)       -173.7861         estimate D2E/DX2                !
 ! D157  D(34,32,33,59)        -65.3644         estimate D2E/DX2                !
 ! D158  D(34,32,33,60)        173.9365         estimate D2E/DX2                !
 ! D159  D(34,32,33,61)         55.158          estimate D2E/DX2                !
 ! D160  D(31,32,34,35)        -50.8493         estimate D2E/DX2                !
 ! D161  D(31,32,34,62)       -176.9651         estimate D2E/DX2                !
 ! D162  D(31,32,34,63)         67.2624         estimate D2E/DX2                !
 ! D163  D(33,32,34,35)         83.7053         estimate D2E/DX2                !
 ! D164  D(33,32,34,62)        -42.4105         estimate D2E/DX2                !
 ! D165  D(33,32,34,63)       -158.1829         estimate D2E/DX2                !
 ! D166  D(32,34,35,29)         50.294          estimate D2E/DX2                !
 ! D167  D(32,34,35,64)        -67.2654         estimate D2E/DX2                !
 ! D168  D(32,34,35,65)        177.2682         estimate D2E/DX2                !
 ! D169  D(62,34,35,29)        175.3324         estimate D2E/DX2                !
 ! D170  D(62,34,35,64)         57.773          estimate D2E/DX2                !
 ! D171  D(62,34,35,65)        -57.6934         estimate D2E/DX2                !
 ! D172  D(63,34,35,29)        -67.564          estimate D2E/DX2                !
 ! D173  D(63,34,35,64)        174.8766         estimate D2E/DX2                !
 ! D174  D(63,34,35,65)         59.4102         estimate D2E/DX2                !
 --------------------------------------------------------------------------------
 Trust Radius=3.00D-01 FncErr=1.00D-07 GrdErr=1.00D-06
 Number of steps in this run= 400 maximum allowed number of steps= 408.
 GradGradGradGradGradGradGradGradGradGradGradGradGradGradGradGradGradGrad

 Leave Link  103 at Tue Mar  3 10:22:26 2020, MaxMem= 2684354560 cpu:       0.1
 (Enter /opt/g09gh/gaussian/g09/l202.exe)
 Stoichiometry    C29H31N7O
 Framework group  C1[X(C29H31N7O)]
 Deg. of freedom   198
 Full point group                 C1      NOp   1
 Largest Abelian subgroup         C1      NOp   1
 Largest concise Abelian subgroup C1      NOp   1
                         Standard orientation:                         
 ---------------------------------------------------------------------
 Center     Atomic      Atomic             Coordinates (Angstroms)
 Number     Number       Type             X           Y           Z
 ---------------------------------------------------------------------
      1          6           0       -6.721449   -3.542531   -1.990720
      2          6           0       -6.600289   -3.011027   -0.700023
      3          6           0       -5.726878   -1.930700   -0.460898
      4          6           0       -5.011864   -1.450947   -1.586788
      5          7           0       -5.116860   -1.948776   -2.826159
      6          6           0       -5.958417   -2.974861   -3.016348
      7          6           0       -5.536699   -1.300086    0.895508
      8          6           0       -6.190828   -1.694806    2.075299
      9          6           0       -5.860942   -0.972856    3.228078
     10          7           0       -4.989993    0.031615    3.262063
     11          6           0       -4.415895    0.338069    2.081204
     12          7           0       -4.655788   -0.281764    0.926018
     13          7           0       -3.510100    1.369458    2.105032
     14          6           0       -2.795141    1.995257    1.052490
     15          6           0       -3.421107    3.021468    0.289494
     16          6           0       -2.663301    3.599100   -0.740346
     17          6           0       -1.351300    3.217566   -1.044517
     18          6           0       -0.752076    2.209875   -0.278309
     19          6           0       -1.483007    1.608221    0.761980
     20          7           0        0.569653    1.693970   -0.474951
     21          6           0        1.481388    1.912179   -1.482330
     22          6           0        2.697288    1.008743   -1.542164
     23          6           0        2.658838   -0.352540   -1.198652
     24          6           0        3.818208   -1.129153   -1.254866
     25          6           0        5.048464   -0.583223   -1.666987
     26          6           0        5.069605    0.780134   -2.018949
     27          6           0        3.914067    1.563341   -1.971614
     28          6           0        6.327116   -1.423127   -1.675040
     29          7           0        7.087459   -1.580737   -0.422184
     30          6           0        6.560629   -2.480607    0.627974
     31          6           0        5.702518   -1.771701    1.707056
     32          7           0        6.376376   -0.621143    2.352903
     33          6           0        7.310790   -0.931018    3.441599
     34          6           0        6.869346    0.302048    1.301282
     35          6           0        7.707458   -0.382204    0.189081
     36          8           0        1.354786    2.810014   -2.299203
     37          6           0       -4.848698    3.473699    0.541221
     38          1           0       -7.388490   -4.373987   -2.198396
     39          1           0       -7.193536   -3.456618    0.094681
     40          1           0       -4.319724   -0.620862   -1.473435
     41          1           0       -6.020403   -3.355244   -4.034647
     42          1           0       -6.909736   -2.502940    2.128275
     43          1           0       -6.324959   -1.219935    4.182568
     44          1           0       -3.426824    1.790171    3.019408
     45          1           0       -3.109970    4.379117   -1.355442
     46          1           0       -0.807417    3.680814   -1.858704
     47          1           0       -1.059850    0.814480    1.362530
     48          1           0        0.848894    1.001716    0.205818
     49          1           0        1.717011   -0.800139   -0.890819
     50          1           0        3.758173   -2.179700   -0.970594
     51          1           0        6.002615    1.246828   -2.334006
     52          1           0        3.938562    2.614025   -2.249582
     53          1           0        6.077207   -2.432670   -2.032502
     54          1           0        7.021045   -0.994278   -2.412703
     55          1           0        6.066578   -3.320481    0.195681
     56          1           0        7.807990   -3.051158    1.399254
     57          1           0        5.396409   -2.794627    2.762215
     58          1           0        4.718867   -1.408527    1.282459
     59          1           0        8.178650   -1.487057    3.069639
     60          1           0        6.810040   -1.529658    4.210998
     61          1           0        7.661168   -0.005572    3.912826
     62          1           0        7.425701    1.142693    1.774879
     63          1           0        5.657646    0.885658    0.641798
     64          1           0        9.032560   -0.862675    0.902588
     65          1           0        8.017050    0.357551   -0.614261
     66          1           0       -5.011708    3.738699    1.595163
     67          1           0       -5.566020    2.680209    0.287886
     68          1           0       -5.127995    4.355816   -0.051300
 ---------------------------------------------------------------------
 Rotational constants (GHZ):      0.1445850      0.0362376      0.0354018
 Leave Link  202 at Tue Mar  3 10:22:26 2020, MaxMem= 2684354560 cpu:       0.0
 (Enter /opt/g09gh/gaussian/g09/l301.exe)
 Standard basis: 6-31G(d) (6D, 7F)
 Ernie: Thresh=  0.10000D-02 Tol=  0.10000D-05 Strict=F.
 There are   617 symmetry adapted basis functions of A   symmetry.
 Integral buffers will be    131072 words long.
 Raffenetti 2 integral format.
 Two-electron integral symmetry is turned on.
   617 basis functions,  1160 primitive gaussians,   617 cartesian basis functions
   131 alpha electrons      131 beta electrons
       nuclear repulsion energy      3583.8598934753 Hartrees.
 IExCor= 4639 DFT=T Ex+Corr=wB97XD ExCW=0 ScaHFX=  1.000000
 ScaDFX=  1.000000  1.000000  1.000000  1.000000 ScalE2=  1.000000  1.000000
 IRadAn=      0 IRanWt=     -1 IRanGd=            0 ICorTp=0
  HFx wShort=  0.000000 wLong=  0.200000 cFull=  0.222036 cShort=  0.000000 cLong=  0.777964
  DFx wShort=  0.000000 wLong=  0.200000 cFull=  0.000000 cShort=  0.000000 cLong=  1.000000
 NAtoms=   68 NActive=   68 NUniq=   68 SFac= 7.50D-01 NAtFMM=   80 NAOKFM=F Big=T
 R6Disp: Dispersion energy =        -0.0551754620 Hartrees.
 Nuclear repulsion after empirical dispersion term =     3583.8047180134 Hartrees.
 Leave Link  301 at Tue Mar  3 10:22:27 2020, MaxMem= 2684354560 cpu:       0.2
 (Enter /opt/g09gh/gaussian/g09/l302.exe)
 NPDir=0 NMtPBC=     1 NCelOv=     1 NCel=       1 NClECP=     1 NCelD=      1
         NCelK=      1 NCelE2=     1 NClLst=     1 CellRange=     0.0.
 One-electron integrals computed using PRISM.
 NBasis=   617 RedAO= T  NBF=   617
 NBsUse=   617 1.00D-06 NBFU=   617
 Precomputing XC quadrature grid using
 IXCGrd= 2 IRadAn=           0 IRanWt=          -1 IRanGd=           0 AccXCQ= 1.00D-10.
 NRdTot=    4405 NPtTot=      563612 NUsed=      595344 NTot=      595376
 NSgBfM=   585   585   585   585   586 NAtAll=    68    68.
 Leave Link  302 at Tue Mar  3 10:22:28 2020, MaxMem= 2684354560 cpu:       7.4
 (Enter /opt/g09gh/gaussian/g09/l303.exe)
 DipDrv:  MaxL=1.
 Leave Link  303 at Tue Mar  3 10:22:28 2020, MaxMem= 2684354560 cpu:       0.5
 (Enter /opt/g09gh/gaussian/g09/l401.exe)
 Harris functional with IExCor= 4639 diagonalized for initial guess.
 ExpMin= 1.61D-01 ExpMax= 5.48D+03 ExpMxC= 8.25D+02 IAcc=1 IRadAn=         1 AccDes= 0.00D+00
 HarFok:  IExCor= 4639 AccDes= 0.00D+00 IRadAn=         1 IDoV= 1
 ScaDFX=  1.000000  1.000000  1.000000  1.000000
 FoFCou: FMM=F IPFlag=           0 FMFlag=      100000 FMFlg1=           1
         NFxFlg=           0 DoJE=T BraDBF=F KetDBF=T FulRan=T
         Omega=  0.000000  0.000000  1.000000  0.000000  0.000000 ICntrl=     500 IOpCl=  0
         NMat0=    1 NMatS0=    1 NMatT0=    0 NMatD0=    1 NMtDS0=    0 NMtDT0=    0
         I1Cent=           4 NGrid=           0.
 Petite list used in FoFCou.
 Harris En= -1512.38651456559    
 Initial guess orbital symmetries:
       Occupied  (A) (A) (A) (A) (A) (A) (A) (A) (A) (A) (A) (A)
                 (A) (A) (A) (A) (A) (A) (A) (A) (A) (A) (A) (A)
                 (A) (A) (A) (A) (A) (A) (A) (A) (A) (A) (A) (A)
                 (A) (A) (A) (A) (A) (A) (A) (A) (A) (A) (A) (A)
                 (A) (A) (A) (A) (A) (A) (A) (A) (A) (A) (A) (A)
                 (A) (A) (A) (A) (A) (A) (A) (A) (A) (A) (A) (A)
                 (A) (A) (A) (A) (A) (A) (A) (A) (A) (A) (A) (A)
                 (A) (A) (A) (A) (A) (A) (A) (A) (A) (A) (A) (A)
                 (A) (A) (A) (A) (A) (A) (A) (A) (A) (A) (A) (A)
                 (A) (A) (A) (A) (A) (A) (A) (A) (A) (A) (A) (A)
                 (A) (A) (A) (A) (A) (A) (A) (A) (A) (A) (A)
       Virtual   (A) (A) (A) (A) (A) (A) (A) (A) (A) (A) (A) (A)
                 (A) (A) (A) (A) (A) (A) (A) (A) (A) (A) (A) (A)
                 (A) (A) (A) (A) (A) (A) (A) (A) (A) (A) (A) (A)
                 (A) (A) (A) (A) (A) (A) (A) (A) (A) (A) (A) (A)
                 (A) (A) (A) (A) (A) (A) (A) (A) (A) (A) (A) (A)
                 (A) (A) (A) (A) (A) (A) (A) (A) (A) (A) (A) (A)
                 (A) (A) (A) (A) (A) (A) (A) (A) (A) (A) (A) (A)
                 (A) (A) (A) (A) (A) (A) (A) (A) (A) (A) (A) (A)
                 (A) (A) (A) (A) (A) (A) (A) (A) (A) (A) (A) (A)
                 (A) (A) (A) (A) (A) (A) (A) (A) (A) (A) (A) (A)
                 (A) (A) (A) (A) (A) (A) (A) (A) (A) (A) (A) (A)
                 (A) (A) (A) (A) (A) (A) (A) (A) (A) (A) (A) (A)
                 (A) (A) (A) (A) (A) (A) (A) (A) (A) (A) (A) (A)
                 (A) (A) (A) (A) (A) (A) (A) (A) (A) (A) (A) (A)
                 (A) (A) (A) (A) (A) (A) (A) (A) (A) (A) (A) (A)
                 (A) (A) (A) (A) (A) (A) (A) (A) (A) (A) (A) (A)
                 (A) (A) (A) (A) (A) (A) (A) (A) (A) (A) (A) (A)
                 (A) (A) (A) (A) (A) (A) (A) (A) (A) (A) (A) (A)
                 (A) (A) (A) (A) (A) (A) (A) (A) (A) (A) (A) (A)
                 (A) (A) (A) (A) (A) (A) (A) (A) (A) (A) (A) (A)
                 (A) (A) (A) (A) (A) (A) (A) (A) (A) (A) (A) (A)
                 (A) (A) (A) (A) (A) (A) (A) (A) (A) (A) (A) (A)
                 (A) (A) (A) (A) (A) (A) (A) (A) (A) (A) (A) (A)
                 (A) (A) (A) (A) (A) (A) (A) (A) (A) (A) (A) (A)
                 (A) (A) (A) (A) (A) (A) (A) (A) (A) (A) (A) (A)
                 (A) (A) (A) (A) (A) (A) (A) (A) (A) (A) (A) (A)
                 (A) (A) (A) (A) (A) (A) (A) (A) (A) (A) (A) (A)
                 (A) (A) (A) (A) (A) (A) (A) (A) (A) (A) (A) (A)
                 (A) (A) (A) (A) (A) (A) (A) (A) (A) (A) (A) (A)
                 (A) (A) (A) (A) (A) (A) (A) (A) (A) (A) (A) (A)
                 (A) (A) (A) (A) (A) (A) (A) (A) (A) (A) (A) (A)
                 (A) (A) (A) (A) (A) (A) (A) (A) (A) (A) (A) (A)
                 (A) (A) (A) (A) (A) (A) (A) (A) (A) (A) (A) (A)
                 (A) (A) (A) (A) (A) (A) (A) (A) (A) (A) (A) (A)
                 (A) (A) (A) (A) (A) (A) (A) (A) (A) (A) (A) (A)
                 (A) (A) (A) (A) (A) (A) (A) (A) (A) (A) (A) (A)
                 (A) (A) (A) (A) (A) (A) (A) (A) (A) (A) (A) (A)
                 (A) (A) (A) (A) (A) (A) (A) (A) (A) (A) (A) (A)
                 (A) (A) (A) (A) (A) (A) (A) (A) (A) (A) (A) (A)
                 (A) (A) (A) (A) (A) (A) (A) (A) (A) (A) (A) (A)
                 (A) (A) (A) (A) (A) (A)
 The electronic state of the initial guess is 1-A.
 Leave Link  401 at Tue Mar  3 10:22:30 2020, MaxMem= 2684354560 cpu:      14.4
 (Enter /opt/g09gh/gaussian/g09/l502.exe)
 Closed shell SCF:
 Requested convergence on RMS density matrix=1.00D-08 within 128 cycles.
 Requested convergence on MAX density matrix=1.00D-06.
 Requested convergence on             energy=1.00D-06.
 No special actions if energy rises.
 Using DIIS extrapolation, IDIIS=  1040.
 Integral symmetry usage will be decided dynamically.
       594719 words used for storage of precomputed grid.
 IEnd=     1763299 IEndB=     1763299 NGot=  2684354560 MDV=  2682989208
 LenX=  2682989208 LenY=  2682607902
 Fock matrices will be formed incrementally for  20 cycles.
 Integral accuracy reduced to 1.0D-05 until final iterations.

 Cycle   1  Pass 0  IDiag  1:
 FoFJK:  IHMeth= 1 ICntrl=     0 DoSepK=T KAlg= 1 I1Cent= 0 FoldK=F
 FoFCou: FMM=T IPFlag=           0 FMFlag=      100000 FMFlg1=           1
         NFxFlg=           0 DoJE=T BraDBF=F KetDBF=F FulRan=T
         Omega=  0.000000  0.000000  1.000000  0.000000  0.000000 ICntrl=     500 IOpCl=  0
         NMat0=    1 NMatS0=    1 NMatT0=    0 NMatD0=    1 NMtDS0=    0 NMtDT0=    0
         I1Cent=           0 NGrid=           0.
 Symmetry not used in FoFCou.
 FMM levels:  10  Number of levels for PrismC:   9
 E= -1581.17137346356    
 DIIS: error= 6.10D-02 at cycle   1 NSaved=   1.
 NSaved= 1 IEnMin= 1 EnMin= -1581.17137346356     IErMin= 1 ErrMin= 6.10D-02
 ErrMax= 6.10D-02 EMaxC= 1.00D-01 BMatC= 1.44D+00 BMatP= 1.44D+00
 IDIUse=3 WtCom= 3.90D-01 WtEn= 6.10D-01
 Coeff-Com:  0.100D+01
 Coeff-En:   0.100D+01
 Coeff:      0.100D+01
 Gap=     0.297 Goal=   None    Shift=    0.000
 GapD=    0.297 DampG=1.000 DampE=0.500 DampFc=0.5000 IDamp=-1.
 Damping current iteration by 5.00D-01
 RMSDP=1.83D-03 MaxDP=8.86D-02              OVMax= 1.17D-01

 Cycle   2  Pass 0  IDiag  1:
 RMSU=  6.46D-04    CP:  1.00D+00
 FoFJK:  IHMeth= 1 ICntrl=     0 DoSepK=T KAlg= 1 I1Cent= 0 FoldK=F
 E= -1581.34180299859     Delta-E=       -0.170429535031 Rises=F Damp=T
 DIIS: error= 3.14D-02 at cycle   2 NSaved=   2.
 NSaved= 2 IEnMin= 2 EnMin= -1581.34180299859     IErMin= 2 ErrMin= 3.14D-02
 ErrMax= 3.14D-02 EMaxC= 1.00D-01 BMatC= 3.22D-01 BMatP= 1.44D+00
 IDIUse=3 WtCom= 6.86D-01 WtEn= 3.14D-01
 Coeff-Com: -0.686D+00 0.169D+01
 Coeff-En:   0.000D+00 0.100D+01
 Coeff:     -0.470D+00 0.147D+01
 Gap=     0.309 Goal=   None    Shift=    0.000
 RMSDP=8.53D-04 MaxDP=3.94D-02 DE=-1.70D-01 OVMax= 9.26D-02

 Cycle   3  Pass 0  IDiag  1:
 RMSU=  5.33D-04    CP:  1.00D+00  1.44D+00
 FoFJK:  IHMeth= 1 ICntrl=     0 DoSepK=T KAlg= 1 I1Cent= 0 FoldK=F
 E= -1581.47298566393     Delta-E=       -0.131182665331 Rises=F Damp=F
 DIIS: error= 5.96D-03 at cycle   3 NSaved=   3.
 NSaved= 3 IEnMin= 3 EnMin= -1581.47298566393     IErMin= 3 ErrMin= 5.96D-03
 ErrMax= 5.96D-03 EMaxC= 1.00D-01 BMatC= 5.23D-02 BMatP= 3.22D-01
 IDIUse=3 WtCom= 9.40D-01 WtEn= 5.96D-02
 Coeff-Com: -0.361D+00 0.746D+00 0.615D+00
 Coeff-En:   0.000D+00 0.000D+00 0.100D+01
 Coeff:     -0.340D+00 0.702D+00 0.638D+00
 Gap=     0.277 Goal=   None    Shift=    0.000
 RMSDP=4.19D-04 MaxDP=2.53D-02 DE=-1.31D-01 OVMax= 4.78D-02

 Cycle   4  Pass 0  IDiag  1:
 RMSU=  1.34D-04    CP:  1.00D+00  1.70D+00  6.15D-01
 FoFJK:  IHMeth= 1 ICntrl=     0 DoSepK=T KAlg= 1 I1Cent= 0 FoldK=F
 E= -1581.51891762138     Delta-E=       -0.045931957450 Rises=F Damp=F
 DIIS: error= 1.34D-03 at cycle   4 NSaved=   4.
 NSaved= 4 IEnMin= 4 EnMin= -1581.51891762138     IErMin= 4 ErrMin= 1.34D-03
 ErrMax= 1.34D-03 EMaxC= 1.00D-01 BMatC= 2.93D-03 BMatP= 5.23D-02
 IDIUse=3 WtCom= 9.87D-01 WtEn= 1.34D-02
 Coeff-Com: -0.161D+00 0.329D+00 0.338D+00 0.495D+00
 Coeff-En:   0.000D+00 0.000D+00 0.000D+00 0.100D+01
 Coeff:     -0.159D+00 0.325D+00 0.333D+00 0.501D+00
 Gap=     0.270 Goal=   None    Shift=    0.000
 RMSDP=8.97D-05 MaxDP=8.47D-03 DE=-4.59D-02 OVMax= 8.33D-03

 Cycle   5  Pass 0  IDiag  1:
 RMSU=  4.37D-05    CP:  1.00D+00  1.69D+00  6.69D-01  7.37D-01
 FoFJK:  IHMeth= 1 ICntrl=     0 DoSepK=T KAlg= 1 I1Cent= 0 FoldK=F
 E= -1581.52135110587     Delta-E=       -0.002433484498 Rises=F Damp=F
 DIIS: error= 2.70D-04 at cycle   5 NSaved=   5.
 NSaved= 5 IEnMin= 5 EnMin= -1581.52135110587     IErMin= 5 ErrMin= 2.70D-04
 ErrMax= 2.70D-04 EMaxC= 1.00D-01 BMatC= 8.29D-05 BMatP= 2.93D-03
 IDIUse=3 WtCom= 9.97D-01 WtEn= 2.70D-03
 Coeff-Com: -0.171D-01 0.340D-01 0.560D-01 0.163D+00 0.764D+00
 Coeff-En:   0.000D+00 0.000D+00 0.000D+00 0.000D+00 0.100D+01
 Coeff:     -0.170D-01 0.339D-01 0.558D-01 0.162D+00 0.765D+00
 Gap=     0.269 Goal=   None    Shift=    0.000
 RMSDP=2.28D-05 MaxDP=1.99D-03 DE=-2.43D-03 OVMax= 2.75D-03

 Cycle   6  Pass 0  IDiag  1:
 RMSU=  1.28D-05    CP:  1.00D+00  1.69D+00  6.77D-01  7.95D-01  9.82D-01
 FoFJK:  IHMeth= 1 ICntrl=     0 DoSepK=T KAlg= 1 I1Cent= 0 FoldK=F
 E= -1581.52143036650     Delta-E=       -0.000079260625 Rises=F Damp=F
 DIIS: error= 1.69D-04 at cycle   6 NSaved=   6.
 NSaved= 6 IEnMin= 6 EnMin= -1581.52143036650     IErMin= 6 ErrMin= 1.69D-04
 ErrMax= 1.69D-04 EMaxC= 1.00D-01 BMatC= 2.28D-05 BMatP= 8.29D-05
 IDIUse=3 WtCom= 9.98D-01 WtEn= 1.69D-03
 Coeff-Com:  0.216D-01-0.447D-01-0.329D-01-0.156D-01 0.376D+00 0.696D+00
 Coeff-En:   0.000D+00 0.000D+00 0.000D+00 0.000D+00 0.000D+00 0.100D+01
 Coeff:      0.216D-01-0.446D-01-0.329D-01-0.155D-01 0.375D+00 0.696D+00
 Gap=     0.269 Goal=   None    Shift=    0.000
 RMSDP=1.23D-05 MaxDP=7.33D-04 DE=-7.93D-05 OVMax= 1.68D-03

 Cycle   7  Pass 0  IDiag  1:
 RMSU=  5.34D-06    CP:  1.00D+00  1.70D+00  6.81D-01  8.23D-01  1.10D+00
                    CP:  9.25D-01
 FoFJK:  IHMeth= 1 ICntrl=     0 DoSepK=T KAlg= 1 I1Cent= 0 FoldK=F
 E= -1581.52145630502     Delta-E=       -0.000025938522 Rises=F Damp=F
 DIIS: error= 4.28D-05 at cycle   7 NSaved=   7.
 NSaved= 7 IEnMin= 7 EnMin= -1581.52145630502     IErMin= 7 ErrMin= 4.28D-05
 ErrMax= 4.28D-05 EMaxC= 1.00D-01 BMatC= 1.56D-06 BMatP= 2.28D-05
 IDIUse=1 WtCom= 1.00D+00 WtEn= 0.00D+00
 Coeff-Com:  0.949D-02-0.194D-01-0.165D-01-0.223D-01 0.584D-01 0.240D+00
 Coeff-Com:  0.750D+00
 Coeff:      0.949D-02-0.194D-01-0.165D-01-0.223D-01 0.584D-01 0.240D+00
 Coeff:      0.750D+00
 Gap=     0.269 Goal=   None    Shift=    0.000
 RMSDP=4.08D-06 MaxDP=1.80D-04 DE=-2.59D-05 OVMax= 6.41D-04

 Initial convergence to 1.0D-05 achieved.  Increase integral accuracy.
 Cycle   8  Pass 1  IDiag  1:
 FoFJK:  IHMeth= 1 ICntrl=     0 DoSepK=T KAlg= 1 I1Cent= 0 FoldK=F
 E= -1581.51997812890     Delta-E=        0.001478176126 Rises=F Damp=F
 DIIS: error= 1.07D-04 at cycle   1 NSaved=   1.
 NSaved= 1 IEnMin= 1 EnMin= -1581.51997812890     IErMin= 1 ErrMin= 1.07D-04
 ErrMax= 1.07D-04 EMaxC= 1.00D-01 BMatC= 1.17D-05 BMatP= 1.17D-05
 IDIUse=3 WtCom= 9.99D-01 WtEn= 1.07D-03
 Coeff-Com:  0.100D+01
 Coeff-En:   0.100D+01
 Coeff:      0.100D+01
 Gap=     0.269 Goal=   None    Shift=    0.000
 RMSDP=4.08D-06 MaxDP=1.80D-04 DE= 1.48D-03 OVMax= 3.00D-04

 Cycle   9  Pass 1  IDiag  1:
 RMSU=  1.50D-05    CP:  1.00D+00
 FoFJK:  IHMeth= 1 ICntrl=     0 DoSepK=T KAlg= 1 I1Cent= 0 FoldK=F
 E= -1581.51998754157     Delta-E=       -0.000009412670 Rises=F Damp=F
 DIIS: error= 1.85D-05 at cycle   2 NSaved=   2.
 NSaved= 2 IEnMin= 2 EnMin= -1581.51998754157     IErMin= 2 ErrMin= 1.85D-05
 ErrMax= 1.85D-05 EMaxC= 1.00D-01 BMatC= 6.44D-07 BMatP= 1.17D-05
 IDIUse=1 WtCom= 1.00D+00 WtEn= 0.00D+00
 Coeff-Com:  0.259D-01 0.974D+00
 Coeff:      0.259D-01 0.974D+00
 Gap=     0.269 Goal=   None    Shift=    0.000
 RMSDP=2.88D-06 MaxDP=2.11D-04 DE=-9.41D-06 OVMax= 3.58D-04

 Cycle  10  Pass 1  IDiag  1:
 RMSU=  1.90D-06    CP:  1.00D+00  1.05D+00
 FoFJK:  IHMeth= 1 ICntrl=     0 DoSepK=T KAlg= 1 I1Cent= 0 FoldK=F
 E= -1581.51998760974     Delta-E=       -0.000000068177 Rises=F Damp=F
 DIIS: error= 2.37D-05 at cycle   3 NSaved=   3.
 NSaved= 3 IEnMin= 3 EnMin= -1581.51998760974     IErMin= 2 ErrMin= 1.85D-05
 ErrMax= 2.37D-05 EMaxC= 1.00D-01 BMatC= 7.95D-07 BMatP= 6.44D-07
 IDIUse=1 WtCom= 1.00D+00 WtEn= 0.00D+00
 Coeff-Com: -0.405D-01 0.545D+00 0.495D+00
 Coeff:     -0.405D-01 0.545D+00 0.495D+00
 Gap=     0.269 Goal=   None    Shift=    0.000
 RMSDP=1.43D-06 MaxDP=1.25D-04 DE=-6.82D-08 OVMax= 1.53D-04

 Cycle  11  Pass 1  IDiag  1:
 RMSU=  5.93D-07    CP:  1.00D+00  1.06D+00  5.79D-01
 FoFJK:  IHMeth= 1 ICntrl=     0 DoSepK=T KAlg= 1 I1Cent= 0 FoldK=F
 E= -1581.51998829503     Delta-E=       -0.000000685283 Rises=F Damp=F
 DIIS: error= 4.44D-06 at cycle   4 NSaved=   4.
 NSaved= 4 IEnMin= 4 EnMin= -1581.51998829503     IErMin= 4 ErrMin= 4.44D-06
 ErrMax= 4.44D-06 EMaxC= 1.00D-01 BMatC= 1.95D-08 BMatP= 6.44D-07
 IDIUse=1 WtCom= 1.00D+00 WtEn= 0.00D+00
 Coeff-Com: -0.166D-01 0.124D+00 0.169D+00 0.724D+00
 Coeff:     -0.166D-01 0.124D+00 0.169D+00 0.724D+00
 Gap=     0.269 Goal=   None    Shift=    0.000
 RMSDP=3.29D-07 MaxDP=2.92D-05 DE=-6.85D-07 OVMax= 4.49D-05

 Cycle  12  Pass 1  IDiag  1:
 RMSU=  2.01D-07    CP:  1.00D+00  1.06D+00  6.37D-01  1.05D+00
 FoFJK:  IHMeth= 1 ICntrl=     0 DoSepK=T KAlg= 1 I1Cent= 0 FoldK=F
 E= -1581.51998831468     Delta-E=       -0.000000019650 Rises=F Damp=F
 DIIS: error= 2.16D-06 at cycle   5 NSaved=   5.
 NSaved= 5 IEnMin= 5 EnMin= -1581.51998831468     IErMin= 5 ErrMin= 2.16D-06
 ErrMax= 2.16D-06 EMaxC= 1.00D-01 BMatC= 4.79D-09 BMatP= 1.95D-08
 IDIUse=1 WtCom= 1.00D+00 WtEn= 0.00D+00
 Coeff-Com:  0.265D-03-0.444D-01-0.178D-01 0.327D+00 0.735D+00
 Coeff:      0.265D-03-0.444D-01-0.178D-01 0.327D+00 0.735D+00
 Gap=     0.269 Goal=   None    Shift=    0.000
 RMSDP=1.76D-07 MaxDP=1.20D-05 DE=-1.96D-08 OVMax= 2.43D-05

 Cycle  13  Pass 1  IDiag  1:
 RMSU=  8.10D-08    CP:  1.00D+00  1.06D+00  6.53D-01  1.20D+00  9.33D-01
 FoFJK:  IHMeth= 1 ICntrl=     0 DoSepK=T KAlg= 1 I1Cent= 0 FoldK=F
 E= -1581.51998832083     Delta-E=       -0.000000006154 Rises=F Damp=F
 DIIS: error= 4.68D-07 at cycle   6 NSaved=   6.
 NSaved= 6 IEnMin= 6 EnMin= -1581.51998832083     IErMin= 6 ErrMin= 4.68D-07
 ErrMax= 4.68D-07 EMaxC= 1.00D-01 BMatC= 3.90D-10 BMatP= 4.79D-09
 IDIUse=1 WtCom= 1.00D+00 WtEn= 0.00D+00
 Coeff-Com:  0.190D-02-0.272D-01-0.251D-01 0.246D-01 0.235D+00 0.791D+00
 Coeff:      0.190D-02-0.272D-01-0.251D-01 0.246D-01 0.235D+00 0.791D+00
 Gap=     0.269 Goal=   None    Shift=    0.000
 RMSDP=7.14D-08 MaxDP=2.85D-06 DE=-6.15D-09 OVMax= 1.12D-05

 Cycle  14  Pass 1  IDiag  1:
 RMSU=  3.29D-08    CP:  1.00D+00  1.06D+00  6.56D-01  1.25D+00  1.04D+00
                    CP:  1.05D+00
 FoFJK:  IHMeth= 1 ICntrl=     0 DoSepK=T KAlg= 1 I1Cent= 0 FoldK=F
 E= -1581.51998832162     Delta-E=       -0.000000000795 Rises=F Damp=F
 DIIS: error= 3.38D-07 at cycle   7 NSaved=   7.
 NSaved= 7 IEnMin= 7 EnMin= -1581.51998832162     IErMin= 7 ErrMin= 3.38D-07
 ErrMax= 3.38D-07 EMaxC= 1.00D-01 BMatC= 9.79D-11 BMatP= 3.90D-10
 IDIUse=1 WtCom= 1.00D+00 WtEn= 0.00D+00
 Coeff-Com:  0.721D-03-0.371D-02-0.802D-02-0.505D-01-0.316D-01 0.341D+00
 Coeff-Com:  0.753D+00
 Coeff:      0.721D-03-0.371D-02-0.802D-02-0.505D-01-0.316D-01 0.341D+00
 Coeff:      0.753D+00
 Gap=     0.269 Goal=   None    Shift=    0.000
 RMSDP=3.55D-08 MaxDP=1.33D-06 DE=-7.95D-10 OVMax= 5.95D-06

 Cycle  15  Pass 1  IDiag  1:
 RMSU=  1.25D-08    CP:  1.00D+00  1.06D+00  6.60D-01  1.27D+00  1.09D+00
                    CP:  1.24D+00  9.99D-01
 FoFJK:  IHMeth= 1 ICntrl=     0 DoSepK=T KAlg= 1 I1Cent= 0 FoldK=F
 E= -1581.51998832185     Delta-E=       -0.000000000223 Rises=F Damp=F
 DIIS: error= 1.15D-07 at cycle   8 NSaved=   8.
 NSaved= 8 IEnMin= 8 EnMin= -1581.51998832185     IErMin= 8 ErrMin= 1.15D-07
 ErrMax= 1.15D-07 EMaxC= 1.00D-01 BMatC= 1.22D-11 BMatP= 9.79D-11
 IDIUse=1 WtCom= 1.00D+00 WtEn= 0.00D+00
 Coeff-Com: -0.528D-04 0.325D-02 0.131D-02-0.220D-01-0.475D-01-0.694D-02
 Coeff-Com:  0.262D+00 0.810D+00
 Coeff:     -0.528D-04 0.325D-02 0.131D-02-0.220D-01-0.475D-01-0.694D-02
 Coeff:      0.262D+00 0.810D+00
 Gap=     0.269 Goal=   None    Shift=    0.000
 RMSDP=1.41D-08 MaxDP=5.54D-07 DE=-2.23D-10 OVMax= 2.91D-06

 Cycle  16  Pass 1  IDiag  1:
 RMSU=  5.15D-09    CP:  1.00D+00  1.06D+00  6.60D-01  1.28D+00  1.10D+00
                    CP:  1.29D+00  1.17D+00  1.07D+00
 FoFJK:  IHMeth= 1 ICntrl=     0 DoSepK=T KAlg= 1 I1Cent= 0 FoldK=F
 E= -1581.51998832192     Delta-E=       -0.000000000072 Rises=F Damp=F
 DIIS: error= 4.13D-08 at cycle   9 NSaved=   9.
 NSaved= 9 IEnMin= 9 EnMin= -1581.51998832192     IErMin= 9 ErrMin= 4.13D-08
 ErrMax= 4.13D-08 EMaxC= 1.00D-01 BMatC= 2.11D-12 BMatP= 1.22D-11
 IDIUse=1 WtCom= 1.00D+00 WtEn= 0.00D+00
 Coeff-Com: -0.139D-03 0.180D-02 0.186D-02 0.230D-03-0.124D-01-0.631D-01
 Coeff-Com: -0.366D-01 0.286D+00 0.822D+00
 Coeff:     -0.139D-03 0.180D-02 0.186D-02 0.230D-03-0.124D-01-0.631D-01
 Coeff:     -0.366D-01 0.286D+00 0.822D+00
 Gap=     0.269 Goal=   None    Shift=    0.000
 RMSDP=6.17D-09 MaxDP=2.34D-07 DE=-7.19D-11 OVMax= 1.24D-06

 SCF Done:  E(RwB97XD) =  -1581.51998832     A.U. after   16 cycles
             Convg  =    0.6171D-08             -V/T =  2.0109
 KE= 1.564526094364D+03 PE=-1.083636581633D+04 EE= 4.106515015630D+03
 Leave Link  502 at Tue Mar  3 10:25:04 2020, MaxMem= 2684354560 cpu:     917.5
 (Enter /opt/g09gh/gaussian/g09/l601.exe)
 Copying SCF densities to generalized density rwf, IOpCl= 0 IROHF=0.

 **********************************************************************

            Population analysis using the SCF density.

 **********************************************************************

 Orbital symmetries:
       Occupied  (A) (A) (A) (A) (A) (A) (A) (A) (A) (A) (A) (A)
                 (A) (A) (A) (A) (A) (A) (A) (A) (A) (A) (A) (A)
                 (A) (A) (A) (A) (A) (A) (A) (A) (A) (A) (A) (A)
                 (A) (A) (A) (A) (A) (A) (A) (A) (A) (A) (A) (A)
                 (A) (A) (A) (A) (A) (A) (A) (A) (A) (A) (A) (A)
                 (A) (A) (A) (A) (A) (A) (A) (A) (A) (A) (A) (A)
                 (A) (A) (A) (A) (A) (A) (A) (A) (A) (A) (A) (A)
                 (A) (A) (A) (A) (A) (A) (A) (A) (A) (A) (A) (A)
                 (A) (A) (A) (A) (A) (A) (A) (A) (A) (A) (A) (A)
                 (A) (A) (A) (A) (A) (A) (A) (A) (A) (A) (A) (A)
                 (A) (A) (A) (A) (A) (A) (A) (A) (A) (A) (A)
       Virtual   (A) (A) (A) (A) (A) (A) (A) (A) (A) (A) (A) (A)
                 (A) (A) (A) (A) (A) (A) (A) (A) (A) (A) (A) (A)
                 (A) (A) (A) (A) (A) (A) (A) (A) (A) (A) (A) (A)
                 (A) (A) (A) (A) (A) (A) (A) (A) (A) (A) (A) (A)
                 (A) (A) (A) (A) (A) (A) (A) (A) (A) (A) (A) (A)
                 (A) (A) (A) (A) (A) (A) (A) (A) (A) (A) (A) (A)
                 (A) (A) (A) (A) (A) (A) (A) (A) (A) (A) (A) (A)
                 (A) (A) (A) (A) (A) (A) (A) (A) (A) (A) (A) (A)
                 (A) (A) (A) (A) (A) (A) (A) (A) (A) (A) (A) (A)
                 (A) (A) (A) (A) (A) (A) (A) (A) (A) (A) (A) (A)
                 (A) (A) (A) (A) (A) (A) (A) (A) (A) (A) (A) (A)
                 (A) (A) (A) (A) (A) (A) (A) (A) (A) (A) (A) (A)
                 (A) (A) (A) (A) (A) (A) (A) (A) (A) (A) (A) (A)
                 (A) (A) (A) (A) (A) (A) (A) (A) (A) (A) (A) (A)
                 (A) (A) (A) (A) (A) (A) (A) (A) (A) (A) (A) (A)
                 (A) (A) (A) (A) (A) (A) (A) (A) (A) (A) (A) (A)
                 (A) (A) (A) (A) (A) (A) (A) (A) (A) (A) (A) (A)
                 (A) (A) (A) (A) (A) (A) (A) (A) (A) (A) (A) (A)
                 (A) (A) (A) (A) (A) (A) (A) (A) (A) (A) (A) (A)
                 (A) (A) (A) (A) (A) (A) (A) (A) (A) (A) (A) (A)
                 (A) (A) (A) (A) (A) (A) (A) (A) (A) (A) (A) (A)
                 (A) (A) (A) (A) (A) (A) (A) (A) (A) (A) (A) (A)
                 (A) (A) (A) (A) (A) (A) (A) (A) (A) (A) (A) (A)
                 (A) (A) (A) (A) (A) (A) (A) (A) (A) (A) (A) (A)
                 (A) (A) (A) (A) (A) (A) (A) (A) (A) (A) (A) (A)
                 (A) (A) (A) (A) (A) (A) (A) (A) (A) (A) (A) (A)
                 (A) (A) (A) (A) (A) (A) (A) (A) (A) (A) (A) (A)
                 (A) (A) (A) (A) (A) (A) (A) (A) (A) (A) (A) (A)
                 (A) (A) (A) (A) (A) (A) (A) (A) (A) (A) (A) (A)
                 (A) (A) (A) (A) (A) (A) (A) (A) (A) (A) (A) (A)
                 (A) (A) (A) (A) (A) (A) (A) (A) (A) (A) (A) (A)
                 (A) (A) (A) (A) (A) (A) (A) (A) (A) (A) (A) (A)
                 (A) (A) (A) (A) (A) (A) (A) (A) (A) (A) (A) (A)
                 (A) (A) (A) (A) (A) (A) (A) (A) (A) (A) (A) (A)
                 (A) (A) (A) (A) (A) (A) (A) (A) (A) (A) (A) (A)
                 (A) (A) (A) (A) (A) (A) (A) (A) (A) (A) (A) (A)
                 (A) (A) (A) (A) (A) (A) (A) (A) (A) (A) (A) (A)
                 (A) (A) (A) (A) (A) (A) (A) (A) (A) (A) (A) (A)
                 (A) (A) (A) (A) (A) (A) (A) (A) (A) (A) (A) (A)
                 (A) (A) (A) (A) (A) (A) (A) (A) (A) (A) (A) (A)
                 (A) (A) (A) (A) (A) (A)
 The electronic state is 1-A.
 Alpha  occ. eigenvalues --  -19.24217 -14.49760 -14.47816 -14.47005 -14.45049
 Alpha  occ. eigenvalues --  -14.44976 -14.44958 -14.44647 -10.41361 -10.40934
 Alpha  occ. eigenvalues --  -10.37162 -10.37093 -10.36254 -10.36142 -10.36064
 Alpha  occ. eigenvalues --  -10.35740 -10.35502 -10.34758 -10.34710 -10.33974
 Alpha  occ. eigenvalues --  -10.33585 -10.33150 -10.32864 -10.32692 -10.32644
 Alpha  occ. eigenvalues --  -10.32436 -10.31949 -10.31773 -10.31715 -10.31705
 Alpha  occ. eigenvalues --  -10.31497 -10.31218 -10.31142 -10.31108 -10.30407
 Alpha  occ. eigenvalues --  -10.30215 -10.29558  -1.14366  -1.10816  -1.04237
 Alpha  occ. eigenvalues --   -1.04081  -1.03879  -1.02919  -0.99891  -0.99175
 Alpha  occ. eigenvalues --   -0.96885  -0.94708  -0.91340  -0.88794  -0.88258
 Alpha  occ. eigenvalues --   -0.86697  -0.86043  -0.85785  -0.84118  -0.83816
 Alpha  occ. eigenvalues --   -0.82373  -0.79563  -0.78175  -0.76832  -0.75240
 Alpha  occ. eigenvalues --   -0.73230  -0.72407  -0.72251  -0.71311  -0.71208
 Alpha  occ. eigenvalues --   -0.70661  -0.70243  -0.68575  -0.66472  -0.64114
 Alpha  occ. eigenvalues --   -0.63885  -0.62467  -0.61487  -0.60814  -0.59712
 Alpha  occ. eigenvalues --   -0.58838  -0.57531  -0.57185  -0.56587  -0.56423
 Alpha  occ. eigenvalues --   -0.55621  -0.55524  -0.54766  -0.54605  -0.54234
 Alpha  occ. eigenvalues --   -0.53404  -0.53169  -0.52802  -0.52538  -0.51799
 Alpha  occ. eigenvalues --   -0.51750  -0.51354  -0.50873  -0.50573  -0.50314
 Alpha  occ. eigenvalues --   -0.50056  -0.49891  -0.48861  -0.48815  -0.48682
 Alpha  occ. eigenvalues --   -0.47382  -0.47149  -0.46779  -0.46548  -0.45548
 Alpha  occ. eigenvalues --   -0.44969  -0.44788  -0.44504  -0.44304  -0.44090
 Alpha  occ. eigenvalues --   -0.43665  -0.43040  -0.41662  -0.40739  -0.39884
 Alpha  occ. eigenvalues --   -0.39653  -0.38417  -0.38024  -0.36205  -0.36171
 Alpha  occ. eigenvalues --   -0.34624  -0.34212  -0.33864  -0.33049  -0.32875
 Alpha  occ. eigenvalues --   -0.32807  -0.32308  -0.31602  -0.30010  -0.28971
 Alpha  occ. eigenvalues --   -0.26471
 Alpha virt. eigenvalues --    0.00472   0.02141   0.04414   0.04992   0.05880
 Alpha virt. eigenvalues --    0.06673   0.06906   0.07615   0.09621   0.09697
 Alpha virt. eigenvalues --    0.11986   0.12844   0.13556   0.15389   0.16088
 Alpha virt. eigenvalues --    0.16820   0.18272   0.18401   0.18523   0.19324
 Alpha virt. eigenvalues --    0.19969   0.20145   0.20938   0.21439   0.21751
 Alpha virt. eigenvalues --    0.22552   0.22660   0.22896   0.23167   0.23386
 Alpha virt. eigenvalues --    0.23620   0.24262   0.24880   0.24973   0.25441
 Alpha virt. eigenvalues --    0.25622   0.25785   0.25932   0.26268   0.26322
 Alpha virt. eigenvalues --    0.27236   0.27288   0.28148   0.28280   0.28927
 Alpha virt. eigenvalues --    0.29065   0.29333   0.29796   0.30584   0.31239
 Alpha virt. eigenvalues --    0.31376   0.31875   0.32357   0.32821   0.33077
 Alpha virt. eigenvalues --    0.33456   0.34385   0.35214   0.35914   0.37524
 Alpha virt. eigenvalues --    0.37707   0.38182   0.38712   0.39111   0.39296
 Alpha virt. eigenvalues --    0.39616   0.40523   0.41051   0.41302   0.42241
 Alpha virt. eigenvalues --    0.43746   0.44320   0.44528   0.45694   0.46839
 Alpha virt. eigenvalues --    0.48525   0.50092   0.51292   0.52869   0.53953
 Alpha virt. eigenvalues --    0.55255   0.55510   0.56601   0.57773   0.58002
 Alpha virt. eigenvalues --    0.58156   0.58625   0.59151   0.59437   0.59624
 Alpha virt. eigenvalues --    0.60730   0.60913   0.61002   0.61367   0.61668
 Alpha virt. eigenvalues --    0.62140   0.62502   0.62614   0.63495   0.63765
 Alpha virt. eigenvalues --    0.64044   0.64697   0.65230   0.65422   0.65796
 Alpha virt. eigenvalues --    0.66011   0.66183   0.66280   0.66360   0.66669
 Alpha virt. eigenvalues --    0.67268   0.67390   0.67662   0.67816   0.68286
 Alpha virt. eigenvalues --    0.68552   0.68667   0.68985   0.69765   0.70261
 Alpha virt. eigenvalues --    0.70379   0.70913   0.71680   0.71771   0.72020
 Alpha virt. eigenvalues --    0.72298   0.72544   0.72695   0.73304   0.73371
 Alpha virt. eigenvalues --    0.74154   0.74867   0.75262   0.76438   0.77008
 Alpha virt. eigenvalues --    0.77211   0.77690   0.78495   0.78802   0.79186
 Alpha virt. eigenvalues --    0.80007   0.80844   0.81422   0.82226   0.82281
 Alpha virt. eigenvalues --    0.83760   0.83958   0.84643   0.84993   0.85105
 Alpha virt. eigenvalues --    0.86480   0.86711   0.87440   0.87980   0.88680
 Alpha virt. eigenvalues --    0.88718   0.89444   0.89899   0.90114   0.90480
 Alpha virt. eigenvalues --    0.91123   0.91436   0.91672   0.92032   0.92238
 Alpha virt. eigenvalues --    0.92368   0.92992   0.93617   0.93803   0.94145
 Alpha virt. eigenvalues --    0.94431   0.94967   0.95406   0.95592   0.95901
 Alpha virt. eigenvalues --    0.96393   0.96763   0.97309   0.97575   0.97686
 Alpha virt. eigenvalues --    0.98191   0.98767   0.98908   0.99687   1.00022
 Alpha virt. eigenvalues --    1.00338   1.00428   1.00916   1.01208   1.01684
 Alpha virt. eigenvalues --    1.02115   1.02923   1.03690   1.04001   1.04274
[...]
                 (A) (A) (A) (A) (A) (A) (A) (A) (A) (A) (A) (A)
                 (A) (A) (A) (A) (A) (A) (A) (A) (A) (A) (A) (A)
                 (A) (A) (A) (A) (A) (A) (A) (A) (A) (A) (A) (A)
                 (A) (A) (A) (A) (A) (A) (A) (A) (A) (A) (A) (A)
                 (A) (A) (A) (A) (A) (A) (A) (A) (A) (A) (A) (A)
                 (A) (A) (A) (A) (A) (A) (A) (A) (A) (A) (A) (A)
                 (A) (A) (A) (A) (A) (A) (A) (A) (A) (A) (A) (A)
                 (A) (A) (A) (A) (A) (A) (A) (A) (A) (A) (A) (A)
                 (A) (A) (A) (A) (A) (A) (A) (A) (A) (A) (A) (A)
                 (A) (A) (A) (A) (A) (A) (A) (A) (A) (A) (A) (A)
                 (A) (A) (A) (A) (A) (A) (A) (A) (A) (A) (A) (A)
                 (A) (A) (A) (A) (A) (A) (A) (A) (A) (A) (A) (A)
                 (A) (A) (A) (A) (A) (A) (A) (A) (A) (A) (A) (A)
                 (A) (A) (A) (A) (A) (A) (A) (A) (A) (A) (A) (A)
                 (A) (A) (A) (A) (A) (A) (A) (A) (A) (A) (A) (A)
                 (A) (A) (A) (A) (A) (A) (A) (A) (A) (A) (A) (A)
                 (A) (A) (A) (A) (A) (A) (A) (A) (A) (A) (A) (A)
                 (A) (A) (A) (A) (A) (A) (A) (A) (A) (A) (A) (A)
                 (A) (A) (A) (A) (A) (A) (A) (A) (A) (A) (A) (A)
                 (A) (A) (A) (A) (A) (A) (A) (A) (A) (A) (A) (A)
                 (A) (A) (A) (A) (A) (A) (A) (A) (A) (A) (A) (A)
                 (A) (A) (A) (A) (A) (A) (A) (A) (A) (A) (A) (A)
                 (A) (A) (A) (A) (A) (A) (A) (A) (A) (A) (A) (A)
                 (A) (A) (A) (A) (A) (A) (A) (A) (A) (A) (A) (A)
                 (A) (A) (A) (A) (A) (A) (A) (A) (A) (A) (A) (A)
                 (A) (A) (A) (A) (A) (A) (A) (A) (A) (A) (A) (A)
                 (A) (A) (A) (A) (A) (A) (A) (A) (A) (A) (A) (A)
                 (A) (A) (A) (A) (A) (A) (A) (A) (A) (A) (A) (A)
                 (A) (A) (A) (A) (A) (A) (A) (A) (A) (A) (A) (A)
                 (A) (A) (A) (A) (A) (A) (A) (A) (A) (A) (A) (A)
                 (A) (A) (A) (A) (A) (A) (A) (A) (A) (A) (A) (A)
                 (A) (A) (A) (A) (A) (A) (A) (A) (A) (A) (A) (A)
                 (A) (A) (A) (A) (A) (A)
 The electronic state is 1-A.
 Alpha  occ. eigenvalues --  -19.24202 -14.49457 -14.47987 -14.45089 -14.44938
 Alpha  occ. eigenvalues --  -14.44868 -14.44067 -14.43495 -10.41026 -10.40719
 Alpha  occ. eigenvalues --  -10.36658 -10.35417 -10.34758 -10.34064 -10.33887
 Alpha  occ. eigenvalues --  -10.33415 -10.32979 -10.32882 -10.32261 -10.32016
 Alpha  occ. eigenvalues --  -10.31937 -10.31743 -10.31634 -10.31615 -10.31550
 Alpha  occ. eigenvalues --  -10.31275 -10.31154 -10.31121 -10.31010 -10.30975
 Alpha  occ. eigenvalues --  -10.30938 -10.30854 -10.30419 -10.30305 -10.29546
 Alpha  occ. eigenvalues --  -10.29045 -10.28099  -1.14402  -1.11337  -1.04798
 Alpha  occ. eigenvalues --   -1.04573  -1.04274  -1.03282  -0.99996  -0.99769
 Alpha  occ. eigenvalues --   -0.96991  -0.94706  -0.91955  -0.88813  -0.88433
 Alpha  occ. eigenvalues --   -0.86444  -0.86302  -0.85942  -0.85391  -0.83601
 Alpha  occ. eigenvalues --   -0.82313  -0.79435  -0.77930  -0.77162  -0.75301
 Alpha  occ. eigenvalues --   -0.73697  -0.73259  -0.72592  -0.71488  -0.71200
 Alpha  occ. eigenvalues --   -0.71058  -0.70387  -0.68237  -0.66363  -0.64676
 Alpha  occ. eigenvalues --   -0.64147  -0.63691  -0.62371  -0.60954  -0.59679
 Alpha  occ. eigenvalues --   -0.58670  -0.57753  -0.57248  -0.56358  -0.56254
 Alpha  occ. eigenvalues --   -0.55484  -0.55383  -0.55195  -0.54806  -0.54400
 Alpha  occ. eigenvalues --   -0.53999  -0.53783  -0.53143  -0.53107  -0.52736
 Alpha  occ. eigenvalues --   -0.51725  -0.51410  -0.51047  -0.50851  -0.50525
 Alpha  occ. eigenvalues --   -0.50115  -0.49621  -0.49179  -0.48966  -0.48801
 Alpha  occ. eigenvalues --   -0.47155  -0.46926  -0.46717  -0.46485  -0.45694
 Alpha  occ. eigenvalues --   -0.45283  -0.45055  -0.44961  -0.44304  -0.43870
 Alpha  occ. eigenvalues --   -0.43036  -0.42966  -0.42054  -0.42003  -0.41391
 Alpha  occ. eigenvalues --   -0.41367  -0.40537  -0.39723  -0.37892  -0.36577
 Alpha  occ. eigenvalues --   -0.34405  -0.34341  -0.33875  -0.33855  -0.32879
 Alpha  occ. eigenvalues --   -0.32694  -0.32258  -0.31267  -0.29714  -0.28105
 Alpha  occ. eigenvalues --   -0.25404
 Alpha virt. eigenvalues --    0.00637   0.02527   0.04278   0.05489   0.05901
 Alpha virt. eigenvalues --    0.07529   0.08051   0.09835   0.13830   0.15091
 Alpha virt. eigenvalues --    0.15878   0.16983   0.17108   0.18536   0.18751
 Alpha virt. eigenvalues --    0.19494   0.19790   0.20151   0.20202   0.20989
 Alpha virt. eigenvalues --    0.21759   0.21884   0.22208   0.22379   0.22859
 Alpha virt. eigenvalues --    0.23167   0.23598   0.23907   0.24264   0.24886
 Alpha virt. eigenvalues --    0.24961   0.25202   0.26042   0.26149   0.26209
 Alpha virt. eigenvalues --    0.26613   0.26951   0.27154   0.27474   0.28252
 Alpha virt. eigenvalues --    0.28413   0.28946   0.29278   0.29912   0.30372
 Alpha virt. eigenvalues --    0.30756   0.31030   0.31488   0.31565   0.32165
 Alpha virt. eigenvalues --    0.32506   0.33144   0.33535   0.33903   0.34165
 Alpha virt. eigenvalues --    0.34458   0.35059   0.35920   0.37478   0.37792
 Alpha virt. eigenvalues --    0.38568   0.38802   0.39222   0.39907   0.40582
 Alpha virt. eigenvalues --    0.40719   0.41231   0.41667   0.41885   0.42536
 Alpha virt. eigenvalues --    0.43957   0.45083   0.45468   0.46873   0.47659
 Alpha virt. eigenvalues --    0.48416   0.51029   0.51315   0.52502   0.54126
 Alpha virt. eigenvalues --    0.56469   0.57127   0.57581   0.57692   0.58639
 Alpha virt. eigenvalues --    0.58928   0.59605   0.59678   0.60352   0.61008
 Alpha virt. eigenvalues --    0.61287   0.61389   0.61780   0.61827   0.62279
 Alpha virt. eigenvalues --    0.62657   0.63077   0.63825   0.64473   0.64753
 Alpha virt. eigenvalues --    0.64829   0.65264   0.65711   0.65963   0.66226
 Alpha virt. eigenvalues --    0.66489   0.66615   0.67067   0.67242   0.67363
 Alpha virt. eigenvalues --    0.67484   0.68057   0.68116   0.68700   0.69137
 Alpha virt. eigenvalues --    0.69491   0.70190   0.70707   0.70998   0.71135
 Alpha virt. eigenvalues --    0.71230   0.71735   0.71974   0.72270   0.72660
 Alpha virt. eigenvalues --    0.72772   0.73271   0.74035   0.74506   0.75004
 Alpha virt. eigenvalues --    0.75222   0.75472   0.76147   0.76975   0.78102
 Alpha virt. eigenvalues --    0.78265   0.79035   0.79361   0.79981   0.80910
 Alpha virt. eigenvalues --    0.80959   0.81164   0.82983   0.83411   0.83765
 Alpha virt. eigenvalues --    0.84448   0.84700   0.85514   0.87402   0.87582
 Alpha virt. eigenvalues --    0.88556   0.88947   0.89772   0.90022   0.90131
 Alpha virt. eigenvalues --    0.90284   0.90609   0.91526   0.91719   0.92203
 Alpha virt. eigenvalues --    0.92379   0.92982   0.93351   0.93987   0.94175
 Alpha virt. eigenvalues --    0.94250   0.94544   0.94731   0.95019   0.95493
 Alpha virt. eigenvalues --    0.95649   0.95985   0.96749   0.97008   0.97283
 Alpha virt. eigenvalues --    0.97461   0.97714   0.98022   0.98590   0.98988
 Alpha virt. eigenvalues --    0.99355   0.99866   1.00615   1.01112   1.01573
 Alpha virt. eigenvalues --    1.01724   1.01898   1.02186   1.03253   1.04353
 Alpha virt. eigenvalues --    1.04541   1.05052   1.05130   1.05990   1.06490
 Alpha virt. eigenvalues --    1.06592   1.07405   1.07737   1.07813   1.08210
 Alpha virt. eigenvalues --    1.08865   1.09192   1.09827   1.10712   1.10845
 Alpha virt. eigenvalues --    1.11113   1.11628   1.13434   1.13676   1.14021
 Alpha virt. eigenvalues --    1.14854   1.15698   1.16413   1.17398   1.18403
 Alpha virt. eigenvalues --    1.18793   1.20336   1.21204   1.22061   1.23183
 Alpha virt. eigenvalues --    1.23322   1.24104   1.24799   1.25566   1.26681
 Alpha virt. eigenvalues --    1.27228   1.28221   1.28870   1.30029   1.30927
 Alpha virt. eigenvalues --    1.31458   1.31572   1.32584   1.32999   1.34097
 Alpha virt. eigenvalues --    1.34186   1.35798   1.36526   1.37595   1.38603
 Alpha virt. eigenvalues --    1.40238   1.41252   1.42253   1.42708   1.44012
 Alpha virt. eigenvalues --    1.45241   1.46639   1.46807   1.47950   1.48410
 Alpha virt. eigenvalues --    1.48610   1.49390   1.49582   1.50351   1.50654
 Alpha virt. eigenvalues --    1.51873   1.52608   1.53073   1.53995   1.54742
 Alpha virt. eigenvalues --    1.55369   1.55618   1.55687   1.56325   1.56973
 Alpha virt. eigenvalues --    1.57205   1.57697   1.58511   1.58655   1.58924
 Alpha virt. eigenvalues --    1.59463   1.60293   1.60667   1.61668   1.62048
 Alpha virt. eigenvalues --    1.62626   1.63970   1.64981   1.66674   1.67637
 Alpha virt. eigenvalues --    1.68004   1.70127   1.72603   1.74581   1.77648
 Alpha virt. eigenvalues --    1.79806   1.80386   1.81920   1.82116   1.83327
 Alpha virt. eigenvalues --    1.84521   1.85981   1.87453   1.87795   1.88103
 Alpha virt. eigenvalues --    1.88642   1.89229   1.89579   1.90228   1.90939
 Alpha virt. eigenvalues --    1.91425   1.92275   1.92942   1.93269   1.94170
 Alpha virt. eigenvalues --    1.94749   1.95083   1.96052   1.96217   1.96868
 Alpha virt. eigenvalues --    1.98597   1.98921   1.99730   1.99849   2.00143
 Alpha virt. eigenvalues --    2.01340   2.01856   2.02900   2.03132   2.04149
 Alpha virt. eigenvalues --    2.05933   2.06227   2.06712   2.07176   2.07762
 Alpha virt. eigenvalues --    2.08588   2.09131   2.10062   2.10425   2.11080
 Alpha virt. eigenvalues --    2.11628   2.12349   2.13272   2.14331   2.15013
 Alpha virt. eigenvalues --    2.15562   2.17024   2.17128   2.18861   2.20264
 Alpha virt. eigenvalues --    2.20402   2.20896   2.21497   2.22149   2.22405
 Alpha virt. eigenvalues --    2.22789   2.23818   2.23947   2.24257   2.24870
 Alpha virt. eigenvalues --    2.25135   2.25570   2.27396   2.27632   2.28530
 Alpha virt. eigenvalues --    2.28954   2.29171   2.31725   2.32224   2.33466
 Alpha virt. eigenvalues --    2.34755   2.35034   2.35454   2.36769   2.36898
 Alpha virt. eigenvalues --    2.37408   2.38328   2.38895   2.39107   2.39239
 Alpha virt. eigenvalues --    2.40620   2.41232   2.42601   2.42979   2.43489
 Alpha virt. eigenvalues --    2.44193   2.44451   2.44843   2.45388   2.45882
 Alpha virt. eigenvalues --    2.46572   2.47087   2.47573   2.48360   2.49365
 Alpha virt. eigenvalues --    2.49686   2.50668   2.52495   2.53939   2.54445
 Alpha virt. eigenvalues --    2.59238   2.60420   2.60695   2.61634   2.61973
 Alpha virt. eigenvalues --    2.62950   2.64081   2.65466   2.66077   2.67620
 Alpha virt. eigenvalues --    2.69823   2.70755   2.71299   2.71456   2.72697
 Alpha virt. eigenvalues --    2.73258   2.73963   2.75447   2.76387   2.76955
 Alpha virt. eigenvalues --    2.77229   2.78357   2.78849   2.79448   2.80166
 Alpha virt. eigenvalues --    2.81957   2.82394   2.83281   2.85233   2.85780
 Alpha virt. eigenvalues --    2.86012   2.87216   2.87937   2.88737   2.89140
 Alpha virt. eigenvalues --    2.89337   2.91801   2.92410   2.93313   2.95182
 Alpha virt. eigenvalues --    2.95917   2.96338   2.97452   2.99953   3.01476
 Alpha virt. eigenvalues --    3.04413   3.06393   3.07902   3.10297   3.11705
 Alpha virt. eigenvalues --    3.18781   3.26570   3.28076   3.37388   3.40932
 Alpha virt. eigenvalues --    3.44636   3.52686   3.55529   3.56617   4.12163
 Alpha virt. eigenvalues --    4.13518   4.16274   4.16413   4.17676   4.18924
 Alpha virt. eigenvalues --    4.19397   4.20303   4.21749   4.23129   4.24474
 Alpha virt. eigenvalues --    4.25147   4.26321   4.27461   4.30136   4.32046
 Alpha virt. eigenvalues --    4.32503   4.33525   4.36533   4.39741   4.40432
 Alpha virt. eigenvalues --    4.44035   4.44564   4.44928   4.47277   4.47845
 Alpha virt. eigenvalues --    4.50879   4.52984   4.57258   4.59871   4.61694
 Alpha virt. eigenvalues --    4.63335   4.67028   4.67803   4.79930   4.83926
 Alpha virt. eigenvalues --    4.89080
          Condensed to atoms (all electrons):
 Mulliken atomic charges:
              1
     1  C   -0.196744
     2  C   -0.158548
     3  C    0.025407
     4  C    0.003983
     5  N   -0.421722
     6  C    0.024790
     7  C    0.289124
     8  C   -0.248280
     9  C    0.042323
    10  N   -0.490973
    11  C    0.667706
    12  N   -0.540948
    13  N   -0.760370
    14  C    0.248552
    15  C    0.163408
    16  C   -0.245047
    17  C   -0.182128
    18  C    0.354035
    19  C   -0.268640
    20  N   -0.767697
    21  C    0.597052
    22  C    0.016774
    23  C   -0.209584
    24  C   -0.219292
    25  C    0.159268
    26  C   -0.222198
    27  C   -0.175611
    28  C   -0.264188
    29  N   -0.380625
    30  C   -0.185018
    31  C   -0.181074
    32  N   -0.385735
    33  C   -0.350947
    34  C   -0.182277
    35  C   -0.186962
    36  O   -0.510296
    37  C   -0.571365
    38  H    0.179773
    39  H    0.179442
    40  H    0.213003
    41  H    0.179163
    42  H    0.175737
    43  H    0.183936
    44  H    0.361382
    45  H    0.167191
    46  H    0.220106
    47  H    0.156540
    48  H    0.355390
    49  H    0.173387
    50  H    0.166157
    51  H    0.168362
    52  H    0.202050
    53  H    0.171137
    54  H    0.172267
    55  H    0.151471
    56  H    0.161784
    57  H    0.152639
    58  H    0.162324
    59  H    0.136501
    60  H    0.167024
    61  H    0.168723
    62  H    0.155034
    63  H    0.169041
    64  H    0.161755
    65  H    0.154256
    66  H    0.178371
    67  H    0.199460
    68  H    0.170441
 Sum of Mulliken atomic charges =   0.00000
 Mulliken charges with hydrogens summed into heavy atoms:
              1
     1  C   -0.016971
     2  C    0.020894
     3  C    0.025407
     4  C    0.216987
     5  N   -0.421722
     6  C    0.203953
     7  C    0.289124
     8  C   -0.072543
     9  C    0.226259
    10  N   -0.490973
    11  C    0.667706
    12  N   -0.540948
    13  N   -0.398987
    14  C    0.248552
    15  C    0.163408
    16  C   -0.077855
    17  C    0.037978
    18  C    0.354035
    19  C   -0.112100
    20  N   -0.412307
    21  C    0.597052
    22  C    0.016774
    23  C   -0.036197
    24  C   -0.053135
    25  C    0.159268
    26  C   -0.053836
    27  C    0.026439
    28  C    0.079217
    29  N   -0.380625
    30  C    0.128236
    31  C    0.133890
    32  N   -0.385735
    33  C    0.121301
    34  C    0.141798
    35  C    0.129050
    36  O   -0.510296
    37  C   -0.023093
 Sum of Mulliken charges with hydrogens summed into heavy atoms =   0.00000
 Electronic spatial extent (au):  <R**2>=          33273.4954
 Charge=              0.0000 electrons
 Dipole moment (field-independent basis, Debye):
    X=              0.3060    Y=              4.3821    Z=             -2.2503  Tot=              4.9356
 Quadrupole moment (field-independent basis, Debye-Ang):
   XX=           -167.8757   YY=           -220.7032   ZZ=           -212.5583
   XY=              9.3726   XZ=             -8.2447   YZ=             -4.9607
 Traceless Quadrupole moment (field-independent basis, Debye-Ang):
   XX=             32.5033   YY=            -20.3241   ZZ=            -12.1792
   XY=              9.3726   XZ=             -8.2447   YZ=             -4.9607
 Octapole moment (field-independent basis, Debye-Ang**2):
  XXX=            256.3536  YYY=             60.9553  ZZZ=             -4.5726  XYY=             -0.6816
  XXY=             69.1859  XXZ=            -79.9433  XZZ=              8.5150  YZZ=              2.4687
  YYZ=            -10.6293  XYZ=            -17.8316
 Hexadecapole moment (field-independent basis, Debye-Ang**3):
 XXXX=         -33899.8603 YYYY=          -4484.6112 ZZZZ=          -2882.1348 XXXY=            487.8239
 XXXZ=          -1644.5436 YYYX=             34.3952 YYYZ=            -67.8454 ZZZX=             23.5884
 ZZZY=             -0.8960 XXYY=          -6687.3534 XXZZ=          -6561.5365 YYZZ=          -1219.7785
 XXYZ=           -168.1324 YYXZ=            -32.4170 ZZXY=            -81.1382
 N-N= 3.616205420501D+03 E-N=-1.090421776147D+04  KE= 1.567144785809D+03
 No NMR shielding tensors so no spin-rotation constants.
 Leave Link  601 at Tue Mar  3 11:45:28 2020, MaxMem= 2684354560 cpu:       2.5
 (Enter /opt/g09gh/gaussian/g09/l9999.exe)
 1\1\GINC-NODE44\FOpt\RwB97XD\6-31G(d)\C29H31N7O1\BDW2292\03-Mar-2020\0
 \\#P opt=(,maxcycle=400) wB97XD/6-31G* MaxDisk=100GB\\MOLECULE0 Rotata
 ble Bond Optimization on node37.bme.utexas.edu\\0,1\C,8.5327092556,0.0
 414056767,-5.9029532398\C,8.2503346065,0.7449698162,-4.7402587496\C,7.
 1808051314,0.3376075697,-3.9420954777\C,6.4502062964,-0.7809641188,-4.
 3644359378\N,6.7103979418,-1.4651083631,-5.4775135774\C,7.7350670079,-
 1.0513973405,-6.2267540402\C,6.8065140617,1.0324750894,-2.6852029273\C
 ,7.2629479495,2.3100537117,-2.3569679353\C,6.8305929415,2.8274300566,-
 1.1411206305\N,6.0246636307,2.1779458406,-0.3100510485\C,5.6332281147,
 0.9610773075,-0.7313955733\N,5.9824394065,0.3650297864,-1.8727055511\N
 ,4.7963392603,0.2900002692,0.1164017182\C,4.0957483718,-0.9049083691,-
 0.1985860182\C,4.7691595316,-2.1232746151,-0.362260658\C,3.986703556,-
 3.2446185713,-0.6383686641\C,2.6007622006,-3.2011931315,-0.7301272234\
 C,1.9479076809,-1.9815083579,-0.5425468491\C,2.7082740119,-0.84026526,
 -0.285541818\N,0.5516029389,-1.8193405226,-0.6269986968\C,-0.418265099
 4,-2.7874072949,-0.71303572\C,-1.8187472212,-2.2500204418,-0.793003961
 1\C,-2.1382544323,-1.0323904258,-1.3988721927\C,-3.4575179032,-0.59668
 80591,-1.4391761618\C,-4.4817375759,-1.35076835,-0.8645986529\C,-4.156
 9991868,-2.5861568162,-0.2987479214\C,-2.8441402605,-3.0358543465,-0.2
 658601495\C,-5.9119463355,-0.8313978817,-0.8324890778\N,-6.308626359,0
 .0026764331,0.2895334522\C,-5.7802510281,1.3604892359,0.3451471545\C,-
 4.4956131394,1.4952061996,1.1807362424\N,-4.6181852697,0.918907776,2.5
 166821463\C,-5.403196018,1.7248799496,3.4350989699\C,-5.0650571316,-0.
 4685902777,2.4185379493\C,-6.3606943516,-0.6266721957,1.6042450658\O,-
 0.1932531779,-3.9860633506,-0.7076564757\C,6.2627379146,-2.2344558659,
 -0.2343460299\H,9.358666144,0.3294233443,-6.5446601395\H,8.8707230221,
 1.588758949,-4.4536833507\H,5.6165218952,-1.1269908786,-3.7596427352\H
 ,7.9291935147,-1.626751217,-7.1294097575\H,7.9002414542,2.8917135594,-
 3.0104670773\H,7.1435971881,3.8195793238,-0.8214142068\H,4.4420133997,
 0.8613751009,0.8697001025\H,4.4819563128,-4.2029182826,-0.7716697196\H
 ,2.0283178394,-4.096244632,-0.9263082106\H,2.2222097178,0.1254433902,-
 0.1618857212\H,0.2216668317,-0.8765259108,-0.484772119\H,-1.3673990103
 ,-0.4360089947,-1.8806626211\H,-3.6956919553,0.3463549858,-1.925999152
 1\H,-4.94551439,-3.2026062417,0.1266773848\H,-2.5927196877,-3.99967260
 02,0.1646153884\H,-6.0998448462,-0.254285661,-1.7462147423\H,-6.596064
 0376,-1.6890230165,-0.8564371734\H,-5.6093494625,1.7162270782,-0.67741
 91227\H,-6.5570009476,2.0078154009,0.7787204198\H,-4.2205572064,2.5527
 784577,1.2767200461\H,-3.6690014732,0.9832470541,0.6740824057\H,-6.465
 9968184,1.8558577683,3.1660303335\H,-4.9539065338,2.7212149491,3.50873
 27366\H,-5.3672159947,1.2681884818,4.4302151368\H,-5.2070758373,-0.865
 417696,3.4309122238\H,-4.2595991035,-1.0443378629,1.9478682088\H,-7.19
 40453419,-0.175135538,2.1626920405\H,-6.6045340948,-1.687749273,1.4789
 784544\H,6.6403627295,-1.5693709887,0.5489590762\H,6.7539625023,-1.944
 4961966,-1.169159681\H,6.5553228685,-3.2597556151,0.0098908325\\Versio
 n=EM64L-G09RevA.02\State=1-A\HF=-1581.7559094\RMSD=7.196e-09\RMSF=4.71
 9e-06\Dipole=0.0539729,1.9407728,-0.0346995\Quadrupole=18.6750572,-10.
 3552035,-8.3198537,8.0430101,-12.7226535,-7.5971955\PG=C01 [X(C29H31N7
 O1)]\\@


 THE GREAT THING ABOUT BEING IMPERFECT IS THE JOY IT BRINGS OTHERS.
   -- SIGN OUTSIDE LAKE AGASSIZ JR. HIGH SCHOOL, FARGO, N.D.
 Job cpu time:  0 days  8 hours 15 minutes 38.0 seconds.
 File lengths (MBytes):  RWF=    244 Int=      0 D2E=      0 Chk=     25 Scr=      1
 Normal termination of Gaussian 09 at Tue Mar  3 11:45:28 2020.
