 Entering Gaussian System, Link 0=g09
 Input=MOLECULE0-opt-29-28-25-24-307.com
 Output=MOLECULE0-opt-29-28-25-24-307.log
 Initial command:
 /opt/g09gh/gaussian/g09/l1.exe /scratch/bdw2292/Gau-MOLECULE0/Gau-68222.inp -scrdir=/scratch/bdw2292/Gau-MOLECULE0/
 Entering Link 1 = /opt/g09gh/gaussian/g09/l1.exe PID=     68223.
  
 Copyright (c) 1988,1990,1992,1993,1995,1998,2003,2009, Gaussian, Inc.
                  All Rights Reserved.
  
 This is part of the Gaussian(R) 09 program.  It is based on
 the Gaussian(R) 03 system (copyright 2003, Gaussian, Inc.),
 the Gaussian(R) 98 system (copyright 1998, Gaussian, Inc.),
 the Gaussian(R) 94 system (copyright 1995, Gaussian, Inc.),
 the Gaussian 92(TM) system (copyright 1992, Gaussian, Inc.),
 the Gaussian 90(TM) system (copyright 1990, Gaussian, Inc.),
 the Gaussian 88(TM) system (copyright 1988, Gaussian, Inc.),
 the Gaussian 86(TM) system (copyright 1986, Carnegie Mellon
 University), and the Gaussian 82(TM) system (copyright 1983,
 Carnegie Mellon University). Gaussian is a federally registered
 trademark of Gaussian, Inc.
  
 This software contains proprietary and confidential information,
 including trade secrets, belonging to Gaussian, Inc.
  
 This software is provided under written license and may be
 used, copied, transmitted, or stored only in accord with that
 written license.
  
 The following legend is applicable only to US Government
 contracts under FAR:
  
                    RESTRICTED RIGHTS LEGEND
  
 Use, reproduction and disclosure by the US Government is
 subject to restrictions as set forth in subparagraphs (a)
 and (c) of the Commercial Computer Software - Restricted
 Rights clause in FAR 52.227-19.
  
 Gaussian, Inc.
 340 Quinnipiac St., Bldg. 40, Wallingford CT 06492
  
  
 ---------------------------------------------------------------
 Warning -- This program may not be used in any manner that
 competes with the business of Gaussian, Inc. or will provide
 assistance to any competitor of Gaussian, Inc.  The licensee
 of this program is prohibited from giving any competitor of
 Gaussian, Inc. access to this program.  By using this program,
 the user acknowledges that Gaussian, Inc. is engaged in the
 business of creating and licensing software in the field of
 computational chemistry and represents and warrants to the
 licensee that it is not a competitor of Gaussian, Inc. and that
 it will not use this program in any manner prohibited above.
 ---------------------------------------------------------------
  

 Cite this work as:
 Gaussian 09, Revision A.02,
 M. J. Frisch, G. W. Trucks, H. B. Schlegel, G. E. Scuseria, 
 M. A. Robb, J. R. Cheeseman, G. Scalmani, V. Barone, B. Mennucci, 
 G. A. Petersson, H. Nakatsuji, M. Caricato, X. Li, H. P. Hratchian, 
 A. F. Izmaylov, J. Bloino, G. Zheng, J. L. Sonnenberg, M. Hada, 
 M. Ehara, K. Toyota, R. Fukuda, J. Hasegawa, M. Ishida, T. Nakajima, 
 Y. Honda, O. Kitao, H. Nakai, T. Vreven, J. A. Montgomery, Jr., 
 J. E. Peralta, F. Ogliaro, M. Bearpark, J. J. Heyd, E. Brothers, 
 K. N. Kudin, V. N. Staroverov, R. Kobayashi, J. Normand, 
 K. Raghavachari, A. Rendell, J. C. Burant, S. S. Iyengar, J. Tomasi, 
 M. Cossi, N. Rega, J. M. Millam, M. Klene, J. E. Knox, J. B. Cross, 
 V. Bakken, C. Adamo, J. Jaramillo, R. Gomperts, R. E. Stratmann, 
 O. Yazyev, A. J. Austin, R. Cammi, C. Pomelli, J. W. Ochterski, 
 R. L. Martin, K. Morokuma, V. G. Zakrzewski, G. A. Voth, 
 P. Salvador, J. J. Dannenberg, S. Dapprich, A. D. Daniels, 
 O. Farkas, J. B. Foresman, J. V. Ortiz, J. Cioslowski, 
 and D. J. Fox, Gaussian, Inc., Wallingford CT, 2009.
 
 ******************************************
 Gaussian 09:  EM64L-G09RevA.02 11-Jun-2009
                10-Mar-2020 
 ******************************************
 %RWF=/scratch/bdw2292/Gau-MOLECULE0/,100GB
 %Nosave
 %Chk=MOLECULE0-opt-29-28-25-24-307.chk
 %Mem=20GB
 %Nproc=6
 Will use up to    6 processors via shared memory.
 --------------------------------------------------
 #P opt=(,maxcycle=400) wB97XD/6-31G* MaxDisk=100GB
 --------------------------------------------------
 1/6=400,14=-1,18=20,19=15,26=3,38=1/1,3;
 2/9=110,12=2,17=6,18=5,40=1/2;
 3/5=1,6=6,7=1,11=2,16=1,25=1,30=1,71=1,74=-58/1,2,3;
 4//1;
 5/5=2,38=5/2;
 6/7=2,8=2,9=2,10=2,28=1/1;
 7//1,2,3,16;
 1/6=400,14=-1,18=20,19=15/3(2);
 2/9=110/2;
 99//99;
 2/9=110/2;
 3/5=1,6=6,7=1,11=2,16=1,25=1,30=1,71=1,74=-58/1,2,3;
 4/5=5,16=3/1;
 5/5=2,38=5/2;
 7//1,2,3,16;
 1/6=400,14=-1,18=20,19=15/3(-5);
 2/9=110/2;
 6/7=2,8=2,9=2,10=2,19=2,28=1/1;
 99/9=1/99;
 Leave Link    1 at Tue Mar 10 14:40:59 2020, MaxMem= 2684354560 cpu:       0.3
 (Enter /opt/g09gh/gaussian/g09/l101.exe)
 -----------------------------------------------------------------
 MOLECULE0 Rotatable Bond Optimization on g2-node38.bme.utexas.edu
 -----------------------------------------------------------------
 Symbolic Z-matrix:
 Charge =  0 Multiplicity = 1
 C                    -0.51344   4.03803   2.13853 
 C                     0.66521   3.69235   2.81332 
 C                     1.26954   2.44119   2.57851 
 C                     0.6199    1.61507   1.62737 
 N                    -0.50212   1.92772   0.96645 
 C                    -1.05522   3.1213    1.23079 
 C                     2.54425   1.99079   3.24996 
 C                     3.33481   2.76816   4.11126 
 C                     4.50797   2.1596    4.57175 
 N                     4.89095   0.92547   4.25601 
 C                     4.05787   0.24166   3.4438 
 N                     2.918     0.73218   2.94891 
 N                     4.45369  -1.05104   3.13089 
 C                     3.90852  -2.06743   2.26376 
 C                     4.72738  -3.16676   1.86445 
 C                     4.15755  -4.10517   0.98658 
 C                     2.84578  -4.02792   0.50305 
 C                     2.04191  -2.97071   0.94083 
 C                     2.5877   -2.00738   1.8037 
 N                     0.6802   -2.73806   0.56934 
 C                    -0.12403  -3.33888  -0.37007 
 C                    -1.44229  -2.65522  -0.67933 
 C                    -1.60036  -1.25963  -0.68838 
 C                    -2.85606  -0.69215  -0.9106 
 C                    -3.99086  -1.48169  -1.17062 
 C                    -3.80219  -2.87827  -1.21685 
 C                    -2.5547   -3.45899  -0.97492 
 C                    -5.38825  -0.88017  -1.34975 
 N                    -5.99881   0.01674  -0.34904 
 C                    -5.5622    1.42437  -0.19846 
 C                    -4.54851   1.71178   0.94182 
 N                    -4.95397   1.17901   2.26283 
 C                    -5.90186   1.98117   3.04493 
 C                    -5.27195  -0.26158   2.11293 
 C                    -6.29267  -0.5556    0.98562 
 O                     0.1776   -4.38426  -0.92401 
 C                     6.17042  -3.33698   2.30727 
 H                    -0.99947   4.99394   2.30915 
 H                     1.08222   4.40622   3.51949 
 H                     1.05141   0.65594   1.36258 
 H                    -1.96494   3.35643   0.68184 
 H                     3.10317   3.78769   4.39409 
 H                     5.1853    2.70275   5.23025 
 H                     5.34998  -1.24128   3.55352 
 H                     4.75978  -4.94541   0.64307 
 H                     2.44505  -4.77102  -0.1757 
 H                     1.97626  -1.18479   2.13782 
 H                     0.2564   -1.9464    1.03272 
 H                    -0.74525  -0.6166   -0.49146 
 H                    -2.92519   0.39243  -0.92251 
 H                    -4.64721  -3.53816  -1.41313 
 H                    -2.42712  -4.53845  -0.98982 
 H                    -5.38066  -0.32656  -2.3005 
 H                    -6.10069  -1.71186  -1.45401 
 H                    -5.26668   1.82809  -1.12611 
 H                    -6.88668   2.24092   0.24574 
 H                    -4.45252   3.22564   1.04807 
 H                    -3.65286   1.37669   0.75257 
 H                    -6.87683   2.03468   2.54761 
 H                    -5.51548   2.99777   3.1796 
 H                    -6.0377    1.53941   4.03889 
 H                    -5.5497   -0.65571   3.0173 
 H                    -3.94134  -0.9731    1.6801 
 H                    -7.63718   0.0192    1.44945 
 H                    -6.43188  -2.04359   0.8821 
 H                     6.24203  -3.47283   3.39576 
 H                     6.77821  -2.46018   2.04274 
 H                     6.66022  -4.20693   1.84857 
 
 NAtoms=     68 NQM=     68 NQMF=      0 NMic=      0 NMicF=      0 NTot=     68.
                    Isotopes and Nuclear Properties:
 (Nuclear quadrupole moments (NQMom) in fm**2, nuclear magnetic moments (NMagM)
  in nuclear magnetons)

  Atom         1           2           3           4           5           6           7           8           9          10
 IAtWgt=          12          12          12          12          14          12          12          12          12          14
 AtmWgt=  12.0000000  12.0000000  12.0000000  12.0000000  14.0030740  12.0000000  12.0000000  12.0000000  12.0000000  14.0030740
 NucSpn=           0           0           0           0           2           0           0           0           0           2
 AtZEff=   0.0000000   0.0000000   0.0000000   0.0000000   0.0000000   0.0000000   0.0000000   0.0000000   0.0000000   0.0000000
 NQMom=    0.0000000   0.0000000   0.0000000   0.0000000   2.0440000   0.0000000   0.0000000   0.0000000   0.0000000   2.0440000
 NMagM=    0.0000000   0.0000000   0.0000000   0.0000000   0.4037610   0.0000000   0.0000000   0.0000000   0.0000000   0.4037610

  Atom        11          12          13          14          15          16          17          18          19          20
 IAtWgt=          12          14          14          12          12          12          12          12          12          14
 AtmWgt=  12.0000000  14.0030740  14.0030740  12.0000000  12.0000000  12.0000000  12.0000000  12.0000000  12.0000000  14.0030740
 NucSpn=           0           2           2           0           0           0           0           0           0           2
 AtZEff=   0.0000000   0.0000000   0.0000000   0.0000000   0.0000000   0.0000000   0.0000000   0.0000000   0.0000000   0.0000000
 NQMom=    0.0000000   2.0440000   2.0440000   0.0000000   0.0000000   0.0000000   0.0000000   0.0000000   0.0000000   2.0440000
 NMagM=    0.0000000   0.4037610   0.4037610   0.0000000   0.0000000   0.0000000   0.0000000   0.0000000   0.0000000   0.4037610

  Atom        21          22          23          24          25          26          27          28          29          30
 IAtWgt=          12          12          12          12          12          12          12          12          14          12
 AtmWgt=  12.0000000  12.0000000  12.0000000  12.0000000  12.0000000  12.0000000  12.0000000  12.0000000  14.0030740  12.0000000
 NucSpn=           0           0           0           0           0           0           0           0           2           0
 AtZEff=   0.0000000   0.0000000   0.0000000   0.0000000   0.0000000   0.0000000   0.0000000   0.0000000   0.0000000   0.0000000
 NQMom=    0.0000000   0.0000000   0.0000000   0.0000000   0.0000000   0.0000000   0.0000000   0.0000000   2.0440000   0.0000000
 NMagM=    0.0000000   0.0000000   0.0000000   0.0000000   0.0000000   0.0000000   0.0000000   0.0000000   0.4037610   0.0000000

  Atom        31          32          33          34          35          36          37          38          39          40
 IAtWgt=          12          14          12          12          12          16          12           1           1           1
 AtmWgt=  12.0000000  14.0030740  12.0000000  12.0000000  12.0000000  15.9949146  12.0000000   1.0078250   1.0078250   1.0078250
 NucSpn=           0           2           0           0           0           0           0           1           1           1
 AtZEff=   0.0000000   0.0000000   0.0000000   0.0000000   0.0000000   0.0000000   0.0000000   0.0000000   0.0000000   0.0000000
 NQMom=    0.0000000   2.0440000   0.0000000   0.0000000   0.0000000   0.0000000   0.0000000   0.0000000   0.0000000   0.0000000
 NMagM=    0.0000000   0.4037610   0.0000000   0.0000000   0.0000000   0.0000000   0.0000000   2.7928460   2.7928460   2.7928460

  Atom        41          42          43          44          45          46          47          48          49          50
 IAtWgt=           1           1           1           1           1           1           1           1           1           1
 AtmWgt=   1.0078250   1.0078250   1.0078250   1.0078250   1.0078250   1.0078250   1.0078250   1.0078250   1.0078250   1.0078250
 NucSpn=           1           1           1           1           1           1           1           1           1           1
 AtZEff=   0.0000000   0.0000000   0.0000000   0.0000000   0.0000000   0.0000000   0.0000000   0.0000000   0.0000000   0.0000000
 NQMom=    0.0000000   0.0000000   0.0000000   0.0000000   0.0000000   0.0000000   0.0000000   0.0000000   0.0000000   0.0000000
 NMagM=    2.7928460   2.7928460   2.7928460   2.7928460   2.7928460   2.7928460   2.7928460   2.7928460   2.7928460   2.7928460

  Atom        51          52          53          54          55          56          57          58          59          60
 IAtWgt=           1           1           1           1           1           1           1           1           1           1
 AtmWgt=   1.0078250   1.0078250   1.0078250   1.0078250   1.0078250   1.0078250   1.0078250   1.0078250   1.0078250   1.0078250
 NucSpn=           1           1           1           1           1           1           1           1           1           1
 AtZEff=   0.0000000   0.0000000   0.0000000   0.0000000   0.0000000   0.0000000   0.0000000   0.0000000   0.0000000   0.0000000
 NQMom=    0.0000000   0.0000000   0.0000000   0.0000000   0.0000000   0.0000000   0.0000000   0.0000000   0.0000000   0.0000000
 NMagM=    2.7928460   2.7928460   2.7928460   2.7928460   2.7928460   2.7928460   2.7928460   2.7928460   2.7928460   2.7928460

  Atom        61          62          63          64          65          66          67          68
 IAtWgt=           1           1           1           1           1           1           1           1
 AtmWgt=   1.0078250   1.0078250   1.0078250   1.0078250   1.0078250   1.0078250   1.0078250   1.0078250
 NucSpn=           1           1           1           1           1           1           1           1
 AtZEff=   0.0000000   0.0000000   0.0000000   0.0000000   0.0000000   0.0000000   0.0000000   0.0000000
 NQMom=    0.0000000   0.0000000   0.0000000   0.0000000   0.0000000   0.0000000   0.0000000   0.0000000
 NMagM=    2.7928460   2.7928460   2.7928460   2.7928460   2.7928460   2.7928460   2.7928460   2.7928460
 Leave Link  101 at Tue Mar 10 14:40:59 2020, MaxMem= 2684354560 cpu:       0.6
 (Enter /opt/g09gh/gaussian/g09/l103.exe)

 GradGradGradGradGradGradGradGradGradGradGradGradGradGradGradGradGradGrad
 Berny optimization.
 Initialization pass.
                           ----------------------------
                           !    Initial Parameters    !
                           ! (Angstroms and Degrees)  !
 --------------------------                            --------------------------
 ! Name  Definition              Value          Derivative Info.                !
 --------------------------------------------------------------------------------
 ! R1    R(1,2)                  1.4014         estimate D2E/DX2                !
 ! R2    R(1,6)                  1.3993         estimate D2E/DX2                !
 ! R3    R(1,38)                 1.0859         estimate D2E/DX2                !
 ! R4    R(2,3)                  1.4092         estimate D2E/DX2                !
 ! R5    R(2,39)                 1.0873         estimate D2E/DX2                !
 ! R6    R(3,4)                  1.4175         estimate D2E/DX2                !
 ! R7    R(3,7)                  1.5095         estimate D2E/DX2                !
 ! R8    R(4,5)                  1.3392         estimate D2E/DX2                !
 ! R9    R(4,40)                 1.0845         estimate D2E/DX2                !
 ! R10   R(5,6)                  1.3418         estimate D2E/DX2                !
 ! R11   R(6,41)                 1.0882         estimate D2E/DX2                !
 ! R12   R(7,8)                  1.404          estimate D2E/DX2                !
 ! R13   R(7,12)                 1.347          estimate D2E/DX2                !
 ! R14   R(8,9)                  1.3995         estimate D2E/DX2                !
 ! R15   R(8,42)                 1.0831         estimate D2E/DX2                !
 ! R16   R(9,10)                 1.3302         estimate D2E/DX2                !
 ! R17   R(9,43)                 1.0897         estimate D2E/DX2                !
 ! R18   R(10,11)                1.3495         estimate D2E/DX2                !
 ! R19   R(11,12)                1.336          estimate D2E/DX2                !
 ! R20   R(11,13)                1.3877         estimate D2E/DX2                !
 ! R21   R(13,14)                1.443          estimate D2E/DX2                !
 ! R22   R(13,44)                1.009          estimate D2E/DX2                !
 ! R23   R(14,15)                1.4278         estimate D2E/DX2                !
 ! R24   R(14,19)                1.3999         estimate D2E/DX2                !
 ! R25   R(15,16)                1.4057         estimate D2E/DX2                !
 ! R26   R(15,37)                1.519          estimate D2E/DX2                !
 ! R27   R(16,17)                1.4002         estimate D2E/DX2                !
 ! R28   R(16,45)                1.0894         estimate D2E/DX2                !
 ! R29   R(17,18)                1.3984         estimate D2E/DX2                !
 ! R30   R(17,46)                1.0833         estimate D2E/DX2                !
 ! R31   R(18,19)                1.4037         estimate D2E/DX2                !
 ! R32   R(18,20)                1.4305         estimate D2E/DX2                !
 ! R33   R(19,47)                1.078          estimate D2E/DX2                !
 ! R34   R(20,21)                1.3749         estimate D2E/DX2                !
 ! R35   R(20,48)                1.0105         estimate D2E/DX2                !
 ! R36   R(21,22)                1.5169         estimate D2E/DX2                !
 ! R37   R(21,36)                1.2209         estimate D2E/DX2                !
 ! R38   R(22,23)                1.4045         estimate D2E/DX2                !
 ! R39   R(22,27)                1.4039         estimate D2E/DX2                !
 ! R40   R(23,24)                1.3958         estimate D2E/DX2                !
 ! R41   R(23,49)                1.0879         estimate D2E/DX2                !
 ! R42   R(24,25)                1.4067         estimate D2E/DX2                !
 ! R43   R(24,50)                1.0868         estimate D2E/DX2                !
 ! R44   R(25,26)                1.41           estimate D2E/DX2                !
 ! R45   R(25,28)                1.5319         estimate D2E/DX2                !
 ! R46   R(26,27)                1.3971         estimate D2E/DX2                !
 ! R47   R(26,51)                1.09           estimate D2E/DX2                !
 ! R48   R(27,52)                1.0871         estimate D2E/DX2                !
 ! R49   R(28,29)                1.476          estimate D2E/DX2                !
 ! R50   R(28,53)                1.1002         estimate D2E/DX2                !
 ! R51   R(28,54)                1.1001         estimate D2E/DX2                !
 ! R52   R(29,30)                1.4815         estimate D2E/DX2                !
 ! R53   R(29,35)                1.4816         estimate D2E/DX2                !
 ! R54   R(30,31)                1.5526         estimate D2E/DX2                !
 ! R55   R(30,55)                1.054          estimate D2E/DX2                !
 ! R56   R(30,56)                1.6181         estimate D2E/DX2                !
 ! R57   R(31,32)                1.481          estimate D2E/DX2                !
 ! R58   R(31,57)                1.5206         estimate D2E/DX2                !
 ! R59   R(31,58)                0.9748         estimate D2E/DX2                !
 ! R60   R(32,33)                1.4675         estimate D2E/DX2                !
 ! R61   R(32,34)                1.4829         estimate D2E/DX2                !
 ! R62   R(33,59)                1.0958         estimate D2E/DX2                !
 ! R63   R(33,60)                1.0959         estimate D2E/DX2                !
 ! R64   R(33,61)                1.0962         estimate D2E/DX2                !
 ! R65   R(34,35)                1.5489         estimate D2E/DX2                !
 ! R66   R(34,62)                1.0249         estimate D2E/DX2                !
 ! R67   R(34,63)                1.5697         estimate D2E/DX2                !
 ! R68   R(35,64)                1.534          estimate D2E/DX2                !
 ! R69   R(35,65)                1.4981         estimate D2E/DX2                !
 ! R70   R(37,66)                1.0993         estimate D2E/DX2                !
 ! R71   R(37,67)                1.0992         estimate D2E/DX2                !
 ! R72   R(37,68)                1.0987         estimate D2E/DX2                !
 ! A1    A(2,1,6)              118.4508         estimate D2E/DX2                !
 ! A2    A(2,1,38)             121.1933         estimate D2E/DX2                !
 ! A3    A(6,1,38)             120.3557         estimate D2E/DX2                !
 ! A4    A(1,2,3)              119.9633         estimate D2E/DX2                !
 ! A5    A(1,2,39)             118.2508         estimate D2E/DX2                !
 ! A6    A(3,2,39)             121.7823         estimate D2E/DX2                !
 ! A7    A(2,3,4)              115.6415         estimate D2E/DX2                !
 ! A8    A(2,3,7)              123.5697         estimate D2E/DX2                !
 ! A9    A(4,3,7)              120.7706         estimate D2E/DX2                !
 ! A10   A(3,4,5)              125.3851         estimate D2E/DX2                !
 ! A11   A(3,4,40)             119.7956         estimate D2E/DX2                !
 ! A12   A(5,4,40)             114.7914         estimate D2E/DX2                !
 ! A13   A(4,5,6)              117.1169         estimate D2E/DX2                !
 ! A14   A(1,6,5)              123.4341         estimate D2E/DX2                !
 ! A15   A(1,6,41)             120.6227         estimate D2E/DX2                !
 ! A16   A(5,6,41)             115.9389         estimate D2E/DX2                !
 ! A17   A(3,7,8)              125.6742         estimate D2E/DX2                !
 ! A18   A(3,7,12)             114.437          estimate D2E/DX2                !
 ! A19   A(8,7,12)             119.8832         estimate D2E/DX2                !
 ! A20   A(7,8,9)              115.6642         estimate D2E/DX2                !
 ! A21   A(7,8,42)             124.1233         estimate D2E/DX2                !
 ! A22   A(9,8,42)             120.1764         estimate D2E/DX2                !
 ! A23   A(8,9,10)             124.5182         estimate D2E/DX2                !
 ! A24   A(8,9,43)             120.2081         estimate D2E/DX2                !
 ! A25   A(10,9,43)            115.2722         estimate D2E/DX2                !
 ! A26   A(9,10,11)            115.7995         estimate D2E/DX2                !
 ! A27   A(10,11,12)           124.3045         estimate D2E/DX2                !
 ! A28   A(10,11,13)           115.572          estimate D2E/DX2                !
 ! A29   A(12,11,13)           120.1235         estimate D2E/DX2                !
 ! A30   A(7,12,11)            119.8024         estimate D2E/DX2                !
 ! A31   A(11,13,14)           133.1492         estimate D2E/DX2                !
 ! A32   A(11,13,44)           109.5455         estimate D2E/DX2                !
 ! A33   A(14,13,44)           117.0323         estimate D2E/DX2                !
 ! A34   A(13,14,15)           119.5855         estimate D2E/DX2                !
 ! A35   A(13,14,19)           121.5826         estimate D2E/DX2                !
 ! A36   A(15,14,19)           118.8315         estimate D2E/DX2                !
 ! A37   A(14,15,16)           117.1407         estimate D2E/DX2                !
 ! A38   A(14,15,37)           123.339          estimate D2E/DX2                !
 ! A39   A(16,15,37)           119.4948         estimate D2E/DX2                !
 ! A40   A(15,16,17)           123.9595         estimate D2E/DX2                !
 ! A41   A(15,16,45)           119.1924         estimate D2E/DX2                !
 ! A42   A(17,16,45)           116.8456         estimate D2E/DX2                !
 ! A43   A(16,17,18)           118.1743         estimate D2E/DX2                !
 ! A44   A(16,17,46)           121.6748         estimate D2E/DX2                !
 ! A45   A(18,17,46)           120.139          estimate D2E/DX2                !
 ! A46   A(17,18,19)           119.1923         estimate D2E/DX2                !
 ! A47   A(17,18,20)           126.0758         estimate D2E/DX2                !
 ! A48   A(19,18,20)           114.7172         estimate D2E/DX2                !
 ! A49   A(14,19,18)           122.644          estimate D2E/DX2                !
 ! A50   A(14,19,47)           117.7756         estimate D2E/DX2                !
 ! A51   A(18,19,47)           119.5798         estimate D2E/DX2                !
 ! A52   A(18,20,21)           131.543          estimate D2E/DX2                !
 ! A53   A(18,20,48)           114.052          estimate D2E/DX2                !
 ! A54   A(21,20,48)           114.228          estimate D2E/DX2                !
 ! A55   A(20,21,22)           116.7892         estimate D2E/DX2                !
 ! A56   A(20,21,36)           122.6608         estimate D2E/DX2                !
 ! A57   A(22,21,36)           120.5382         estimate D2E/DX2                !
 ! A58   A(21,22,23)           123.1586         estimate D2E/DX2                !
 ! A59   A(21,22,27)           118.2626         estimate D2E/DX2                !
 ! A60   A(23,22,27)           118.5784         estimate D2E/DX2                !
 ! A61   A(22,23,24)           120.4138         estimate D2E/DX2                !
 ! A62   A(22,23,49)           119.8476         estimate D2E/DX2                !
 ! A63   A(24,23,49)           119.7131         estimate D2E/DX2                !
 ! A64   A(23,24,25)           121.8026         estimate D2E/DX2                !
 ! A65   A(23,24,50)           117.6896         estimate D2E/DX2                !
 ! A66   A(25,24,50)           120.4491         estimate D2E/DX2                !
 ! A67   A(24,25,26)           117.0033         estimate D2E/DX2                !
 ! A68   A(24,25,28)           122.4875         estimate D2E/DX2                !
 ! A69   A(26,25,28)           120.4747         estimate D2E/DX2                !
 ! A70   A(25,26,27)           121.701          estimate D2E/DX2                !
 ! A71   A(25,26,51)           120.1201         estimate D2E/DX2                !
 ! A72   A(27,26,51)           118.1489         estimate D2E/DX2                !
 ! A73   A(22,27,26)           120.3971         estimate D2E/DX2                !
 ! A74   A(22,27,52)           118.5825         estimate D2E/DX2                !
 ! A75   A(26,27,52)           121.0076         estimate D2E/DX2                !
 ! A76   A(25,28,29)           122.4572         estimate D2E/DX2                !
 ! A77   A(25,28,53)           106.9983         estimate D2E/DX2                !
 ! A78   A(25,28,54)           107.7573         estimate D2E/DX2                !
 ! A79   A(29,28,53)           106.4371         estimate D2E/DX2                !
 ! A80   A(29,28,54)           104.8195         estimate D2E/DX2                !
 ! A81   A(53,28,54)           107.6372         estimate D2E/DX2                !
 ! A82   A(28,29,30)           121.6259         estimate D2E/DX2                !
 ! A83   A(28,29,35)           117.2599         estimate D2E/DX2                !
 ! A84   A(30,29,35)           109.5078         estimate D2E/DX2                !
 ! A85   A(29,30,31)           116.2939         estimate D2E/DX2                !
 ! A86   A(29,30,55)           110.9242         estimate D2E/DX2                !
 ! A87   A(29,30,56)           105.4348         estimate D2E/DX2                !
 ! A88   A(31,30,55)           113.1071         estimate D2E/DX2                !
 ! A89   A(31,30,56)           103.8508         estimate D2E/DX2                !
 ! A90   A(55,30,56)           106.1305         estimate D2E/DX2                !
 ! A91   A(30,31,32)           114.1905         estimate D2E/DX2                !
 ! A92   A(30,31,57)           106.0713         estimate D2E/DX2                !
 ! A93   A(30,31,58)           113.1827         estimate D2E/DX2                !
 ! A94   A(32,31,57)           108.2462         estimate D2E/DX2                !
 ! A95   A(32,31,58)           107.5211         estimate D2E/DX2                !
 ! A96   A(57,31,58)           107.3241         estimate D2E/DX2                !
 ! A97   A(31,32,33)           117.1017         estimate D2E/DX2                !
 ! A98   A(31,32,34)           108.5438         estimate D2E/DX2                !
 ! A99   A(33,32,34)           116.5122         estimate D2E/DX2                !
 ! A100  A(32,33,59)           111.0708         estimate D2E/DX2                !
 ! A101  A(32,33,60)           110.1719         estimate D2E/DX2                !
 ! A102  A(32,33,61)           110.0603         estimate D2E/DX2                !
 ! A103  A(59,33,60)           108.9154         estimate D2E/DX2                !
 ! A104  A(59,33,61)           108.7203         estimate D2E/DX2                !
 ! A105  A(60,33,61)           107.8252         estimate D2E/DX2                !
 ! A106  A(32,34,35)           113.5338         estimate D2E/DX2                !
 ! A107  A(32,34,62)           110.0301         estimate D2E/DX2                !
 ! A108  A(32,34,63)           106.6453         estimate D2E/DX2                !
 ! A109  A(35,34,62)           112.9946         estimate D2E/DX2                !
 ! A110  A(35,34,63)           105.7758         estimate D2E/DX2                !
 ! A111  A(62,34,63)           107.3813         estimate D2E/DX2                !
 ! A112  A(29,35,34)           116.8453         estimate D2E/DX2                !
 ! A113  A(29,35,64)           107.5451         estimate D2E/DX2                !
 ! A114  A(29,35,65)           109.8695         estimate D2E/DX2                !
 ! A115  A(34,35,64)           106.6418         estimate D2E/DX2                !
 ! A116  A(34,35,65)           107.4619         estimate D2E/DX2                !
 ! A117  A(64,35,65)           108.1572         estimate D2E/DX2                !
 ! A118  A(15,37,66)           111.3698         estimate D2E/DX2                !
 ! A119  A(15,37,67)           111.4537         estimate D2E/DX2                !
 ! A120  A(15,37,68)           112.9869         estimate D2E/DX2                !
 ! A121  A(66,37,67)           107.5104         estimate D2E/DX2                !
 ! A122  A(66,37,68)           106.6486         estimate D2E/DX2                !
 ! A123  A(67,37,68)           106.5372         estimate D2E/DX2                !
 ! D1    D(6,1,2,3)             -0.5451         estimate D2E/DX2                !
 ! D2    D(6,1,2,39)          -179.8728         estimate D2E/DX2                !
 ! D3    D(38,1,2,3)           179.5901         estimate D2E/DX2                !
 ! D4    D(38,1,2,39)            0.2625         estimate D2E/DX2                !
 ! D5    D(2,1,6,5)             -0.3024         estimate D2E/DX2                !
 ! D6    D(2,1,6,41)          -179.526          estimate D2E/DX2                !
 ! D7    D(38,1,6,5)           179.5635         estimate D2E/DX2                !
 ! D8    D(38,1,6,41)            0.3399         estimate D2E/DX2                !
 ! D9    D(1,2,3,4)              0.9743         estimate D2E/DX2                !
 ! D10   D(1,2,3,7)            179.4293         estimate D2E/DX2                !
 ! D11   D(39,2,3,4)          -179.7225         estimate D2E/DX2                !
 ! D12   D(39,2,3,7)            -1.2674         estimate D2E/DX2                !
 ! D13   D(2,3,4,5)             -0.6704         estimate D2E/DX2                !
 ! D14   D(2,3,4,40)           177.308          estimate D2E/DX2                !
 ! D15   D(7,3,4,5)           -179.1722         estimate D2E/DX2                !
 ! D16   D(7,3,4,40)            -1.1938         estimate D2E/DX2                !
 ! D17   D(2,3,7,8)             -4.4457         estimate D2E/DX2                !
 ! D18   D(2,3,7,12)           176.4191         estimate D2E/DX2                !
 ! D19   D(4,3,7,8)            173.9333         estimate D2E/DX2                !
 ! D20   D(4,3,7,12)            -5.2019         estimate D2E/DX2                !
 ! D21   D(3,4,5,6)             -0.1203         estimate D2E/DX2                !
 ! D22   D(40,4,5,6)          -178.1879         estimate D2E/DX2                !
 ! D23   D(4,5,6,1)              0.6288         estimate D2E/DX2                !
 ! D24   D(4,5,6,41)           179.8858         estimate D2E/DX2                !
 ! D25   D(3,7,8,9)           -177.3057         estimate D2E/DX2                !
 ! D26   D(3,7,8,42)             0.5043         estimate D2E/DX2                !
 ! D27   D(12,7,8,9)             1.7862         estimate D2E/DX2                !
 ! D28   D(12,7,8,42)          179.5962         estimate D2E/DX2                !
 ! D29   D(3,7,12,11)          177.4397         estimate D2E/DX2                !
 ! D30   D(8,7,12,11)           -1.75           estimate D2E/DX2                !
 ! D31   D(7,8,9,10)            -0.5918         estimate D2E/DX2                !
 ! D32   D(7,8,9,43)           178.9271         estimate D2E/DX2                !
 ! D33   D(42,8,9,10)         -178.4947         estimate D2E/DX2                !
 ! D34   D(42,8,9,43)            1.0243         estimate D2E/DX2                !
 ! D35   D(8,9,10,11)           -0.638          estimate D2E/DX2                !
 ! D36   D(43,9,10,11)         179.8218         estimate D2E/DX2                !
 ! D37   D(9,10,11,12)           0.7561         estimate D2E/DX2                !
 ! D38   D(9,10,11,13)        -179.2303         estimate D2E/DX2                !
 ! D39   D(10,11,12,7)           0.4371         estimate D2E/DX2                !
 ! D40   D(13,11,12,7)        -179.577          estimate D2E/DX2                !
 ! D41   D(10,11,13,14)       -176.0961         estimate D2E/DX2                !
 ! D42   D(10,11,13,44)         -2.4619         estimate D2E/DX2                !
 ! D43   D(12,11,13,14)          3.9169         estimate D2E/DX2                !
 ! D44   D(12,11,13,44)        177.5511         estimate D2E/DX2                !
 ! D45   D(11,13,14,15)        162.8563         estimate D2E/DX2                !
 ! D46   D(11,13,14,19)        -17.3769         estimate D2E/DX2                !
 ! D47   D(44,13,14,15)        -10.4074         estimate D2E/DX2                !
 ! D48   D(44,13,14,19)        169.3595         estimate D2E/DX2                !
 ! D49   D(13,14,15,16)       -178.1024         estimate D2E/DX2                !
 ! D50   D(13,14,15,37)          0.0484         estimate D2E/DX2                !
 ! D51   D(19,14,15,16)          2.1243         estimate D2E/DX2                !
 ! D52   D(19,14,15,37)       -179.7249         estimate D2E/DX2                !
 ! D53   D(13,14,19,18)        178.8373         estimate D2E/DX2                !
 ! D54   D(13,14,19,47)         -1.4456         estimate D2E/DX2                !
 ! D55   D(15,14,19,18)         -1.3942         estimate D2E/DX2                !
 ! D56   D(15,14,19,47)        178.3229         estimate D2E/DX2                !
 ! D57   D(14,15,16,17)         -0.7409         estimate D2E/DX2                !
 ! D58   D(14,15,16,45)        178.6677         estimate D2E/DX2                !
 ! D59   D(37,15,16,17)       -178.9659         estimate D2E/DX2                !
 ! D60   D(37,15,16,45)          0.4426         estimate D2E/DX2                !
 ! D61   D(14,15,37,66)         63.7026         estimate D2E/DX2                !
 ! D62   D(14,15,37,67)        -56.3577         estimate D2E/DX2                !
 ! D63   D(14,15,37,68)       -176.2857         estimate D2E/DX2                !
 ! D64   D(16,15,37,66)       -118.188          estimate D2E/DX2                !
 ! D65   D(16,15,37,67)        121.7516         estimate D2E/DX2                !
 ! D66   D(16,15,37,68)          1.8237         estimate D2E/DX2                !
 ! D67   D(15,16,17,18)         -1.4613         estimate D2E/DX2                !
 ! D68   D(15,16,17,46)        179.7937         estimate D2E/DX2                !
 ! D69   D(45,16,17,18)        179.1174         estimate D2E/DX2                !
 ! D70   D(45,16,17,46)          0.3724         estimate D2E/DX2                !
 ! D71   D(16,17,18,19)          2.2241         estimate D2E/DX2                !
 ! D72   D(16,17,18,20)       -179.2531         estimate D2E/DX2                !
 ! D73   D(46,17,18,19)       -179.0109         estimate D2E/DX2                !
 ! D74   D(46,17,18,20)         -0.4881         estimate D2E/DX2                !
 ! D75   D(17,18,19,14)         -0.8473         estimate D2E/DX2                !
 ! D76   D(17,18,19,47)        179.4405         estimate D2E/DX2                !
 ! D77   D(20,18,19,14)       -179.533          estimate D2E/DX2                !
 ! D78   D(20,18,19,47)          0.7548         estimate D2E/DX2                !
 ! D79   D(17,18,20,21)         -8.3404         estimate D2E/DX2                !
 ! D80   D(17,18,20,48)        176.8617         estimate D2E/DX2                !
 ! D81   D(19,18,20,21)        170.24           estimate D2E/DX2                !
 ! D82   D(19,18,20,48)         -4.5579         estimate D2E/DX2                !
 ! D83   D(18,20,21,22)       -168.4574         estimate D2E/DX2                !
 ! D84   D(18,20,21,36)         12.7854         estimate D2E/DX2                !
 ! D85   D(48,20,21,22)          6.3333         estimate D2E/DX2                !
 ! D86   D(48,20,21,36)       -172.4239         estimate D2E/DX2                !
 ! D87   D(20,21,22,23)         35.2206         estimate D2E/DX2                !
 ! D88   D(20,21,22,27)       -145.0117         estimate D2E/DX2                !
 ! D89   D(36,21,22,23)       -145.9942         estimate D2E/DX2                !
 ! D90   D(36,21,22,27)         33.7735         estimate D2E/DX2                !
 ! D91   D(21,22,23,24)       -176.5711         estimate D2E/DX2                !
 ! D92   D(21,22,23,49)          1.5845         estimate D2E/DX2                !
 ! D93   D(27,22,23,24)          3.6618         estimate D2E/DX2                !
 ! D94   D(27,22,23,49)       -178.1826         estimate D2E/DX2                !
 ! D95   D(21,22,27,26)        177.5826         estimate D2E/DX2                !
 ! D96   D(21,22,27,52)         -1.1312         estimate D2E/DX2                !
 ! D97   D(23,22,27,26)         -2.6389         estimate D2E/DX2                !
 ! D98   D(23,22,27,52)        178.6474         estimate D2E/DX2                !
 ! D99   D(22,23,24,25)         -1.9135         estimate D2E/DX2                !
 ! D100  D(22,23,24,50)       -179.1373         estimate D2E/DX2                !
 ! D101  D(49,23,24,25)        179.9284         estimate D2E/DX2                !
 ! D102  D(49,23,24,50)          2.7046         estimate D2E/DX2                !
 ! D103  D(23,24,25,26)         -0.8948         estimate D2E/DX2                !
 ! D104  D(23,24,25,28)        176.977          estimate D2E/DX2                !
 ! D105  D(50,24,25,26)        176.2537         estimate D2E/DX2                !
 ! D106  D(50,24,25,28)         -5.8746         estimate D2E/DX2                !
 ! D107  D(24,25,26,27)          1.9354         estimate D2E/DX2                !
 ! D108  D(24,25,26,51)        179.9067         estimate D2E/DX2                !
 ! D109  D(28,25,26,27)       -175.9816         estimate D2E/DX2                !
 ! D110  D(28,25,26,51)          1.9896         estimate D2E/DX2                !
 ! D111  D(24,25,28,29)        -53.7421         estimate D2E/DX2                !
 ! D112  D(24,25,28,53)         69.289          estimate D2E/DX2                !
 ! D113  D(24,25,28,54)       -175.2067         estimate D2E/DX2                !
 ! D114  D(26,25,28,29)        124.0577         estimate D2E/DX2                !
 ! D115  D(26,25,28,53)       -112.9112         estimate D2E/DX2                !
 ! D116  D(26,25,28,54)          2.5931         estimate D2E/DX2                !
 ! D117  D(25,26,27,22)         -0.1745         estimate D2E/DX2                !
 ! D118  D(25,26,27,52)        178.5077         estimate D2E/DX2                !
 ! D119  D(51,26,27,22)       -178.1842         estimate D2E/DX2                !
 ! D120  D(51,26,27,52)          0.4979         estimate D2E/DX2                !
 ! D121  D(25,28,29,30)         74.7451         estimate D2E/DX2                !
 ! D122  D(25,28,29,35)        -64.5856         estimate D2E/DX2                !
 ! D123  D(53,28,29,30)        -48.5441         estimate D2E/DX2                !
 ! D124  D(53,28,29,35)        172.1253         estimate D2E/DX2                !
 ! D125  D(54,28,29,30)       -162.4242         estimate D2E/DX2                !
 ! D126  D(54,28,29,35)         58.2452         estimate D2E/DX2                !
 ! D127  D(28,29,30,31)        -98.1386         estimate D2E/DX2                !
 ! D128  D(28,29,30,55)         32.9759         estimate D2E/DX2                !
 ! D129  D(28,29,30,56)        147.4408         estimate D2E/DX2                !
 ! D130  D(35,29,30,31)         43.939          estimate D2E/DX2                !
 ! D131  D(35,29,30,55)        175.0534         estimate D2E/DX2                !
 ! D132  D(35,29,30,56)        -70.4817         estimate D2E/DX2                !
 ! D133  D(28,29,35,34)         99.3862         estimate D2E/DX2                !
 ! D134  D(28,29,35,64)       -140.8345         estimate D2E/DX2                !
 ! D135  D(28,29,35,65)        -23.3326         estimate D2E/DX2                !
 ! D136  D(30,29,35,34)        -44.5487         estimate D2E/DX2                !
 ! D137  D(30,29,35,64)         75.2306         estimate D2E/DX2                !
 ! D138  D(30,29,35,65)       -167.2675         estimate D2E/DX2                !
 ! D139  D(29,30,31,32)        -51.1177         estimate D2E/DX2                !
 ! D140  D(29,30,31,57)       -170.2362         estimate D2E/DX2                !
 ! D141  D(29,30,31,58)         72.3456         estimate D2E/DX2                !
 ! D142  D(55,30,31,32)        178.7978         estimate D2E/DX2                !
 ! D143  D(55,30,31,57)         59.6792         estimate D2E/DX2                !
 ! D144  D(55,30,31,58)        -57.739          estimate D2E/DX2                !
 ! D145  D(56,30,31,32)         64.196          estimate D2E/DX2                !
 ! D146  D(56,30,31,57)        -54.9226         estimate D2E/DX2                !
 ! D147  D(56,30,31,58)       -172.3408         estimate D2E/DX2                !
 ! D148  D(30,31,32,33)        -81.8017         estimate D2E/DX2                !
 ! D149  D(30,31,32,34)         52.6717         estimate D2E/DX2                !
 ! D150  D(57,31,32,33)         36.08           estimate D2E/DX2                !
 ! D151  D(57,31,32,34)        170.5533         estimate D2E/DX2                !
 ! D152  D(58,31,32,33)        151.7302         estimate D2E/DX2                !
 ! D153  D(58,31,32,34)        -73.7964         estimate D2E/DX2                !
 ! D154  D(31,32,33,59)         65.644          estimate D2E/DX2                !
 ! D155  D(31,32,33,60)        -55.1293         estimate D2E/DX2                !
 ! D156  D(31,32,33,61)       -173.9017         estimate D2E/DX2                !
 ! D157  D(34,32,33,59)        -65.2403         estimate D2E/DX2                !
 ! D158  D(34,32,33,60)        173.9864         estimate D2E/DX2                !
 ! D159  D(34,32,33,61)         55.214          estimate D2E/DX2                !
 ! D160  D(31,32,34,35)        -52.6392         estimate D2E/DX2                !
 ! D161  D(31,32,34,62)        179.6056         estimate D2E/DX2                !
 ! D162  D(31,32,34,63)         63.4466         estimate D2E/DX2                !
 ! D163  D(33,32,34,35)         82.1359         estimate D2E/DX2                !
 ! D164  D(33,32,34,62)        -45.6193         estimate D2E/DX2                !
 ! D165  D(33,32,34,63)       -161.7783         estimate D2E/DX2                !
 ! D166  D(32,34,35,29)         51.6932         estimate D2E/DX2                !
 ! D167  D(32,34,35,64)        -68.5669         estimate D2E/DX2                !
 ! D168  D(32,34,35,65)        175.6486         estimate D2E/DX2                !
 ! D169  D(62,34,35,29)        177.8964         estimate D2E/DX2                !
 ! D170  D(62,34,35,64)         57.6363         estimate D2E/DX2                !
 ! D171  D(62,34,35,65)        -58.1482         estimate D2E/DX2                !
 ! D172  D(63,34,35,29)        -64.9031         estimate D2E/DX2                !
 ! D173  D(63,34,35,64)        174.8368         estimate D2E/DX2                !
 ! D174  D(63,34,35,65)         59.0523         estimate D2E/DX2                !
 --------------------------------------------------------------------------------
 Trust Radius=3.00D-01 FncErr=1.00D-07 GrdErr=1.00D-06
 Number of steps in this run= 400 maximum allowed number of steps= 408.
 GradGradGradGradGradGradGradGradGradGradGradGradGradGradGradGradGradGrad

 Leave Link  103 at Tue Mar 10 14:41:00 2020, MaxMem= 2684354560 cpu:       0.1
 (Enter /opt/g09gh/gaussian/g09/l202.exe)
 Stoichiometry    C29H31N7O
 Framework group  C1[X(C29H31N7O)]
 Deg. of freedom   198
 Full point group                 C1      NOp   1
 Largest Abelian subgroup         C1      NOp   1
 Largest concise Abelian subgroup C1      NOp   1
                         Standard orientation:                         
 ---------------------------------------------------------------------
 Center     Atomic      Atomic             Coordinates (Angstroms)
 Number     Number       Type             X           Y           Z
 ---------------------------------------------------------------------
      1          6           0       -0.522907    4.326954   -1.162476
      2          6           0        0.815335    4.312017   -0.746631
      3          6           0        1.482865    3.084053   -0.567052
      4          6           0        0.720523    1.923869   -0.853369
      5          7           0       -0.556052    1.915099   -1.258064
      6          6           0       -1.160545    3.104472   -1.400934
      7          6           0        2.924756    2.973316   -0.134281
      8          6           0        3.806703    4.048597    0.058259
      9          6           0        5.117650    3.702632    0.405273
     10          7           0        5.550372    2.455214    0.566957
     11          6           0        4.628717    1.485890    0.387399
     12          7           0        3.354911    1.710677    0.053127
     13          7           0        5.081139    0.187297    0.573509
     14          6           0        4.461372   -1.106025    0.414147
     15          6           0        5.278621   -2.273651    0.329009
     16          6           0        4.623643   -3.501914    0.133152
     17          6           0        3.233837   -3.640109    0.033917
     18          6           0        2.445114   -2.492980    0.166440
     19          6           0        3.070475   -1.249003    0.344996
     20          7           0        1.016654   -2.441673    0.109510
     21          6           0        0.082604   -3.394098   -0.223216
     22          6           0       -1.340112   -2.912107   -0.433956
     23          6           0       -1.652974   -1.667721   -1.005232
     24          6           0       -2.981177   -1.250997   -1.107360
     25          6           0       -4.048029   -2.064925   -0.685343
     26          6           0       -3.718929   -3.335213   -0.169379
     27          6           0       -2.392376   -3.754875   -0.042343
     28          6           0       -5.506203   -1.597398   -0.727332
     29          7           0       -5.954286   -0.342452   -0.092526
     30          6           0       -5.656843    0.979915   -0.690503
     31          6           0       -4.436803    1.740798   -0.104859
     32          7           0       -4.447549    1.860152    1.371262
     33          6           0       -5.262825    2.934839    1.949193
     34          6           0       -4.626767    0.507751    1.952455
     35          6           0       -5.849695   -0.253165    1.382714
     36          8           0        0.357897   -4.579070   -0.326681
     37          6           0        6.795629   -2.237762    0.398495
     38          1           0       -1.058469    5.261381   -1.300751
     39          1           0        1.306991    5.263712   -0.560240
     40          1           0        1.181127    0.944724   -0.780170
     41          1           0       -2.196648    3.075070   -1.732353
     42          1           0        3.536215    5.088348   -0.079021
     43          1           0        5.868010    4.478443    0.555223
     44          1           0        6.068654    0.200249    0.780335
     45          1           0        5.216233   -4.411368    0.041424
     46          1           0        2.767811   -4.605745   -0.120545
     47          1           0        2.468733   -0.359464    0.438755
     48          1           0        0.630512   -1.523181    0.277798
     49          1           0       -0.854283   -1.010985   -1.343261
     50          1           0       -3.173739   -0.286507   -1.569872
     51          1           0       -4.505833   -4.006807    0.173830
     52          1           0       -2.150557   -4.727249    0.379263
     53          1           0       -5.791676   -1.529124   -1.787676
     54          1           0       -6.123595   -2.382240   -0.265802
     55          1           0       -5.642256    0.922471   -1.742805
     56          1           0       -6.918394    1.918671   -0.308966
     57          1           0       -4.490377    3.140733   -0.696116
     58          1           0       -3.581469    1.349851   -0.361465
     59          1           0       -6.328722    2.766768    1.758463
     60          1           0       -4.973274    3.900977    1.520657
     61          1           0       -5.103180    2.986860    3.032416
     62          1           0       -4.630949    0.563197    2.975813
     63          1           0       -3.368488   -0.332073    1.533479
     64          1           0       -7.098364    0.478484    1.891408
     65          1           0       -5.840044   -1.628437    1.976636
     66          1           0        7.143331   -1.871478    1.374878
     67          1           0        7.217847   -1.577265   -0.371980
     68          1           0        7.255385   -3.224618    0.250589
 ---------------------------------------------------------------------
 Rotational constants (GHZ):      0.1313798      0.0632368      0.0453402
 Leave Link  202 at Tue Mar 10 14:41:00 2020, MaxMem= 2684354560 cpu:       0.1
 (Enter /opt/g09gh/gaussian/g09/l301.exe)
 Standard basis: 6-31G(d) (6D, 7F)
 Ernie: Thresh=  0.10000D-02 Tol=  0.10000D-05 Strict=F.
 There are   617 symmetry adapted basis functions of A   symmetry.
 Integral buffers will be    131072 words long.
 Raffenetti 2 integral format.
 Two-electron integral symmetry is turned on.
   617 basis functions,  1160 primitive gaussians,   617 cartesian basis functions
   131 alpha electrons      131 beta electrons
       nuclear repulsion energy      3792.2424880751 Hartrees.
 IExCor= 4639 DFT=T Ex+Corr=wB97XD ExCW=0 ScaHFX=  1.000000
 ScaDFX=  1.000000  1.000000  1.000000  1.000000 ScalE2=  1.000000  1.000000
 IRadAn=      0 IRanWt=     -1 IRanGd=            0 ICorTp=0
  HFx wShort=  0.000000 wLong=  0.200000 cFull=  0.222036 cShort=  0.000000 cLong=  0.777964
  DFx wShort=  0.000000 wLong=  0.200000 cFull=  0.000000 cShort=  0.000000 cLong=  1.000000
 NAtoms=   68 NActive=   68 NUniq=   68 SFac= 7.50D-01 NAtFMM=   80 NAOKFM=F Big=T
 R6Disp: Dispersion energy =        -0.0590632034 Hartrees.
 Nuclear repulsion after empirical dispersion term =     3792.1834248717 Hartrees.
 Leave Link  301 at Tue Mar 10 14:41:00 2020, MaxMem= 2684354560 cpu:       0.5
 (Enter /opt/g09gh/gaussian/g09/l302.exe)
 NPDir=0 NMtPBC=     1 NCelOv=     1 NCel=       1 NClECP=     1 NCelD=      1
         NCelK=      1 NCelE2=     1 NClLst=     1 CellRange=     0.0.
 One-electron integrals computed using PRISM.
 NBasis=   617 RedAO= T  NBF=   617
 NBsUse=   617 1.00D-06 NBFU=   617
 Precomputing XC quadrature grid using
 IXCGrd= 2 IRadAn=           0 IRanWt=          -1 IRanGd=           0 AccXCQ= 1.00D-10.
 NRdTot=    4373 NPtTot=      558940 NUsed=      590448 NTot=      590480
 NSgBfM=   606   606   606   606   606 NAtAll=    68    68.
 Leave Link  302 at Tue Mar 10 14:41:02 2020, MaxMem= 2684354560 cpu:       9.0
 (Enter /opt/g09gh/gaussian/g09/l303.exe)
 DipDrv:  MaxL=1.
 Leave Link  303 at Tue Mar 10 14:41:02 2020, MaxMem= 2684354560 cpu:       1.0
 (Enter /opt/g09gh/gaussian/g09/l401.exe)
 Harris functional with IExCor= 4639 diagonalized for initial guess.
 ExpMin= 1.61D-01 ExpMax= 5.48D+03 ExpMxC= 8.25D+02 IAcc=1 IRadAn=         1 AccDes= 0.00D+00
 HarFok:  IExCor= 4639 AccDes= 0.00D+00 IRadAn=         1 IDoV= 1
 ScaDFX=  1.000000  1.000000  1.000000  1.000000
 FoFCou: FMM=F IPFlag=           0 FMFlag=      100000 FMFlg1=           1
         NFxFlg=           0 DoJE=T BraDBF=F KetDBF=T FulRan=T
         Omega=  0.000000  0.000000  1.000000  0.000000  0.000000 ICntrl=     500 IOpCl=  0
         NMat0=    1 NMatS0=    1 NMatT0=    0 NMatD0=    1 NMtDS0=    0 NMtDT0=    0
         I1Cent=           4 NGrid=           0.
 Petite list used in FoFCou.
 Harris En= -1512.33262196301    
 Initial guess orbital symmetries:
       Occupied  (A) (A) (A) (A) (A) (A) (A) (A) (A) (A) (A) (A)
                 (A) (A) (A) (A) (A) (A) (A) (A) (A) (A) (A) (A)
                 (A) (A) (A) (A) (A) (A) (A) (A) (A) (A) (A) (A)
                 (A) (A) (A) (A) (A) (A) (A) (A) (A) (A) (A) (A)
                 (A) (A) (A) (A) (A) (A) (A) (A) (A) (A) (A) (A)
                 (A) (A) (A) (A) (A) (A) (A) (A) (A) (A) (A) (A)
                 (A) (A) (A) (A) (A) (A) (A) (A) (A) (A) (A) (A)
                 (A) (A) (A) (A) (A) (A) (A) (A) (A) (A) (A) (A)
                 (A) (A) (A) (A) (A) (A) (A) (A) (A) (A) (A) (A)
                 (A) (A) (A) (A) (A) (A) (A) (A) (A) (A) (A) (A)
                 (A) (A) (A) (A) (A) (A) (A) (A) (A) (A) (A)
       Virtual   (A) (A) (A) (A) (A) (A) (A) (A) (A) (A) (A) (A)
                 (A) (A) (A) (A) (A) (A) (A) (A) (A) (A) (A) (A)
                 (A) (A) (A) (A) (A) (A) (A) (A) (A) (A) (A) (A)
                 (A) (A) (A) (A) (A) (A) (A) (A) (A) (A) (A) (A)
                 (A) (A) (A) (A) (A) (A) (A) (A) (A) (A) (A) (A)
                 (A) (A) (A) (A) (A) (A) (A) (A) (A) (A) (A) (A)
                 (A) (A) (A) (A) (A) (A) (A) (A) (A) (A) (A) (A)
                 (A) (A) (A) (A) (A) (A) (A) (A) (A) (A) (A) (A)
                 (A) (A) (A) (A) (A) (A) (A) (A) (A) (A) (A) (A)
                 (A) (A) (A) (A) (A) (A) (A) (A) (A) (A) (A) (A)
                 (A) (A) (A) (A) (A) (A) (A) (A) (A) (A) (A) (A)
                 (A) (A) (A) (A) (A) (A) (A) (A) (A) (A) (A) (A)
                 (A) (A) (A) (A) (A) (A) (A) (A) (A) (A) (A) (A)
                 (A) (A) (A) (A) (A) (A) (A) (A) (A) (A) (A) (A)
                 (A) (A) (A) (A) (A) (A) (A) (A) (A) (A) (A) (A)
                 (A) (A) (A) (A) (A) (A) (A) (A) (A) (A) (A) (A)
                 (A) (A) (A) (A) (A) (A) (A) (A) (A) (A) (A) (A)
                 (A) (A) (A) (A) (A) (A) (A) (A) (A) (A) (A) (A)
                 (A) (A) (A) (A) (A) (A) (A) (A) (A) (A) (A) (A)
                 (A) (A) (A) (A) (A) (A) (A) (A) (A) (A) (A) (A)
                 (A) (A) (A) (A) (A) (A) (A) (A) (A) (A) (A) (A)
                 (A) (A) (A) (A) (A) (A) (A) (A) (A) (A) (A) (A)
                 (A) (A) (A) (A) (A) (A) (A) (A) (A) (A) (A) (A)
                 (A) (A) (A) (A) (A) (A) (A) (A) (A) (A) (A) (A)
                 (A) (A) (A) (A) (A) (A) (A) (A) (A) (A) (A) (A)
                 (A) (A) (A) (A) (A) (A) (A) (A) (A) (A) (A) (A)
                 (A) (A) (A) (A) (A) (A) (A) (A) (A) (A) (A) (A)
                 (A) (A) (A) (A) (A) (A) (A) (A) (A) (A) (A) (A)
                 (A) (A) (A) (A) (A) (A) (A) (A) (A) (A) (A) (A)
                 (A) (A) (A) (A) (A) (A) (A) (A) (A) (A) (A) (A)
                 (A) (A) (A) (A) (A) (A) (A) (A) (A) (A) (A) (A)
                 (A) (A) (A) (A) (A) (A) (A) (A) (A) (A) (A) (A)
                 (A) (A) (A) (A) (A) (A) (A) (A) (A) (A) (A) (A)
                 (A) (A) (A) (A) (A) (A) (A) (A) (A) (A) (A) (A)
                 (A) (A) (A) (A) (A) (A) (A) (A) (A) (A) (A) (A)
                 (A) (A) (A) (A) (A) (A) (A) (A) (A) (A) (A) (A)
                 (A) (A) (A) (A) (A) (A) (A) (A) (A) (A) (A) (A)
                 (A) (A) (A) (A) (A) (A) (A) (A) (A) (A) (A) (A)
                 (A) (A) (A) (A) (A) (A) (A) (A) (A) (A) (A) (A)
                 (A) (A) (A) (A) (A) (A) (A) (A) (A) (A) (A) (A)
                 (A) (A) (A) (A) (A) (A)
 The electronic state of the initial guess is 1-A.
 Leave Link  401 at Tue Mar 10 14:41:05 2020, MaxMem= 2684354560 cpu:      17.8
 (Enter /opt/g09gh/gaussian/g09/l502.exe)
 Closed shell SCF:
 Requested convergence on RMS density matrix=1.00D-08 within 128 cycles.
 Requested convergence on MAX density matrix=1.00D-06.
 Requested convergence on             energy=1.00D-06.
 No special actions if energy rises.
 Using DIIS extrapolation, IDIIS=  1040.
 Integral symmetry usage will be decided dynamically.
       589823 words used for storage of precomputed grid.
 IEnd=     1758403 IEndB=     1758403 NGot=  2684354560 MDV=  2682994104
 LenX=  2682994104 LenY=  2682612798
 Fock matrices will be formed incrementally for  20 cycles.
 Integral accuracy reduced to 1.0D-05 until final iterations.

 Cycle   1  Pass 0  IDiag  1:
 FoFJK:  IHMeth= 1 ICntrl=     0 DoSepK=T KAlg= 1 I1Cent= 0 FoldK=F
 FoFCou: FMM=T IPFlag=           0 FMFlag=      100000 FMFlg1=           1
         NFxFlg=           0 DoJE=T BraDBF=F KetDBF=F FulRan=T
         Omega=  0.000000  0.000000  1.000000  0.000000  0.000000 ICntrl=     500 IOpCl=  0
         NMat0=    1 NMatS0=    1 NMatT0=    0 NMatD0=    1 NMtDS0=    0 NMtDT0=    0
         I1Cent=           0 NGrid=           0.
 Symmetry not used in FoFCou.
 FMM levels:  10  Number of levels for PrismC:   9
 E= -1581.07149215627    
 DIIS: error= 6.13D-02 at cycle   1 NSaved=   1.
 NSaved= 1 IEnMin= 1 EnMin= -1581.07149215627     IErMin= 1 ErrMin= 6.13D-02
 ErrMax= 6.13D-02 EMaxC= 1.00D-01 BMatC= 1.47D+00 BMatP= 1.47D+00
 IDIUse=3 WtCom= 3.87D-01 WtEn= 6.13D-01
 Coeff-Com:  0.100D+01
 Coeff-En:   0.100D+01
 Coeff:      0.100D+01
 Gap=     0.278 Goal=   None    Shift=    0.000
 GapD=    0.278 DampG=1.000 DampE=0.500 DampFc=0.5000 IDamp=-1.
 Damping current iteration by 5.00D-01
 RMSDP=1.91D-03 MaxDP=8.89D-02              OVMax= 1.70D-01

 Cycle   2  Pass 0  IDiag  1:
 RMSU=  6.76D-04    CP:  1.00D+00
 FoFJK:  IHMeth= 1 ICntrl=     0 DoSepK=T KAlg= 1 I1Cent= 0 FoldK=F
 E= -1581.25206202452     Delta-E=       -0.180569868253 Rises=F Damp=T
 DIIS: error= 3.22D-02 at cycle   2 NSaved=   2.
 NSaved= 2 IEnMin= 2 EnMin= -1581.25206202452     IErMin= 2 ErrMin= 3.22D-02
 ErrMax= 3.22D-02 EMaxC= 1.00D-01 BMatC= 3.22D-01 BMatP= 1.47D+00
 IDIUse=3 WtCom= 6.78D-01 WtEn= 3.22D-01
 Coeff-Com: -0.638D+00 0.164D+01
 Coeff-En:   0.000D+00 0.100D+01
 Coeff:     -0.433D+00 0.143D+01
 Gap=     0.279 Goal=   None    Shift=    0.000
 RMSDP=8.78D-04 MaxDP=3.86D-02 DE=-1.81D-01 OVMax= 1.19D-01

 Cycle   3  Pass 0  IDiag  1:
 RMSU=  5.68D-04    CP:  1.00D+00  1.37D+00
 FoFJK:  IHMeth= 1 ICntrl=     0 DoSepK=T KAlg= 1 I1Cent= 0 FoldK=F
 E= -1581.38852916246     Delta-E=       -0.136467137934 Rises=F Damp=F
 DIIS: error= 8.59D-03 at cycle   3 NSaved=   3.
 NSaved= 3 IEnMin= 3 EnMin= -1581.38852916246     IErMin= 3 ErrMin= 8.59D-03
 ErrMax= 8.59D-03 EMaxC= 1.00D-01 BMatC= 6.07D-02 BMatP= 3.22D-01
 IDIUse=3 WtCom= 9.14D-01 WtEn= 8.59D-02
 Coeff-Com: -0.352D+00 0.729D+00 0.623D+00
 Coeff-En:   0.000D+00 0.000D+00 0.100D+01
 Coeff:     -0.322D+00 0.667D+00 0.655D+00
 Gap=     0.270 Goal=   None    Shift=    0.000
 RMSDP=4.75D-04 MaxDP=3.04D-02 DE=-1.36D-01 OVMax= 5.96D-02

 Cycle   4  Pass 0  IDiag  1:
 RMSU=  1.48D-04    CP:  1.00D+00  1.66D+00  5.98D-01
 FoFJK:  IHMeth= 1 ICntrl=     0 DoSepK=T KAlg= 1 I1Cent= 0 FoldK=F
 E= -1581.44218131916     Delta-E=       -0.053652156699 Rises=F Damp=F
 DIIS: error= 1.91D-03 at cycle   4 NSaved=   4.
 NSaved= 4 IEnMin= 4 EnMin= -1581.44218131916     IErMin= 4 ErrMin= 1.91D-03
 ErrMax= 1.91D-03 EMaxC= 1.00D-01 BMatC= 4.08D-03 BMatP= 6.07D-02
 IDIUse=3 WtCom= 9.81D-01 WtEn= 1.91D-02
 Coeff-Com: -0.156D+00 0.318D+00 0.353D+00 0.485D+00
 Coeff-En:   0.000D+00 0.000D+00 0.000D+00 0.100D+01
 Coeff:     -0.153D+00 0.312D+00 0.346D+00 0.495D+00
 Gap=     0.262 Goal=   None    Shift=    0.000
 RMSDP=1.08D-04 MaxDP=9.09D-03 DE=-5.37D-02 OVMax= 1.04D-02

 Cycle   5  Pass 0  IDiag  1:
 RMSU=  4.66D-05    CP:  1.00D+00  1.64D+00  6.70D-01  7.14D-01
 FoFJK:  IHMeth= 1 ICntrl=     0 DoSepK=T KAlg= 1 I1Cent= 0 FoldK=F
 E= -1581.44577170765     Delta-E=       -0.003590388490 Rises=F Damp=F
 DIIS: error= 4.80D-04 at cycle   5 NSaved=   5.
 NSaved= 5 IEnMin= 5 EnMin= -1581.44577170765     IErMin= 5 ErrMin= 4.80D-04
 ErrMax= 4.80D-04 EMaxC= 1.00D-01 BMatC= 9.02D-05 BMatP= 4.08D-03
 IDIUse=3 WtCom= 9.95D-01 WtEn= 4.80D-03
 Coeff-Com: -0.147D-01 0.290D-01 0.554D-01 0.155D+00 0.776D+00
 Coeff-En:   0.000D+00 0.000D+00 0.000D+00 0.000D+00 0.100D+01
 Coeff:     -0.146D-01 0.288D-01 0.552D-01 0.154D+00 0.777D+00
 Gap=     0.261 Goal=   None    Shift=    0.000
 RMSDP=2.47D-05 MaxDP=2.55D-03 DE=-3.59D-03 OVMax= 2.84D-03

 Cycle   6  Pass 0  IDiag  1:
 RMSU=  1.33D-05    CP:  1.00D+00  1.65D+00  6.77D-01  7.80D-01  9.94D-01
 FoFJK:  IHMeth= 1 ICntrl=     0 DoSepK=T KAlg= 1 I1Cent= 0 FoldK=F
 E= -1581.44586165771     Delta-E=       -0.000089950061 Rises=F Damp=F
 DIIS: error= 2.19D-04 at cycle   6 NSaved=   6.
 NSaved= 6 IEnMin= 6 EnMin= -1581.44586165771     IErMin= 6 ErrMin= 2.19D-04
 ErrMax= 2.19D-04 EMaxC= 1.00D-01 BMatC= 2.74D-05 BMatP= 9.02D-05
 IDIUse=3 WtCom= 9.98D-01 WtEn= 2.19D-03
 Coeff-Com:  0.219D-01-0.455D-01-0.363D-01-0.159D-01 0.392D+00 0.684D+00
 Coeff-En:   0.000D+00 0.000D+00 0.000D+00 0.000D+00 0.000D+00 0.100D+01
 Coeff:      0.219D-01-0.454D-01-0.362D-01-0.158D-01 0.391D+00 0.684D+00
 Gap=     0.262 Goal=   None    Shift=    0.000
 RMSDP=1.34D-05 MaxDP=8.25D-04 DE=-9.00D-05 OVMax= 1.64D-03

 Cycle   7  Pass 0  IDiag  1:
 RMSU=  5.82D-06    CP:  1.00D+00  1.65D+00  6.80D-01  8.06D-01  1.11D+00
                    CP:  8.96D-01
 FoFJK:  IHMeth= 1 ICntrl=     0 DoSepK=T KAlg= 1 I1Cent= 0 FoldK=F
 E= -1581.44589256391     Delta-E=       -0.000030906201 Rises=F Damp=F
 DIIS: error= 7.52D-05 at cycle   7 NSaved=   7.
 NSaved= 7 IEnMin= 7 EnMin= -1581.44589256391     IErMin= 7 ErrMin= 7.52D-05
 ErrMax= 7.52D-05 EMaxC= 1.00D-01 BMatC= 1.82D-06 BMatP= 2.74D-05
 IDIUse=1 WtCom= 1.00D+00 WtEn= 0.00D+00
 Coeff-Com:  0.930D-02-0.190D-01-0.176D-01-0.208D-01 0.620D-01 0.240D+00
 Coeff-Com:  0.746D+00
 Coeff:      0.930D-02-0.190D-01-0.176D-01-0.208D-01 0.620D-01 0.240D+00
 Coeff:      0.746D+00
 Gap=     0.262 Goal=   None    Shift=    0.000
 RMSDP=4.22D-06 MaxDP=2.77D-04 DE=-3.09D-05 OVMax= 6.47D-04

 Initial convergence to 1.0D-05 achieved.  Increase integral accuracy.
 Cycle   8  Pass 1  IDiag  1:
 FoFJK:  IHMeth= 1 ICntrl=     0 DoSepK=T KAlg= 1 I1Cent= 0 FoldK=F
 E= -1581.44414044271     Delta-E=        0.001752121198 Rises=F Damp=F
 DIIS: error= 9.81D-05 at cycle   1 NSaved=   1.
 NSaved= 1 IEnMin= 1 EnMin= -1581.44414044271     IErMin= 1 ErrMin= 9.81D-05
 ErrMax= 9.81D-05 EMaxC= 1.00D-01 BMatC= 1.40D-05 BMatP= 1.40D-05
 IDIUse=1 WtCom= 1.00D+00 WtEn= 0.00D+00
 Coeff-Com:  0.100D+01
 Coeff:      0.100D+01
 Gap=     0.262 Goal=   None    Shift=    0.000
 RMSDP=4.22D-06 MaxDP=2.77D-04 DE= 1.75D-03 OVMax= 3.47D-04

 Cycle   9  Pass 1  IDiag  1:
 RMSU=  1.93D-05    CP:  1.00D+00
 FoFJK:  IHMeth= 1 ICntrl=     0 DoSepK=T KAlg= 1 I1Cent= 0 FoldK=F
 E= -1581.44415245176     Delta-E=       -0.000012009052 Rises=F Damp=F
 DIIS: error= 3.72D-05 at cycle   2 NSaved=   2.
 NSaved= 2 IEnMin= 2 EnMin= -1581.44415245176     IErMin= 2 ErrMin= 3.72D-05
 ErrMax= 3.72D-05 EMaxC= 1.00D-01 BMatC= 8.07D-07 BMatP= 1.40D-05
 IDIUse=1 WtCom= 1.00D+00 WtEn= 0.00D+00
 Coeff-Com:  0.286D-01 0.971D+00
 Coeff:      0.286D-01 0.971D+00
 Gap=     0.262 Goal=   None    Shift=    0.000
 RMSDP=3.16D-06 MaxDP=2.23D-04 DE=-1.20D-05 OVMax= 2.85D-04

 Cycle  10  Pass 1  IDiag  1:
 RMSU=  2.04D-06    CP:  1.00D+00  1.05D+00
 FoFJK:  IHMeth= 1 ICntrl=     0 DoSepK=T KAlg= 1 I1Cent= 0 FoldK=F
 E= -1581.44415259684     Delta-E=       -0.000000145081 Rises=F Damp=F
 DIIS: error= 4.06D-05 at cycle   3 NSaved=   3.
 NSaved= 3 IEnMin= 3 EnMin= -1581.44415259684     IErMin= 2 ErrMin= 3.72D-05
 ErrMax= 4.06D-05 EMaxC= 1.00D-01 BMatC= 9.27D-07 BMatP= 8.07D-07
 IDIUse=1 WtCom= 1.00D+00 WtEn= 0.00D+00
 Coeff-Com: -0.414D-01 0.535D+00 0.507D+00
 Coeff:     -0.414D-01 0.535D+00 0.507D+00
 Gap=     0.262 Goal=   None    Shift=    0.000
 RMSDP=1.59D-06 MaxDP=1.42D-04 DE=-1.45D-07 OVMax= 1.43D-04

 Cycle  11  Pass 1  IDiag  1:
 RMSU=  7.02D-07    CP:  1.00D+00  1.06D+00  5.79D-01
 FoFJK:  IHMeth= 1 ICntrl=     0 DoSepK=T KAlg= 1 I1Cent= 0 FoldK=F
 E= -1581.44415340166     Delta-E=       -0.000000804822 Rises=F Damp=F
 DIIS: error= 7.27D-06 at cycle   4 NSaved=   4.
 NSaved= 4 IEnMin= 4 EnMin= -1581.44415340166     IErMin= 4 ErrMin= 7.27D-06
 ErrMax= 7.27D-06 EMaxC= 1.00D-01 BMatC= 2.61D-08 BMatP= 8.07D-07
 IDIUse=1 WtCom= 1.00D+00 WtEn= 0.00D+00
 Coeff-Com: -0.169D-01 0.111D+00 0.173D+00 0.733D+00
 Coeff:     -0.169D-01 0.111D+00 0.173D+00 0.733D+00
 Gap=     0.262 Goal=   None    Shift=    0.000
 RMSDP=3.76D-07 MaxDP=3.67D-05 DE=-8.05D-07 OVMax= 3.82D-05

 Cycle  12  Pass 1  IDiag  1:
 RMSU=  2.32D-07    CP:  1.00D+00  1.06D+00  6.42D-01  1.02D+00
 FoFJK:  IHMeth= 1 ICntrl=     0 DoSepK=T KAlg= 1 I1Cent= 0 FoldK=F
 E= -1581.44415342817     Delta-E=       -0.000000026505 Rises=F Damp=F
 DIIS: error= 3.24D-06 at cycle   5 NSaved=   5.
 NSaved= 5 IEnMin= 5 EnMin= -1581.44415342817     IErMin= 5 ErrMin= 3.24D-06
 ErrMax= 3.24D-06 EMaxC= 1.00D-01 BMatC= 5.90D-09 BMatP= 2.61D-08
 IDIUse=1 WtCom= 1.00D+00 WtEn= 0.00D+00
 Coeff-Com: -0.113D-03-0.415D-01-0.101D-01 0.327D+00 0.725D+00
 Coeff:     -0.113D-03-0.415D-01-0.101D-01 0.327D+00 0.725D+00
 Gap=     0.262 Goal=   None    Shift=    0.000
 RMSDP=2.00D-07 MaxDP=1.50D-05 DE=-2.65D-08 OVMax= 3.17D-05

 Cycle  13  Pass 1  IDiag  1:
 RMSU=  9.66D-08    CP:  1.00D+00  1.06D+00  6.60D-01  1.16D+00  9.50D-01
 FoFJK:  IHMeth= 1 ICntrl=     0 DoSepK=T KAlg= 1 I1Cent= 0 FoldK=F
 E= -1581.44415343586     Delta-E=       -0.000000007691 Rises=F Damp=F
 DIIS: error= 7.40D-07 at cycle   6 NSaved=   6.
 NSaved= 6 IEnMin= 6 EnMin= -1581.44415343586     IErMin= 6 ErrMin= 7.40D-07
 ErrMax= 7.40D-07 EMaxC= 1.00D-01 BMatC= 6.67D-10 BMatP= 5.90D-09
 IDIUse=1 WtCom= 1.00D+00 WtEn= 0.00D+00
 Coeff-Com:  0.206D-02-0.291D-01-0.265D-01 0.263D-01 0.274D+00 0.753D+00
 Coeff:      0.206D-02-0.291D-01-0.265D-01 0.263D-01 0.274D+00 0.753D+00
 Gap=     0.262 Goal=   None    Shift=    0.000
 RMSDP=8.60D-08 MaxDP=3.70D-06 DE=-7.69D-09 OVMax= 1.38D-05

 Cycle  14  Pass 1  IDiag  1:
 RMSU=  3.76D-08    CP:  1.00D+00  1.06D+00  6.65D-01  1.21D+00  1.08D+00
                    CP:  1.02D+00
 FoFJK:  IHMeth= 1 ICntrl=     0 DoSepK=T KAlg= 1 I1Cent= 0 FoldK=F
 E= -1581.44415343707     Delta-E=       -0.000000001208 Rises=F Damp=F
 DIIS: error= 3.38D-07 at cycle   7 NSaved=   7.
 NSaved= 7 IEnMin= 7 EnMin= -1581.44415343707     IErMin= 7 ErrMin= 3.38D-07
 ErrMax= 3.38D-07 EMaxC= 1.00D-01 BMatC= 1.20D-10 BMatP= 6.67D-10
 IDIUse=1 WtCom= 1.00D+00 WtEn= 0.00D+00
 Coeff-Com:  0.862D-03-0.506D-02-0.998D-02-0.493D-01-0.104D-01 0.304D+00
 Coeff-Com:  0.770D+00
 Coeff:      0.862D-03-0.506D-02-0.998D-02-0.493D-01-0.104D-01 0.304D+00
 Coeff:      0.770D+00
 Gap=     0.262 Goal=   None    Shift=    0.000
 RMSDP=4.21D-08 MaxDP=1.88D-06 DE=-1.21D-09 OVMax= 7.76D-06

 Cycle  15  Pass 1  IDiag  1:
 RMSU=  1.47D-08    CP:  1.00D+00  1.06D+00  6.69D-01  1.23D+00  1.13D+00
                    CP:  1.20D+00  1.04D+00
 FoFJK:  IHMeth= 1 ICntrl=     0 DoSepK=T KAlg= 1 I1Cent= 0 FoldK=F
 E= -1581.44415343732     Delta-E=       -0.000000000246 Rises=F Damp=F
 DIIS: error= 1.35D-07 at cycle   8 NSaved=   8.
 NSaved= 8 IEnMin= 8 EnMin= -1581.44415343732     IErMin= 8 ErrMin= 1.35D-07
 ErrMax= 1.35D-07 EMaxC= 1.00D-01 BMatC= 1.68D-11 BMatP= 1.20D-10
 IDIUse=1 WtCom= 1.00D+00 WtEn= 0.00D+00
 Coeff-Com: -0.235D-04 0.291D-02 0.803D-03-0.208D-01-0.442D-01-0.167D-01
 Coeff-Com:  0.272D+00 0.806D+00
 Coeff:     -0.235D-04 0.291D-02 0.803D-03-0.208D-01-0.442D-01-0.167D-01
 Coeff:      0.272D+00 0.806D+00
 Gap=     0.262 Goal=   None    Shift=    0.000
 RMSDP=1.73D-08 MaxDP=8.53D-07 DE=-2.46D-10 OVMax= 3.29D-06

 Cycle  16  Pass 1  IDiag  1:
 RMSU=  6.10D-09    CP:  1.00D+00  1.06D+00  6.70D-01  1.24D+00  1.15D+00
                    CP:  1.25D+00  1.22D+00  1.06D+00
 FoFJK:  IHMeth= 1 ICntrl=     0 DoSepK=T KAlg= 1 I1Cent= 0 FoldK=F
 E= -1581.44415343740     Delta-E=       -0.000000000081 Rises=F Damp=F
 DIIS: error= 5.09D-08 at cycle   9 NSaved=   9.
 NSaved= 9 IEnMin= 9 EnMin= -1581.44415343740     IErMin= 9 ErrMin= 5.09D-08
 ErrMax= 5.09D-08 EMaxC= 1.00D-01 BMatC= 3.19D-12 BMatP= 1.68D-11
 IDIUse=1 WtCom= 1.00D+00 WtEn= 0.00D+00
 Coeff-Com: -0.151D-03 0.197D-02 0.201D-02 0.296D-03-0.159D-01-0.634D-01
 Coeff-Com: -0.313D-01 0.307D+00 0.799D+00
 Coeff:     -0.151D-03 0.197D-02 0.201D-02 0.296D-03-0.159D-01-0.634D-01
 Coeff:     -0.313D-01 0.307D+00 0.799D+00
 Gap=     0.262 Goal=   None    Shift=    0.000
 RMSDP=7.51D-09 MaxDP=3.77D-07 DE=-8.09D-11 OVMax= 1.24D-06

 SCF Done:  E(RwB97XD) =  -1581.44415344     A.U. after   16 cycles
             Convg  =    0.7514D-08             -V/T =  2.0109
 KE= 1.564464159600D+03 PE=-1.125252113779D+04 EE= 4.314429399880D+03
 Leave Link  502 at Tue Mar 10 14:44:17 2020, MaxMem= 2684354560 cpu:    1149.9
 (Enter /opt/g09gh/gaussian/g09/l601.exe)
 Copying SCF densities to generalized density rwf, IOpCl= 0 IROHF=0.

 **********************************************************************

            Population analysis using the SCF density.

 **********************************************************************

 Orbital symmetries:
       Occupied  (A) (A) (A) (A) (A) (A) (A) (A) (A) (A) (A) (A)
                 (A) (A) (A) (A) (A) (A) (A) (A) (A) (A) (A) (A)
                 (A) (A) (A) (A) (A) (A) (A) (A) (A) (A) (A) (A)
                 (A) (A) (A) (A) (A) (A) (A) (A) (A) (A) (A) (A)
                 (A) (A) (A) (A) (A) (A) (A) (A) (A) (A) (A) (A)
                 (A) (A) (A) (A) (A) (A) (A) (A) (A) (A) (A) (A)
                 (A) (A) (A) (A) (A) (A) (A) (A) (A) (A) (A) (A)
                 (A) (A) (A) (A) (A) (A) (A) (A) (A) (A) (A) (A)
                 (A) (A) (A) (A) (A) (A) (A) (A) (A) (A) (A) (A)
                 (A) (A) (A) (A) (A) (A) (A) (A) (A) (A) (A) (A)
                 (A) (A) (A) (A) (A) (A) (A) (A) (A) (A) (A)
       Virtual   (A) (A) (A) (A) (A) (A) (A) (A) (A) (A) (A) (A)
                 (A) (A) (A) (A) (A) (A) (A) (A) (A) (A) (A) (A)
                 (A) (A) (A) (A) (A) (A) (A) (A) (A) (A) (A) (A)
                 (A) (A) (A) (A) (A) (A) (A) (A) (A) (A) (A) (A)
                 (A) (A) (A) (A) (A) (A) (A) (A) (A) (A) (A) (A)
                 (A) (A) (A) (A) (A) (A) (A) (A) (A) (A) (A) (A)
                 (A) (A) (A) (A) (A) (A) (A) (A) (A) (A) (A) (A)
                 (A) (A) (A) (A) (A) (A) (A) (A) (A) (A) (A) (A)
                 (A) (A) (A) (A) (A) (A) (A) (A) (A) (A) (A) (A)
                 (A) (A) (A) (A) (A) (A) (A) (A) (A) (A) (A) (A)
                 (A) (A) (A) (A) (A) (A) (A) (A) (A) (A) (A) (A)
                 (A) (A) (A) (A) (A) (A) (A) (A) (A) (A) (A) (A)
                 (A) (A) (A) (A) (A) (A) (A) (A) (A) (A) (A) (A)
                 (A) (A) (A) (A) (A) (A) (A) (A) (A) (A) (A) (A)
                 (A) (A) (A) (A) (A) (A) (A) (A) (A) (A) (A) (A)
                 (A) (A) (A) (A) (A) (A) (A) (A) (A) (A) (A) (A)
                 (A) (A) (A) (A) (A) (A) (A) (A) (A) (A) (A) (A)
                 (A) (A) (A) (A) (A) (A) (A) (A) (A) (A) (A) (A)
                 (A) (A) (A) (A) (A) (A) (A) (A) (A) (A) (A) (A)
                 (A) (A) (A) (A) (A) (A) (A) (A) (A) (A) (A) (A)
                 (A) (A) (A) (A) (A) (A) (A) (A) (A) (A) (A) (A)
                 (A) (A) (A) (A) (A) (A) (A) (A) (A) (A) (A) (A)
                 (A) (A) (A) (A) (A) (A) (A) (A) (A) (A) (A) (A)
                 (A) (A) (A) (A) (A) (A) (A) (A) (A) (A) (A) (A)
                 (A) (A) (A) (A) (A) (A) (A) (A) (A) (A) (A) (A)
                 (A) (A) (A) (A) (A) (A) (A) (A) (A) (A) (A) (A)
                 (A) (A) (A) (A) (A) (A) (A) (A) (A) (A) (A) (A)
                 (A) (A) (A) (A) (A) (A) (A) (A) (A) (A) (A) (A)
                 (A) (A) (A) (A) (A) (A) (A) (A) (A) (A) (A) (A)
                 (A) (A) (A) (A) (A) (A) (A) (A) (A) (A) (A) (A)
                 (A) (A) (A) (A) (A) (A) (A) (A) (A) (A) (A) (A)
                 (A) (A) (A) (A) (A) (A) (A) (A) (A) (A) (A) (A)
                 (A) (A) (A) (A) (A) (A) (A) (A) (A) (A) (A) (A)
                 (A) (A) (A) (A) (A) (A) (A) (A) (A) (A) (A) (A)
                 (A) (A) (A) (A) (A) (A) (A) (A) (A) (A) (A) (A)
                 (A) (A) (A) (A) (A) (A) (A) (A) (A) (A) (A) (A)
                 (A) (A) (A) (A) (A) (A) (A) (A) (A) (A) (A) (A)
                 (A) (A) (A) (A) (A) (A) (A) (A) (A) (A) (A) (A)
                 (A) (A) (A) (A) (A) (A) (A) (A) (A) (A) (A) (A)
                 (A) (A) (A) (A) (A) (A) (A) (A) (A) (A) (A) (A)
                 (A) (A) (A) (A) (A) (A)
 The electronic state is 1-A.
 Alpha  occ. eigenvalues --  -19.23483 -14.49484 -14.48924 -14.47453 -14.46607
 Alpha  occ. eigenvalues --  -14.46138 -14.45768 -14.45288 -10.42069 -10.40571
 Alpha  occ. eigenvalues --  -10.39420 -10.38214 -10.36762 -10.36420 -10.35836
 Alpha  occ. eigenvalues --  -10.35785 -10.35224 -10.35116 -10.35086 -10.35001
 Alpha  occ. eigenvalues --  -10.34370 -10.34246 -10.34111 -10.32778 -10.32204
 Alpha  occ. eigenvalues --  -10.32021 -10.31681 -10.31504 -10.31405 -10.31198
 Alpha  occ. eigenvalues --  -10.30945 -10.30874 -10.30867 -10.30349 -10.30204
 Alpha  occ. eigenvalues --  -10.29683 -10.29168  -1.13552  -1.11549  -1.05541
 Alpha  occ. eigenvalues --   -1.04011  -1.03723  -1.03063  -1.00171  -1.00101
 Alpha  occ. eigenvalues --   -0.96048  -0.94538  -0.92418  -0.89345  -0.88086
 Alpha  occ. eigenvalues --   -0.87070  -0.86444  -0.84896  -0.84465  -0.83845
 Alpha  occ. eigenvalues --   -0.82346  -0.79798  -0.78274  -0.77867  -0.75968
 Alpha  occ. eigenvalues --   -0.73372  -0.73288  -0.72509  -0.72171  -0.70674
 Alpha  occ. eigenvalues --   -0.70491  -0.69763  -0.68362  -0.66384  -0.64667
 Alpha  occ. eigenvalues --   -0.63256  -0.62559  -0.62109  -0.61533  -0.59960
 Alpha  occ. eigenvalues --   -0.58548  -0.57994  -0.56986  -0.56354  -0.56140
 Alpha  occ. eigenvalues --   -0.55828  -0.55620  -0.54714  -0.54615  -0.54412
 Alpha  occ. eigenvalues --   -0.54074  -0.53334  -0.53215  -0.52257  -0.51776
 Alpha  occ. eigenvalues --   -0.51496  -0.51349  -0.51230  -0.50777  -0.50415
 Alpha  occ. eigenvalues --   -0.50229  -0.50052  -0.49875  -0.49526  -0.48639
 Alpha  occ. eigenvalues --   -0.47429  -0.47182  -0.46533  -0.46232  -0.46054
 Alpha  occ. eigenvalues --   -0.45225  -0.44709  -0.43950  -0.43882  -0.43434
 Alpha  occ. eigenvalues --   -0.43224  -0.42946  -0.42145  -0.41477  -0.40562
 Alpha  occ. eigenvalues --   -0.40083  -0.38069  -0.37790  -0.37275  -0.35992
 Alpha  occ. eigenvalues --   -0.35637  -0.35114  -0.33711  -0.33594  -0.33245
 Alpha  occ. eigenvalues --   -0.33057  -0.31992  -0.31577  -0.29431  -0.27476
 Alpha  occ. eigenvalues --   -0.26739
 Alpha virt. eigenvalues --   -0.00586   0.02768   0.03196   0.04569   0.05915
 Alpha virt. eigenvalues --    0.06832   0.07339   0.07620   0.08992   0.09700
 Alpha virt. eigenvalues --    0.09988   0.11123   0.13240   0.14065   0.14352
 Alpha virt. eigenvalues --    0.15997   0.17160   0.17337   0.18758   0.19214
 Alpha virt. eigenvalues --    0.19613   0.19947   0.19988   0.20582   0.21820
 Alpha virt. eigenvalues --    0.22344   0.22766   0.23071   0.23293   0.23758
 Alpha virt. eigenvalues --    0.24303   0.24399   0.25010   0.25228   0.25491
 Alpha virt. eigenvalues --    0.25680   0.25965   0.26588   0.26678   0.27237
 Alpha virt. eigenvalues --    0.27739   0.27837   0.28183   0.28597   0.29287
 Alpha virt. eigenvalues --    0.29354   0.29649   0.29999   0.30299   0.31169
 Alpha virt. eigenvalues --    0.31576   0.32247   0.32402   0.33446   0.34099
 Alpha virt. eigenvalues --    0.34178   0.34663   0.35963   0.36162   0.37175
 Alpha virt. eigenvalues --    0.37999   0.38159   0.38707   0.39425   0.39877
 Alpha virt. eigenvalues --    0.39902   0.41077   0.41321   0.42047   0.42538
 Alpha virt. eigenvalues --    0.43424   0.45198   0.45719   0.46068   0.47037
 Alpha virt. eigenvalues --    0.47923   0.49178   0.51849   0.52743   0.53772
 Alpha virt. eigenvalues --    0.55463   0.56124   0.56965   0.57218   0.58000
 Alpha virt. eigenvalues --    0.58364   0.58624   0.59199   0.59571   0.59968
 Alpha virt. eigenvalues --    0.60294   0.60853   0.61246   0.61570   0.61869
 Alpha virt. eigenvalues --    0.62193   0.62447   0.62992   0.63316   0.63972
 Alpha virt. eigenvalues --    0.64222   0.64722   0.65033   0.65174   0.65427
 Alpha virt. eigenvalues --    0.65737   0.65862   0.66222   0.66397   0.66661
 Alpha virt. eigenvalues --    0.67146   0.67318   0.67538   0.67992   0.68398
 Alpha virt. eigenvalues --    0.68876   0.68920   0.69598   0.70158   0.70284
 Alpha virt. eigenvalues --    0.70599   0.70981   0.71294   0.71957   0.72184
 Alpha virt. eigenvalues --    0.72680   0.72860   0.73081   0.73750   0.74075
 Alpha virt. eigenvalues --    0.74645   0.75315   0.75680   0.76086   0.76358
 Alpha virt. eigenvalues --    0.77026   0.77713   0.78637   0.79728   0.79834
 Alpha virt. eigenvalues --    0.80751   0.81379   0.81743   0.81780   0.82247
 Alpha virt. eigenvalues --    0.83473   0.83649   0.83871   0.84425   0.84970
 Alpha virt. eigenvalues --    0.85504   0.86140   0.86473   0.87154   0.87938
 Alpha virt. eigenvalues --    0.88077   0.88857   0.89454   0.89887   0.90504
 Alpha virt. eigenvalues --    0.90797   0.91222   0.91980   0.92302   0.92437
 Alpha virt. eigenvalues --    0.92740   0.92965   0.93626   0.93784   0.93859
 Alpha virt. eigenvalues --    0.94359   0.94984   0.95045   0.95691   0.96020
 Alpha virt. eigenvalues --    0.97016   0.97103   0.98052   0.98153   0.98302
 Alpha virt. eigenvalues --    0.99266   0.99419   0.99580   1.00594   1.01046
 Alpha virt. eigenvalues --    1.01736   1.02179   1.02679   1.03455   1.04111
 Alpha virt. eigenvalues --    1.04517   1.05205   1.05917   1.06521   1.06835
 Alpha virt. eigenvalues --    1.06877   1.06979   1.07666   1.08354   1.09116
[...]
                 (A) (A) (A) (A) (A) (A) (A) (A) (A) (A) (A) (A)
                 (A) (A) (A) (A) (A) (A) (A) (A) (A) (A) (A) (A)
                 (A) (A) (A) (A) (A) (A) (A) (A) (A) (A) (A) (A)
                 (A) (A) (A) (A) (A) (A) (A) (A) (A) (A) (A) (A)
                 (A) (A) (A) (A) (A) (A) (A) (A) (A) (A) (A) (A)
                 (A) (A) (A) (A) (A) (A) (A) (A) (A) (A) (A) (A)
                 (A) (A) (A) (A) (A) (A) (A) (A) (A) (A) (A) (A)
                 (A) (A) (A) (A) (A) (A) (A) (A) (A) (A) (A) (A)
                 (A) (A) (A) (A) (A) (A) (A) (A) (A) (A) (A) (A)
                 (A) (A) (A) (A) (A) (A) (A) (A) (A) (A) (A) (A)
                 (A) (A) (A) (A) (A) (A) (A) (A) (A) (A) (A) (A)
                 (A) (A) (A) (A) (A) (A) (A) (A) (A) (A) (A) (A)
                 (A) (A) (A) (A) (A) (A) (A) (A) (A) (A) (A) (A)
                 (A) (A) (A) (A) (A) (A) (A) (A) (A) (A) (A) (A)
                 (A) (A) (A) (A) (A) (A) (A) (A) (A) (A) (A) (A)
                 (A) (A) (A) (A) (A) (A) (A) (A) (A) (A) (A) (A)
                 (A) (A) (A) (A) (A) (A) (A) (A) (A) (A) (A) (A)
                 (A) (A) (A) (A) (A) (A) (A) (A) (A) (A) (A) (A)
                 (A) (A) (A) (A) (A) (A) (A) (A) (A) (A) (A) (A)
                 (A) (A) (A) (A) (A) (A) (A) (A) (A) (A) (A) (A)
                 (A) (A) (A) (A) (A) (A) (A) (A) (A) (A) (A) (A)
                 (A) (A) (A) (A) (A) (A) (A) (A) (A) (A) (A) (A)
                 (A) (A) (A) (A) (A) (A) (A) (A) (A) (A) (A) (A)
                 (A) (A) (A) (A) (A) (A) (A) (A) (A) (A) (A) (A)
                 (A) (A) (A) (A) (A) (A) (A) (A) (A) (A) (A) (A)
                 (A) (A) (A) (A) (A) (A) (A) (A) (A) (A) (A) (A)
                 (A) (A) (A) (A) (A) (A) (A) (A) (A) (A) (A) (A)
                 (A) (A) (A) (A) (A) (A) (A) (A) (A) (A) (A) (A)
                 (A) (A) (A) (A) (A) (A) (A) (A) (A) (A) (A) (A)
                 (A) (A) (A) (A) (A) (A) (A) (A) (A) (A) (A) (A)
                 (A) (A) (A) (A) (A) (A) (A) (A) (A) (A) (A) (A)
                 (A) (A) (A) (A) (A) (A) (A) (A) (A) (A) (A) (A)
                 (A) (A) (A) (A) (A) (A)
 The electronic state is 1-A.
 Alpha  occ. eigenvalues --  -19.23411 -14.49282 -14.48321 -14.46751 -14.46096
 Alpha  occ. eigenvalues --  -14.45764 -14.43616 -14.43135 -10.41778 -10.40081
 Alpha  occ. eigenvalues --  -10.37615 -10.36338 -10.35325 -10.35085 -10.34623
 Alpha  occ. eigenvalues --  -10.34135 -10.34016 -10.33622 -10.32863 -10.32368
 Alpha  occ. eigenvalues --  -10.31861 -10.31492 -10.31178 -10.30936 -10.30709
 Alpha  occ. eigenvalues --  -10.30687 -10.30677 -10.30586 -10.30533 -10.30403
 Alpha  occ. eigenvalues --  -10.30376 -10.30220 -10.30020 -10.29975 -10.29575
 Alpha  occ. eigenvalues --  -10.28739 -10.28405  -1.13443  -1.12296  -1.06322
 Alpha  occ. eigenvalues --   -1.04565  -1.03829  -1.03634  -1.00716  -0.99558
 Alpha  occ. eigenvalues --   -0.96086  -0.94671  -0.93098  -0.89777  -0.88124
 Alpha  occ. eigenvalues --   -0.87389  -0.86228  -0.85399  -0.84542  -0.83783
 Alpha  occ. eigenvalues --   -0.81888  -0.79581  -0.78270  -0.77798  -0.76320
 Alpha  occ. eigenvalues --   -0.73881  -0.73301  -0.73025  -0.72621  -0.70870
 Alpha  occ. eigenvalues --   -0.70314  -0.69615  -0.68039  -0.66413  -0.65150
 Alpha  occ. eigenvalues --   -0.63656  -0.63409  -0.62228  -0.61762  -0.60211
 Alpha  occ. eigenvalues --   -0.58848  -0.58045  -0.57570  -0.56611  -0.56101
 Alpha  occ. eigenvalues --   -0.55817  -0.55236  -0.55134  -0.54965  -0.54255
 Alpha  occ. eigenvalues --   -0.53866  -0.53239  -0.53154  -0.52612  -0.52174
 Alpha  occ. eigenvalues --   -0.51912  -0.51510  -0.51370  -0.50999  -0.50575
 Alpha  occ. eigenvalues --   -0.50365  -0.50116  -0.49975  -0.49497  -0.48335
 Alpha  occ. eigenvalues --   -0.47217  -0.46906  -0.46619  -0.46319  -0.46211
 Alpha  occ. eigenvalues --   -0.45762  -0.45236  -0.44797  -0.44044  -0.43932
 Alpha  occ. eigenvalues --   -0.43328  -0.43016  -0.42141  -0.41766  -0.41439
 Alpha  occ. eigenvalues --   -0.40964  -0.40776  -0.39912  -0.38187  -0.37592
 Alpha  occ. eigenvalues --   -0.35821  -0.35293  -0.34002  -0.33446  -0.33373
 Alpha  occ. eigenvalues --   -0.32818  -0.31904  -0.30772  -0.29115  -0.27079
 Alpha  occ. eigenvalues --   -0.24996
 Alpha virt. eigenvalues --   -0.00291   0.02872   0.03586   0.04480   0.06433
 Alpha virt. eigenvalues --    0.07258   0.08204   0.10371   0.13887   0.14815
 Alpha virt. eigenvalues --    0.15728   0.16386   0.17252   0.17441   0.18251
 Alpha virt. eigenvalues --    0.19198   0.19759   0.20074   0.20199   0.20628
 Alpha virt. eigenvalues --    0.21234   0.21900   0.22615   0.22767   0.23135
 Alpha virt. eigenvalues --    0.23343   0.23537   0.24191   0.24362   0.24839
 Alpha virt. eigenvalues --    0.25118   0.25124   0.26082   0.26488   0.26551
 Alpha virt. eigenvalues --    0.27065   0.27431   0.27681   0.27997   0.28429
 Alpha virt. eigenvalues --    0.28563   0.28863   0.29437   0.29707   0.30282
 Alpha virt. eigenvalues --    0.31015   0.31165   0.31764   0.32124   0.32246
 Alpha virt. eigenvalues --    0.32892   0.33214   0.33675   0.33954   0.34428
 Alpha virt. eigenvalues --    0.35001   0.36035   0.36538   0.37755   0.38123
 Alpha virt. eigenvalues --    0.38651   0.38809   0.39299   0.40138   0.40739
 Alpha virt. eigenvalues --    0.41235   0.41465   0.42064   0.42207   0.42712
 Alpha virt. eigenvalues --    0.43813   0.45042   0.46207   0.47058   0.47331
 Alpha virt. eigenvalues --    0.48354   0.49428   0.51937   0.53014   0.54229
 Alpha virt. eigenvalues --    0.55739   0.56536   0.57256   0.57912   0.58309
 Alpha virt. eigenvalues --    0.59047   0.59371   0.59611   0.60510   0.60896
 Alpha virt. eigenvalues --    0.61370   0.61485   0.61680   0.62222   0.62698
 Alpha virt. eigenvalues --    0.63200   0.63355   0.63864   0.64090   0.64888
 Alpha virt. eigenvalues --    0.64931   0.65336   0.65507   0.65529   0.65821
 Alpha virt. eigenvalues --    0.66022   0.66272   0.66897   0.66981   0.67472
 Alpha virt. eigenvalues --    0.67616   0.67787   0.68307   0.68614   0.69045
 Alpha virt. eigenvalues --    0.69765   0.70018   0.70549   0.71042   0.71241
 Alpha virt. eigenvalues --    0.71763   0.72092   0.72268   0.72585   0.73056
 Alpha virt. eigenvalues --    0.73334   0.73462   0.74254   0.75226   0.75348
 Alpha virt. eigenvalues --    0.75595   0.75945   0.76256   0.76932   0.77676
 Alpha virt. eigenvalues --    0.77802   0.79111   0.80381   0.80455   0.81764
 Alpha virt. eigenvalues --    0.81971   0.82307   0.83130   0.83261   0.84196
 Alpha virt. eigenvalues --    0.84655   0.85715   0.86629   0.86887   0.87424
 Alpha virt. eigenvalues --    0.88279   0.89047   0.89673   0.90200   0.90737
 Alpha virt. eigenvalues --    0.90924   0.91157   0.91468   0.92209   0.92294
 Alpha virt. eigenvalues --    0.92392   0.92543   0.93563   0.93885   0.94046
 Alpha virt. eigenvalues --    0.94340   0.94529   0.94675   0.95249   0.95603
 Alpha virt. eigenvalues --    0.95948   0.96541   0.97598   0.98196   0.98359
 Alpha virt. eigenvalues --    0.98515   0.99006   0.99057   0.99700   0.99824
 Alpha virt. eigenvalues --    1.00450   1.00623   1.01371   1.01925   1.02021
 Alpha virt. eigenvalues --    1.02502   1.02651   1.03218   1.03673   1.04408
 Alpha virt. eigenvalues --    1.05623   1.05882   1.06645   1.06767   1.07380
 Alpha virt. eigenvalues --    1.07618   1.08219   1.08750   1.08901   1.09056
 Alpha virt. eigenvalues --    1.10209   1.10702   1.11026   1.11714   1.12088
 Alpha virt. eigenvalues --    1.12634   1.13091   1.13791   1.14262   1.15631
 Alpha virt. eigenvalues --    1.16461   1.16986   1.17694   1.18300   1.19272
 Alpha virt. eigenvalues --    1.20081   1.21179   1.21738   1.23134   1.23416
 Alpha virt. eigenvalues --    1.24742   1.25513   1.26100   1.26962   1.27424
 Alpha virt. eigenvalues --    1.29019   1.29353   1.29705   1.30411   1.30875
 Alpha virt. eigenvalues --    1.31926   1.33070   1.33762   1.33901   1.34767
 Alpha virt. eigenvalues --    1.35492   1.36942   1.37301   1.37889   1.38647
 Alpha virt. eigenvalues --    1.39298   1.42348   1.43370   1.43711   1.44583
 Alpha virt. eigenvalues --    1.46482   1.47300   1.47750   1.48439   1.48546
 Alpha virt. eigenvalues --    1.48645   1.49180   1.49466   1.50258   1.51634
 Alpha virt. eigenvalues --    1.51970   1.52736   1.53658   1.54082   1.54529
 Alpha virt. eigenvalues --    1.55184   1.55561   1.56281   1.56871   1.56982
 Alpha virt. eigenvalues --    1.57524   1.57807   1.58456   1.59180   1.59300
 Alpha virt. eigenvalues --    1.59659   1.60104   1.60819   1.61986   1.62520
 Alpha virt. eigenvalues --    1.63914   1.64944   1.65123   1.65691   1.67668
 Alpha virt. eigenvalues --    1.68409   1.69751   1.72012   1.75171   1.76230
 Alpha virt. eigenvalues --    1.78748   1.80597   1.81507   1.82525   1.84277
 Alpha virt. eigenvalues --    1.84718   1.85643   1.86429   1.86959   1.87886
 Alpha virt. eigenvalues --    1.87956   1.88948   1.89940   1.90638   1.90825
 Alpha virt. eigenvalues --    1.91215   1.92461   1.92803   1.93433   1.94262
 Alpha virt. eigenvalues --    1.94426   1.94937   1.95569   1.96614   1.97942
 Alpha virt. eigenvalues --    1.98718   1.99603   2.00124   2.00240   2.01199
 Alpha virt. eigenvalues --    2.01312   2.01500   2.01783   2.02573   2.03678
 Alpha virt. eigenvalues --    2.05537   2.06500   2.06637   2.07323   2.08212
 Alpha virt. eigenvalues --    2.08613   2.08850   2.09736   2.10837   2.11395
 Alpha virt. eigenvalues --    2.12241   2.12580   2.13555   2.14167   2.14817
 Alpha virt. eigenvalues --    2.15878   2.16188   2.17688   2.19549   2.20432
 Alpha virt. eigenvalues --    2.21104   2.21285   2.21687   2.22414   2.22784
 Alpha virt. eigenvalues --    2.22977   2.23632   2.23942   2.24603   2.25133
 Alpha virt. eigenvalues --    2.25945   2.26148   2.26369   2.26887   2.28049
 Alpha virt. eigenvalues --    2.28543   2.29387   2.29951   2.31589   2.32593
 Alpha virt. eigenvalues --    2.34099   2.34928   2.36376   2.37133   2.37170
 Alpha virt. eigenvalues --    2.37914   2.38059   2.38213   2.39475   2.39887
 Alpha virt. eigenvalues --    2.40252   2.40810   2.42121   2.42801   2.43235
 Alpha virt. eigenvalues --    2.43391   2.44334   2.44769   2.44890   2.46220
 Alpha virt. eigenvalues --    2.46452   2.47886   2.48104   2.49413   2.49810
 Alpha virt. eigenvalues --    2.50306   2.50934   2.52051   2.53873   2.56002
 Alpha virt. eigenvalues --    2.58453   2.59876   2.60856   2.62124   2.63397
 Alpha virt. eigenvalues --    2.64710   2.65080   2.65954   2.66089   2.67626
 Alpha virt. eigenvalues --    2.68705   2.70008   2.71801   2.72057   2.72666
 Alpha virt. eigenvalues --    2.74011   2.74386   2.75463   2.76174   2.76865
 Alpha virt. eigenvalues --    2.77167   2.78480   2.78949   2.80939   2.81730
 Alpha virt. eigenvalues --    2.82746   2.83150   2.83721   2.84479   2.85526
 Alpha virt. eigenvalues --    2.86030   2.86479   2.87315   2.88411   2.89255
 Alpha virt. eigenvalues --    2.89962   2.91945   2.92698   2.93389   2.94568
 Alpha virt. eigenvalues --    2.94833   2.96132   2.97874   3.01369   3.02992
 Alpha virt. eigenvalues --    3.04142   3.06694   3.09290   3.10084   3.12017
 Alpha virt. eigenvalues --    3.18948   3.26898   3.29150   3.39175   3.41514
 Alpha virt. eigenvalues --    3.45039   3.53455   3.56406   3.57589   4.12660
 Alpha virt. eigenvalues --    4.13540   4.15200   4.16851   4.18259   4.19135
 Alpha virt. eigenvalues --    4.19562   4.20450   4.21990   4.23543   4.25288
 Alpha virt. eigenvalues --    4.26035   4.27473   4.28698   4.30761   4.31718
 Alpha virt. eigenvalues --    4.33382   4.34588   4.36933   4.40132   4.40369
 Alpha virt. eigenvalues --    4.41612   4.44510   4.46128   4.49149   4.49439
 Alpha virt. eigenvalues --    4.49746   4.52845   4.57341   4.60739   4.61924
 Alpha virt. eigenvalues --    4.64161   4.67477   4.69411   4.79022   4.85075
 Alpha virt. eigenvalues --    4.89518
          Condensed to atoms (all electrons):
 Mulliken atomic charges:
              1
     1  C   -0.197836
     2  C   -0.154398
     3  C    0.035517
     4  C    0.009579
     5  N   -0.437522
     6  C    0.035730
     7  C    0.295139
     8  C   -0.254763
     9  C    0.049010
    10  N   -0.493032
    11  C    0.714357
    12  N   -0.568390
    13  N   -0.802042
    14  C    0.291470
    15  C    0.119857
    16  C   -0.240378
    17  C   -0.191301
    18  C    0.358155
    19  C   -0.269689
    20  N   -0.757985
    21  C    0.585753
    22  C    0.015196
    23  C   -0.205347
    24  C   -0.217915
    25  C    0.155962
    26  C   -0.223079
    27  C   -0.178380
    28  C   -0.263551
    29  N   -0.382218
    30  C   -0.183896
    31  C   -0.181774
    32  N   -0.385713
    33  C   -0.349276
    34  C   -0.182642
    35  C   -0.186517
    36  O   -0.513286
    37  C   -0.607387
    38  H    0.186141
    39  H    0.186727
    40  H    0.198116
    41  H    0.179047
    42  H    0.180748
    43  H    0.189491
    44  H    0.369212
    45  H    0.160817
    46  H    0.213085
    47  H    0.199371
    48  H    0.361557
    49  H    0.185458
    50  H    0.172056
    51  H    0.163617
    52  H    0.195610
    53  H    0.170276
    54  H    0.168921
    55  H    0.148159
    56  H    0.158345
    57  H    0.141648
    58  H    0.174886
    59  H    0.135272
    60  H    0.164121
    61  H    0.167873
    62  H    0.153487
    63  H    0.172929
    64  H    0.159427
    65  H    0.154992
    66  H    0.178046
    67  H    0.182741
    68  H    0.190423
 Sum of Mulliken atomic charges =   0.00000
 Mulliken charges with hydrogens summed into heavy atoms:
              1
     1  C   -0.011695
     2  C    0.032329
     3  C    0.035517
     4  C    0.207695
     5  N   -0.437522
     6  C    0.214777
     7  C    0.295139
     8  C   -0.074015
     9  C    0.238501
    10  N   -0.493032
    11  C    0.714357
    12  N   -0.568390
    13  N   -0.432831
    14  C    0.291470
    15  C    0.119857
    16  C   -0.079561
    17  C    0.021784
    18  C    0.358155
    19  C   -0.070319
    20  N   -0.396429
    21  C    0.585753
    22  C    0.015196
    23  C   -0.019889
    24  C   -0.045859
    25  C    0.155962
    26  C   -0.059462
    27  C    0.017230
    28  C    0.075646
    29  N   -0.382218
    30  C    0.122608
    31  C    0.134759
    32  N   -0.385713
    33  C    0.117989
    34  C    0.143773
    35  C    0.127901
    36  O   -0.513286
    37  C   -0.056177
 Sum of Mulliken charges with hydrogens summed into heavy atoms =   0.00000
 Electronic spatial extent (au):  <R**2>=          21212.3741
 Charge=              0.0000 electrons
 Dipole moment (field-independent basis, Debye):
    X=              0.5805    Y=              6.5718    Z=              0.4331  Tot=              6.6116
 Quadrupole moment (field-independent basis, Debye-Ang):
   XX=           -193.2954   YY=           -202.5039   ZZ=           -220.4848
   XY=              3.1057   XZ=             -1.2824   YZ=             -5.2216
 Traceless Quadrupole moment (field-independent basis, Debye-Ang):
   XX=             12.1326   YY=              2.9242   ZZ=            -15.0568
   XY=              3.1057   XZ=             -1.2824   YZ=             -5.2216
 Octapole moment (field-independent basis, Debye-Ang**2):
  XXX=             80.0291  YYY=            204.3707  ZZZ=             11.3519  XYY=             33.4539
  XXY=            -43.1099  XXZ=             31.6224  XZZ=            -22.7267  YZZ=              1.3396
  YYZ=             17.7559  XYZ=              2.2718
 Hexadecapole moment (field-independent basis, Debye-Ang**3):
 XXXX=         -18570.9737 YYYY=          -7864.8892 ZZZZ=          -1607.7016 XXXY=            -50.8894
 XXXZ=           -102.8717 YYYX=            149.0671 YYYZ=            -76.2680 ZZZX=            -50.0507
 ZZZY=             15.0280 XXYY=          -4005.4203 XXZZ=          -3409.3257 YYZZ=          -1721.4712
 XXYZ=            -52.8525 YYXZ=            -15.9155 ZZXY=            -24.6119
 N-N= 3.895066505497D+03 E-N=-1.146172860136D+04  KE= 1.567155731926D+03
 No NMR shielding tensors so no spin-rotation constants.
 Leave Link  601 at Tue Mar 10 17:04:36 2020, MaxMem= 2684354560 cpu:       3.3
 (Enter /opt/g09gh/gaussian/g09/l9999.exe)
 1\1\GINC-NODE35\FOpt\RwB97XD\6-31G(d)\C29H31N7O1\BDW2292\10-Mar-2020\0
 \\#P opt=(,maxcycle=400) wB97XD/6-31G* MaxDisk=100GB\\MOLECULE0 Rotata
 ble Bond Optimization on g2-node38.bme.utexas.edu\\0,1\C,-0.6250103378
 ,3.9502636948,1.9688582553\C,0.5808630779,3.6525373124,2.5919982962\C,
 1.3048677397,2.5395202553,2.1679483882\C,0.7682802779,1.7835626689,1.1
 171617146\N,-0.3870058532,2.0550775702,0.5126818376\C,-1.067236832,3.1
 216629111,0.9433242159\C,2.5773083169,2.1123119782,2.8029517116\C,3.43
 21368346,2.9724498193,3.4862770374\C,4.5729509905,2.3908729343,4.03831
 99048\N,4.8686367633,1.1024214704,3.9347254168\C,3.9827182846,0.360980
 2453,3.2390257671\N,2.8599478276,0.813094624,2.6807756766\N,4.30798339
 47,-0.9632562948,3.1277446317\C,3.668435781,-1.9989477897,2.4211307129
 \C,4.388309616,-3.1858020391,2.1749957215\C,3.7497956648,-4.1916456138
 ,1.4546302064\C,2.4533133989,-4.0736253823,0.9570063008\C,1.7629636496
 ,-2.8936248729,1.2168650337\C,2.3607094114,-1.8810183255,1.9666462081\
 N,0.4723051721,-2.5956148568,0.7494370648\C,-0.3205240952,-3.267357391
 2,-0.1453581148\C,-1.5097428169,-2.4555679002,-0.5754486247\C,-1.43166
 27121,-1.0693519405,-0.7392668139\C,-2.5576922962,-0.3405180024,-1.092
 354172\C,-3.7905034049,-0.9691723409,-1.2669907133\C,-3.8479627115,-2.
 3613621993,-1.1570278543\C,-2.7202136754,-3.1020137279,-0.8227660501\C
 ,-5.0478793511,-0.1494225667,-1.5067385223\N,-5.7179661285,0.400554188
 2,-0.3380802891\C,-5.1093571456,1.5476483156,0.3272404152\C,-4.1978382
 536,1.1845922314,1.5137326094\N,-4.8328502833,0.2803050003,2.468442739
 3\C,-5.8238891592,0.9212892464,3.3143717799\C,-5.3310585899,-0.9026781
 06,1.7703271666\C,-6.2764954819,-0.5600699662,0.606942034\O,-0.1080992
 128,-4.4006859078,-0.5424665708\C,5.8046011253,-3.358769369,2.66195600
 54\H,-1.2189870009,4.8026637014,2.2805494586\H,0.9360460805,4.26395953
 9,3.4165506156\H,1.3177717065,0.9191112054,0.7532323135\H,-2.013701457
 4,3.3184488356,0.444304486\H,3.2463126435,4.0354054067,3.5775592279\H,
 5.2871449167,2.9989377009,4.5899786317\H,5.1943296672,-1.1782089358,3.
 5594798734\H,4.2959270468,-5.1110114717,1.2587697241\H,1.9928575117,-4
 .8646291061,0.3811145664\H,1.8145011039,-0.9728500319,2.1717380542\H,0
 .1072459108,-1.71168475,1.0720651975\H,-0.4914150912,-0.5401020299,-0.
 6147912734\H,-2.4684478548,0.7366290847,-1.2080923627\H,-4.7951063232,
 -2.8706549437,-1.3209846142\H,-2.7656735248,-4.1828312505,-0.733233575
 6\H,-4.8095482367,0.6906690318,-2.1702613232\H,-5.7798247536,-0.771507
 9999,-2.0376964416\H,-4.5519351914,2.1303608841,-0.4159155028\H,-5.922
 2943009,2.1950007066,0.6895128528\H,-3.8934220474,2.0966716229,2.04305
 62355\H,-3.2851702822,0.6987440743,1.1511854786\H,-6.6982394298,1.3431
 865662,2.7880378299\H,-5.3472571546,1.7362807469,3.870336302\H,-6.1962
 197039,0.1920887125,4.0421701465\H,-5.8434318859,-1.5489133348,2.49338
 72052\H,-4.4639095563,-1.4557251465,1.3910114331\H,-7.2095136119,-0.13
 98124872,1.0108220451\H,-6.5523021208,-1.4704640117,0.0630049949\H,5.8
 752710116,-3.3222176085,3.7577027855\H,6.4726343362,-2.5858234978,2.26
 02005278\H,6.2036236065,-4.3267630862,2.3485849811\\Version=EM64L-G09R
 evA.02\State=1-A\HF=-1581.7632162\RMSD=6.798e-09\RMSF=8.265e-06\Dipole
 =0.1347083,2.3508721,1.1052358\Quadrupole=7.9683905,2.7640021,-10.7323
 926,1.6142733,5.3152305,1.7312588\PG=C01 [X(C29H31N7O1)]\\@


  THE LARGE PRINT GIVETH,
  AND THE SMALL PRINT TAKETH AWAY.

                     -- TOM WAITES
 Job cpu time:  0 days 14 hours 17 minutes 10.9 seconds.
 File lengths (MBytes):  RWF=    244 Int=      0 D2E=      0 Chk=     25 Scr=      1
 Normal termination of Gaussian 09 at Tue Mar 10 17:04:36 2020.
