
    -----------------------------------------------------------------------
          Psi4: An Open-Source Ab Initio Electronic Structure Package
                               Psi4 1.3.2 release

                         Git: Rev {HEAD} ecbda83 


    R. M. Parrish, L. A. Burns, D. G. A. Smith, A. C. Simmonett,
    A. E. DePrince III, E. G. Hohenstein, U. Bozkaya, A. Yu. Sokolov,
    R. Di Remigio, R. M. Richard, J. F. Gonthier, A. M. James,
    H. R. McAlexander, A. Kumar, M. Saitow, X. Wang, B. P. Pritchard,
    P. Verma, H. F. Schaefer III, K. Patkowski, R. A. King, E. F. Valeev,
    F. A. Evangelista, J. M. Turney, T. D. Crawford, and C. D. Sherrill,
    J. Chem. Theory Comput. 13(7) pp 3185--3197 (2017).
    (doi: 10.1021/acs.jctc.7b00174)


                         Additional Contributions by
    P. Kraus, H. Kruse, M. H. Lechner, M. C. Schieber, R. A. Shaw,
    A. Alenaizan, R. Galvelis, Z. L. Glick, S. Lehtola, and J. P. Misiewicz

    -----------------------------------------------------------------------


    Psi4 started on: Sunday, 26 April 2020 12:22PM

    Process ID: 24146
    Host:       node36.bme.utexas.edu
    PSIDATADIR: /home/bdw2292/miniconda3/envs/p4env/share/psi4
    Memory:     500.0 MiB
    Threads:    1
    
  ==> Input File <==

--------------------------------------------------------------------------
molecule { 
0 1
 C    0.147055    4.497367   -0.879701
 C    1.495103    4.419899   -0.503393
 C    2.133449    3.166383   -0.434611
 C    1.340940    2.049476   -0.797546
 N    0.053394    2.102956   -1.161705
 C   -0.528462    3.312032   -1.193086
 C    3.568990    2.974296   -0.014037
 C    4.502513    4.000927    0.202871
 C    5.790085    3.587023    0.567663
 N    6.155575    2.315911    0.725034
 C    5.190781    1.398255    0.513966
 N    3.940337    1.693173    0.157182
 N    5.564579    0.078334    0.693048
 C    4.886066   -1.171763    0.453525
 C    5.644360   -2.370016    0.287689
 C    4.931033   -3.553254    0.029726
 C    3.536525   -3.619377   -0.078972
 C    2.801635   -2.444389    0.110809
 C    3.489249   -1.251374    0.383198
 N    1.376784   -2.322036    0.031854
 C    0.397186   -3.209012   -0.353288
 C   -1.011500   -2.664097   -0.515354
 C   -1.298432   -1.333539   -0.867352
 C   -2.619909   -0.888536   -0.941709
 C   -3.704427   -1.749823   -0.689145
 C   -3.404658   -3.095756   -0.401549
 C   -2.085191   -3.549836   -0.322477
 C   -5.146466   -1.239498   -0.762944
 N   -5.406453    0.093874   -0.189584
 C   -5.468721    0.200203    1.283123
 C   -6.897561    0.002616    1.850531
 N   -7.917324    0.893463    1.241749
 C   -8.005562    2.250814    1.794435
 C   -7.837940    0.787520   -0.237768
 C   -6.411172    0.983534   -0.810462
 O    0.628114   -4.393631   -0.544092
 C    7.161797   -2.408601    0.354885
 H   -0.369549    5.451446   -0.926770
 H    2.017883    5.337967   -0.246396
 H    1.772999    1.053712   -0.819010
 H   -1.576280    3.319752   -1.490166
 H    4.291434    5.056699    0.084183
 H    6.592871    4.301798    0.747189
 H    6.548065    0.034782    0.913592
 H    5.481797   -4.482835   -0.108609
 H    3.025566   -4.547872   -0.301399
 H    2.924979   -0.349099    0.551461
 H    1.033958   -1.397522    0.250357
 H   -0.489191   -0.637716   -1.076129
 H   -2.801577    0.154582   -1.196761
 H   -4.212211   -3.806508   -0.228333
 H   -1.868888   -4.590595   -0.093727
 H   -5.465448   -1.170701   -1.811179
 H   -5.785427   -2.003757   -0.300245
 H   -4.583182   -0.742600    1.865433
 H   -5.005134    1.469946    1.645606
 H   -6.908494    0.138424    3.046657
 H   -7.321164   -1.390165    1.559285
 H   -7.086501    2.814426    1.596480
 H   -8.167388    2.208576    2.877739
 H   -8.851788    2.787072    1.349727
 H   -8.607627    1.558998   -0.732829
 H   -8.285899   -0.580616   -0.595533
 H   -6.005740    2.338543   -0.569662
 H   -6.417929    0.809417   -2.182331
 H    7.552050   -2.075906    1.327421
 H    7.604541   -1.762718   -0.408576
 H    7.566208   -3.410318    0.188148
}
memory 20GB
set_num_threads(6)
psi4_io.set_default_path("/scratch/bdw2292")
set freeze_core True
E, wfn = energy('mp2/6-311+G*',return_wfn=True)
oeprop(wfn,"WIBERG_LOWDIN_INDICES")
clean()
--------------------------------------------------------------------------

  Memory set to  18.626 GiB by Python driver.
  Threads set to 6 by Python driver.
    SCF Algorithm Type (re)set to DF.

*** tstart() called on node36.bme.utexas.edu
*** at Sun Apr 26 12:22:50 2020

   => Loading Basis Set <=

    Name: 6-311+G*
    Role: ORBITAL
    Keyword: BASIS
    atoms 1-4, 6-9, 11, 14-19, 21-28, 30-31, 33-35, 37 entry C          line   130 file /home/bdw2292/miniconda3/envs/p4env/share/psi4/basis/6-311pgs.gbs 
    atoms 5, 10, 12-13, 20, 29, 32                     entry N          line   151 file /home/bdw2292/miniconda3/envs/p4env/share/psi4/basis/6-311pgs.gbs 
    atoms 36                                           entry O          line   172 file /home/bdw2292/miniconda3/envs/p4env/share/psi4/basis/6-311pgs.gbs 
    atoms 38-68                                        entry H          line    47 file /home/bdw2292/miniconda3/envs/p4env/share/psi4/basis/6-311pgs.gbs 


         ---------------------------------------------------------
                                   SCF
               by Justin Turney, Rob Parrish, Andy Simmonett
                          and Daniel G. A. Smith
                              RHF Reference
                        6 Threads,  19073 MiB Core
         ---------------------------------------------------------

  ==> Geometry <==

    Molecular point group: c1
    Full point group: C1

    Geometry (in Angstrom), charge = 0, multiplicity = 1:

       Center              X                  Y                   Z               Mass       
    ------------   -----------------  -----------------  -----------------  -----------------
         C            0.045243904970     4.512309268860    -0.866666068042    12.000000000000
         C            1.393291904970     4.434841268860    -0.490358068042    12.000000000000
         C            2.031637904970     3.181325268860    -0.421576068042    12.000000000000
         C            1.239128904970     2.064418268860    -0.784511068042    12.000000000000
         N           -0.048417095030     2.117898268860    -1.148670068042    14.003074004430
         C           -0.630273095030     3.326974268860    -1.180051068042    12.000000000000
         C            3.467178904970     2.989238268860    -0.001002068042    12.000000000000
         C            4.400701904970     4.015869268860     0.215905931958    12.000000000000
         C            5.688273904970     3.601965268860     0.580697931958    12.000000000000
         N            6.053763904970     2.330853268860     0.738068931958    14.003074004430
         C            5.088969904970     1.413197268860     0.527000931958    12.000000000000
         N            3.838525904970     1.708115268860     0.170216931958    14.003074004430
         N            5.462767904970     0.093276268860     0.706082931958    14.003074004430
         C            4.784254904970    -1.156820731140     0.466559931958    12.000000000000
         C            5.542548904970    -2.355073731140     0.300723931958    12.000000000000
         C            4.829221904970    -3.538311731140     0.042760931958    12.000000000000
         C            3.434713904970    -3.604434731140    -0.065937068042    12.000000000000
         C            2.699823904970    -2.429446731140     0.123843931958    12.000000000000
         C            3.387437904970    -1.236431731140     0.396232931958    12.000000000000
         N            1.274972904970    -2.307093731140     0.044888931958    14.003074004430
         C            0.295374904970    -3.194069731140    -0.340253068042    12.000000000000
         C           -1.113311095030    -2.649154731140    -0.502319068042    12.000000000000
         C           -1.400243095030    -1.318596731140    -0.854317068042    12.000000000000
         C           -2.721720095030    -0.873593731140    -0.928674068042    12.000000000000
         C           -3.806238095030    -1.734880731140    -0.676110068042    12.000000000000
         C           -3.506469095030    -3.080813731140    -0.388514068042    12.000000000000
         C           -2.187002095030    -3.534893731140    -0.309442068042    12.000000000000
         C           -5.248277095030    -1.224555731140    -0.749909068042    12.000000000000
         N           -5.508264095030     0.108816268860    -0.176549068042    14.003074004430
         C           -5.570532095030     0.215145268860     1.296157931958    12.000000000000
         C           -6.999372095030     0.017558268860     1.863565931958    12.000000000000
         N           -8.019135095030     0.908405268860     1.254783931958    14.003074004430
         C           -8.107373095030     2.265756268860     1.807469931958    12.000000000000
         C           -7.939751095030     0.802462268860    -0.224733068042    12.000000000000
         C           -6.512983095030     0.998476268860    -0.797427068042    12.000000000000
         O            0.526302904970    -4.378688731140    -0.531057068042    15.994914619570
         C            7.059985904970    -2.393658731140     0.367919931958    12.000000000000
         H           -0.471360095030     5.466388268860    -0.913735068042     1.007825032230
         H            1.916071904970     5.352909268860    -0.233361068042     1.007825032230
         H            1.671187904970     1.068654268860    -0.805975068042     1.007825032230
         H           -1.678091095030     3.334694268860    -1.477131068042     1.007825032230
         H            4.189622904970     5.071641268860     0.097217931958     1.007825032230
         H            6.491059904970     4.316740268860     0.760223931958     1.007825032230
         H            6.446253904970     0.049724268860     0.926626931958     1.007825032230
         H            5.379985904970    -4.467892731140    -0.095574068042     1.007825032230
         H            2.923754904970    -4.532929731140    -0.288364068042     1.007825032230
         H            2.823167904970    -0.334156731140     0.564495931958     1.007825032230
         H            0.932146904970    -1.382579731140     0.263391931958     1.007825032230
         H           -0.591002095030    -0.622773731140    -1.063094068042     1.007825032230
         H           -2.903388095030     0.169524268860    -1.183726068042     1.007825032230
         H           -4.314022095030    -3.791565731140    -0.215298068042     1.007825032230
         H           -1.970699095030    -4.575652731140    -0.080692068042     1.007825032230
         H           -5.567259095030    -1.155758731140    -1.798144068042     1.007825032230
         H           -5.887238095030    -1.988814731140    -0.287210068042     1.007825032230
         H           -4.684993095030    -0.727657731140     1.878467931958     1.007825032230
         H           -5.106945095030     1.484888268860     1.658640931958     1.007825032230
         H           -7.010305095030     0.153366268860     3.059691931958     1.007825032230
         H           -7.422975095030    -1.375222731140     1.572319931958     1.007825032230
         H           -7.188312095030     2.829368268860     1.609514931958     1.007825032230
         H           -8.269199095030     2.223518268860     2.890773931958     1.007825032230
         H           -8.953599095030     2.802014268860     1.362761931958     1.007825032230
         H           -8.709438095030     1.573940268860    -0.719794068042     1.007825032230
         H           -8.387710095030    -0.565673731140    -0.582498068042     1.007825032230
         H           -6.107551095030     2.353485268860    -0.556627068042     1.007825032230
         H           -6.519740095030     0.824359268860    -2.169296068042     1.007825032230
         H            7.450238904970    -2.060963731140     1.340455931958     1.007825032230
         H            7.502729904970    -1.747775731140    -0.395541068042     1.007825032230
         H            7.464396904970    -3.395375731140     0.201182931958     1.007825032230

  Running in c1 symmetry.

  Rotational constants: A =      0.00470  B =      0.00157  C =      0.00123 [cm^-1]
  Rotational constants: A =    140.83263  B =     47.13645  C =     36.92370 [MHz]
  Nuclear repulsion = 3652.911252284635793

  Charge       = 0
  Multiplicity = 1
  Electrons    = 262
  Nalpha       = 131
  Nbeta        = 131

  ==> Algorithm <==

  SCF Algorithm Type is DF.
  DIIS enabled.
  MOM disabled.
  Fractional occupation disabled.
  Guess Type is SAD.
  Energy threshold   = 1.00e-08
  Density threshold  = 1.00e-08
  Integral threshold = 0.00e+00

  ==> Primary Basis <==

  Basis Set: 6-311+G*
    Blend: 6-311+G*
    Number of shells: 463
    Number of basis function: 907
    Number of Cartesian functions: 944
    Spherical Harmonics?: true
    Max angular momentum: 2

   => Loading Basis Set <=

    Name: (6-311+G* AUX)
    Role: JKFIT
    Keyword: DF_BASIS_SCF
    atoms 1-4, 6-9, 11, 14-19, 21-28, 30-31, 33-35, 37 entry C          line   200 file /home/bdw2292/miniconda3/envs/p4env/share/psi4/basis/heavy-aug-cc-pvtz-jkfit.gbs 
    atoms 5, 10, 12-13, 20, 29, 32                     entry N          line   262 file /home/bdw2292/miniconda3/envs/p4env/share/psi4/basis/heavy-aug-cc-pvtz-jkfit.gbs 
    atoms 36                                           entry O          line   324 file /home/bdw2292/miniconda3/envs/p4env/share/psi4/basis/heavy-aug-cc-pvtz-jkfit.gbs 
    atoms 38-68                                        entry H          line   116 file /home/bdw2292/miniconda3/envs/p4env/share/psi4/basis/heavy-aug-cc-pvtz-jkfit.gbs 

  ==> Pre-Iterations <==

   -------------------------------------------------------
    Irrep   Nso     Nmo     Nalpha   Nbeta   Ndocc  Nsocc
   -------------------------------------------------------
     A        907     907       0       0       0       0
   -------------------------------------------------------
    Total     907     907     131     131     131       0
   -------------------------------------------------------

  ==> Integral Setup <==

  ==> DiskDFJK: Density-Fitted J/K Matrices <==

    J tasked:                  Yes
    K tasked:                  Yes
    wK tasked:                  No
    OpenMP threads:              6
    Integrals threads:           6
    Memory [MiB]:            14305
    Algorithm:                Core
    Integral Cache:           NONE
    Schwarz Cutoff:          1E-12
    Fitting Condition:       1E-10

   => Auxiliary Basis Set <=

  Basis Set: (6-311+G* AUX)
    Blend: HEAVY-AUG-CC-PVTZ-JKFIT
    Number of shells: 1420
    Number of basis function: 4778
    Number of Cartesian functions: 5932
    Spherical Harmonics?: true
    Max angular momentum: 4

  Minimum eigenvalue in the overlap matrix is 1.0510997189E-07.
  Using Symmetric Orthogonalization.

  SCF Guess: Superposition of Atomic Densities via on-the-fly atomic UHF.

  ==> Iterations <==

                           Total Energy        Delta E     RMS |[F,P]|

   @DF-RHF iter SAD: -1570.82158180090914   -1.57082e+03   0.00000e+00 
   @DF-RHF iter   1: -1571.28957471508943   -4.67993e-01   1.37313e-03 DIIS
   @DF-RHF iter   2: -1572.04998832625620   -7.60414e-01   7.21672e-04 DIIS
   @DF-RHF iter   3: -1572.23940688172024   -1.89419e-01   1.81404e-04 DIIS
   @DF-RHF iter   4: -1572.25553577310711   -1.61289e-02   7.06095e-05 DIIS
   @DF-RHF iter   5: -1572.25780417658530   -2.26840e-03   1.42906e-05 DIIS
   @DF-RHF iter   6: -1572.25793781752623   -1.33641e-04   6.76336e-06 DIIS
   @DF-RHF iter   7: -1572.25797041207011   -3.25945e-05   2.19796e-06 DIIS
   @DF-RHF iter   8: -1572.25797565904736   -5.24698e-06   8.80842e-07 DIIS
   @DF-RHF iter   9: -1572.25797656939790   -9.10351e-07   3.54909e-07 DIIS
   @DF-RHF iter  10: -1572.25797674500200   -1.75604e-07   1.52539e-07 DIIS
   @DF-RHF iter  11: -1572.25797677993341   -3.49314e-08   7.60141e-08 DIIS
   @DF-RHF iter  12: -1572.25797678922413   -9.29072e-09   2.99513e-08 DIIS
   @DF-RHF iter  13: -1572.25797679106586   -1.84173e-09   1.28750e-08 DIIS
   @DF-RHF iter  14: -1572.25797679132984   -2.63981e-10   6.16586e-09 DIIS
  Energy and wave function converged.


  ==> Post-Iterations <==

    Orbital Energies [Eh]
    ---------------------

    Doubly Occupied:                                                      

       1A    -20.516913     2A    -15.602756     3A    -15.599125  
       4A    -15.584737     5A    -15.572373     6A    -15.570878  
       7A    -15.569773     8A    -15.566324     9A    -11.372940  
      10A    -11.360995    11A    -11.336120    12A    -11.333014  
      13A    -11.329383    14A    -11.317731    15A    -11.316659  
      16A    -11.313246    17A    -11.299873    18A    -11.299705  
      19A    -11.298909    20A    -11.291248    21A    -11.288602  
      22A    -11.278642    23A    -11.275314    24A    -11.264683  
      25A    -11.259940    26A    -11.255182    27A    -11.251906  
      28A    -11.251023    29A    -11.246769    30A    -11.245532  
      31A    -11.244482    32A    -11.241310    33A    -11.238728  
      34A    -11.236534    35A    -11.232971    36A    -11.229784  
      37A    -11.223765    38A     -1.382143    39A     -1.344217  
      40A     -1.276905    41A     -1.252300    42A     -1.248969  
      43A     -1.240165    44A     -1.208477    45A     -1.206904  
      46A     -1.156202    47A     -1.138166    48A     -1.114677  
      49A     -1.073993    50A     -1.056520    51A     -1.046907  
      52A     -1.036087    53A     -1.016173    54A     -1.006539  
      55A     -0.995708    56A     -0.977283    57A     -0.947603  
      58A     -0.930659    59A     -0.925311    60A     -0.899651  
      61A     -0.871453    62A     -0.862776    63A     -0.856813  
      64A     -0.838077    65A     -0.832456    66A     -0.828196  
      67A     -0.824780    68A     -0.802572    69A     -0.775530  
      70A     -0.753169    71A     -0.737444    72A     -0.728102  
      73A     -0.720813    74A     -0.703040    75A     -0.692195  
      76A     -0.681752    77A     -0.667498    78A     -0.665039  
      79A     -0.656735    80A     -0.651553    81A     -0.650570  
      82A     -0.642965    83A     -0.634622    84A     -0.627683  
      85A     -0.625911    86A     -0.619403    87A     -0.611660  
      88A     -0.607407    89A     -0.605450    90A     -0.601565  
      91A     -0.599958    92A     -0.594796    93A     -0.591671  
      94A     -0.587633    95A     -0.584436    96A     -0.579571  
      97A     -0.577734    98A     -0.573559    99A     -0.562244  
     100A     -0.559814   101A     -0.547666   102A     -0.543654  
     103A     -0.543450   104A     -0.529418   105A     -0.521674  
     106A     -0.521457   107A     -0.513444   108A     -0.512360  
     109A     -0.507633   110A     -0.501127   111A     -0.495441  
     112A     -0.490178   113A     -0.483439   114A     -0.475989  
     115A     -0.453338   116A     -0.450285   117A     -0.440940  
     118A     -0.436797   119A     -0.424329   120A     -0.423090  
     121A     -0.412773   122A     -0.410167   123A     -0.398551  
     124A     -0.391301   125A     -0.371706   126A     -0.344553  
     127A     -0.338985   128A     -0.332450   129A     -0.324927  
     130A     -0.312070   131A     -0.288657  

    Virtual:                                                              

     132A      0.044210   133A      0.048089   134A      0.055234  
     135A      0.061923   136A      0.065773   137A      0.068233  
     138A      0.071552   139A      0.073084   140A      0.075149  
     141A      0.080338   142A      0.082170   143A      0.082481  
     144A      0.086163   145A      0.088320   146A      0.089914  
     147A      0.094857   148A      0.096752   149A      0.099863  
     150A      0.100135   151A      0.101344   152A      0.104682  
     153A      0.105580   154A      0.109117   155A      0.110933  
     156A      0.112300   157A      0.116006   158A      0.117869  
     159A      0.118230   160A      0.119631   161A      0.124840  
     162A      0.126487   163A      0.129346   164A      0.133487  
     165A      0.134315   166A      0.136652   167A      0.138088  
     168A      0.140726   169A      0.144360   170A      0.147808  
     171A      0.148093   172A      0.149944   173A      0.152416  
     174A      0.153437   175A      0.156350   176A      0.157891  
     177A      0.160778   178A      0.162860   179A      0.166681  
     180A      0.167314   181A      0.172160   182A      0.177569  
     183A      0.178659   184A      0.181669   185A      0.184103  
     186A      0.185203   187A      0.186070   188A      0.189143  
     189A      0.192565   190A      0.195975   191A      0.199507  
     192A      0.202465   193A      0.204274   194A      0.205978  
     195A      0.209106   196A      0.211765   197A      0.212587  
     198A      0.217170   199A      0.219327   200A      0.221255  
     201A      0.224952   202A      0.226978   203A      0.229338  
     204A      0.232009   205A      0.233414   206A      0.235272  
     207A      0.236519   208A      0.241331   209A      0.245485  
     210A      0.247771   211A      0.249383   212A      0.254975  
     213A      0.257535   214A      0.258769   215A      0.259954  
     216A      0.261538   217A      0.262283   218A      0.266257  
     219A      0.267856   220A      0.270285   221A      0.272524  
     222A      0.276446   223A      0.278520   224A      0.279595  
     225A      0.282065   226A      0.283096   227A      0.285159  
     228A      0.287670   229A      0.290340   230A      0.291135  
     231A      0.292779   232A      0.293995   233A      0.296164  
     234A      0.300121   235A      0.303996   236A      0.305866  
     237A      0.307843   238A      0.309231   239A      0.310912  
     240A      0.312559   241A      0.316733   242A      0.317895  
     243A      0.318416   244A      0.322604   245A      0.324406  
     246A      0.325903   247A      0.326784   248A      0.328900  
     249A      0.329309   250A      0.331190   251A      0.331808  
     252A      0.335478   253A      0.336410   254A      0.341889  
     255A      0.344098   256A      0.345585   257A      0.348690  
     258A      0.350331   259A      0.351034   260A      0.352124  
     261A      0.353192   262A      0.354980   263A      0.355568  
     264A      0.357855   265A      0.361901   266A      0.362396  
     267A      0.362728   268A      0.364522   269A      0.368812  
     270A      0.369067   271A      0.371505   272A      0.373238  
     273A      0.375690   274A      0.378473   275A      0.379347  
     276A      0.380854   277A      0.383402   278A      0.384300  
     279A      0.387083   280A      0.389060   281A      0.390079  
     282A      0.392018   283A      0.392915   284A      0.394290  
     285A      0.397266   286A      0.398485   287A      0.401195  
     288A      0.403693   289A      0.404390   290A      0.405965  
     291A      0.409398   292A      0.412951   293A      0.415039  
     294A      0.417525   295A      0.417921   296A      0.420111  
     297A      0.421921   298A      0.423988   299A      0.426818  
     300A      0.427214   301A      0.430862   302A      0.432855  
     303A      0.433244   304A      0.435693   305A      0.439540  
     306A      0.444258   307A      0.448109   308A      0.449453  
     309A      0.452360   310A      0.453225   311A      0.457424  
     312A      0.459662   313A      0.464022   314A      0.467170  
     315A      0.468394   316A      0.470734   317A      0.473079  
     318A      0.475836   319A      0.477871   320A      0.482115  
     321A      0.484639   322A      0.487137   323A      0.492650  
     324A      0.495335   325A      0.501495   326A      0.503008  
     327A      0.506162   328A      0.510315   329A      0.512218  
     330A      0.518368   331A      0.520260   332A      0.522942  
     333A      0.525019   334A      0.527956   335A      0.535392  
     336A      0.538579   337A      0.542746   338A      0.545172  
     339A      0.550154   340A      0.554738   341A      0.556212  
     342A      0.564515   343A      0.574258   344A      0.576683  
     345A      0.577264   346A      0.587274   347A      0.589634  
     348A      0.593685   349A      0.596676   350A      0.600423  
     351A      0.604521   352A      0.608365   353A      0.616238  
     354A      0.620394   355A      0.625090   356A      0.636039  
     357A      0.647033   358A      0.657480   359A      0.663670  
     360A      0.666668   361A      0.668829   362A      0.670697  
     363A      0.680074   364A      0.682353   365A      0.690114  
     366A      0.697806   367A      0.700796   368A      0.705085  
     369A      0.715721   370A      0.718299   371A      0.722734  
     372A      0.725249   373A      0.727801   374A      0.728752  
     375A      0.734082   376A      0.740092   377A      0.744143  
     378A      0.751433   379A      0.754420   380A      0.756592  
     381A      0.759853   382A      0.760867   383A      0.761237  
     384A      0.766685   385A      0.768974   386A      0.770860  
     387A      0.779353   388A      0.783777   389A      0.790121  
     390A      0.794648   391A      0.798005   392A      0.800384  
     393A      0.802667   394A      0.805236   395A      0.808283  
     396A      0.812652   397A      0.815714   398A      0.823407  
     399A      0.826916   400A      0.827398   401A      0.829517  
     402A      0.833506   403A      0.835439   404A      0.837923  
     405A      0.844331   406A      0.847254   407A      0.851489  
     408A      0.857057   409A      0.859694   410A      0.863015  
     411A      0.865360   412A      0.866911   413A      0.872421  
     414A      0.875617   415A      0.878348   416A      0.884369  
     417A      0.885011   418A      0.889413   419A      0.894778  
     420A      0.897852   421A      0.898288   422A      0.903087  
     423A      0.908523   424A      0.910713   425A      0.912825  
     426A      0.918694   427A      0.918862   428A      0.920096  
     429A      0.925081   430A      0.927087   431A      0.929201  
     432A      0.931488   433A      0.937162   434A      0.940489  
     435A      0.941871   436A      0.942773   437A      0.947171  
     438A      0.949576   439A      0.953647   440A      0.957809  
     441A      0.964516   442A      0.967417   443A      0.967789  
     444A      0.972240   445A      0.974997   446A      0.978746  
     447A      0.983135   448A      0.986069   449A      0.989205  
     450A      0.991285   451A      0.996190   452A      1.001628  
     453A      1.008127   454A      1.015963   455A      1.018826  
     456A      1.025344   457A      1.031380   458A      1.038378  
     459A      1.041317   460A      1.050896   461A      1.053381  
     462A      1.057915   463A      1.061134   464A      1.065856  
     465A      1.069338   466A      1.079032   467A      1.079826  
     468A      1.087425   469A      1.093241   470A      1.099137  
     471A      1.101748   472A      1.103894   473A      1.106737  
     474A      1.111277   475A      1.124227   476A      1.125554  
     477A      1.129159   478A      1.132562   479A      1.135894  
     480A      1.139943   481A      1.141958   482A      1.153292  
     483A      1.153530   484A      1.159768   485A      1.165384  
     486A      1.165798   487A      1.172080   488A      1.177468  
     489A      1.178434   490A      1.182392   491A      1.183656  
     492A      1.185838   493A      1.191022   494A      1.197472  
     495A      1.200534   496A      1.201370   497A      1.207918  
     498A      1.213317   499A      1.218518   500A      1.225343  
     501A      1.229761   502A      1.233536   503A      1.238895  
     504A      1.244706   505A      1.246903   506A      1.254961  
     507A      1.257154   508A      1.262581   509A      1.270725  
     510A      1.274127   511A      1.277290   512A      1.282917  
     513A      1.285825   514A      1.291316   515A      1.293575  
     516A      1.294966   517A      1.300573   518A      1.315301  
     519A      1.321020   520A      1.325875   521A      1.328922  
     522A      1.332880   523A      1.348794   524A      1.352651  
     525A      1.368156   526A      1.378019   527A      1.379492  
     528A      1.381886   529A      1.384615   530A      1.398980  
     531A      1.409713   532A      1.413858   533A      1.429712  
     534A      1.438191   535A      1.441934   536A      1.449461  
     537A      1.454702   538A      1.455686   539A      1.461244  
     540A      1.471913   541A      1.473848   542A      1.482407  
     543A      1.488871   544A      1.489070   545A      1.502745  
     546A      1.506086   547A      1.507908   548A      1.516128  
     549A      1.531471   550A      1.532486   551A      1.536380  
     552A      1.549377   553A      1.559186   554A      1.565446  
     555A      1.569714   556A      1.582918   557A      1.589418  
     558A      1.593537   559A      1.600991   560A      1.610705  
     561A      1.627858   562A      1.631955   563A      1.646612  
     564A      1.655729   565A      1.675047   566A      1.682852  
     567A      1.701521   568A      1.704681   569A      1.725549  
     570A      1.738703   571A      1.745526   572A      1.750480  
     573A      1.760984   574A      1.774612   575A      1.788760  
     576A      1.791765   577A      1.799328   578A      1.804056  
     579A      1.808736   580A      1.812756   581A      1.818481  
     582A      1.820963   583A      1.822089   584A      1.829373  
     585A      1.838399   586A      1.842711   587A      1.846070  
     588A      1.855376   589A      1.857610   590A      1.858558  
     591A      1.861428   592A      1.867361   593A      1.870479  
     594A      1.871710   595A      1.874147   596A      1.875464  
     597A      1.881517   598A      1.889936   599A      1.908539  
     600A      1.927139   601A      1.928422   602A      1.939417  
     603A      1.948986   604A      1.959929   605A      1.964656  
     606A      1.971301   607A      1.974421   608A      1.994158  
     609A      1.997208   610A      2.007453   611A      2.018055  
     612A      2.034117   613A      2.039720   614A      2.041159  
     615A      2.046437   616A      2.048933   617A      2.054965  
     618A      2.066284   619A      2.079080   620A      2.084449  
     621A      2.090207   622A      2.092357   623A      2.094125  
     624A      2.107406   625A      2.114041   626A      2.121094  
     627A      2.129601   628A      2.133208   629A      2.144196  
     630A      2.153679   631A      2.156707   632A      2.177904  
     633A      2.182669   634A      2.186465   635A      2.191009  
     636A      2.196145   637A      2.208385   638A      2.212554  
     639A      2.218790   640A      2.221527   641A      2.226545  
     642A      2.230803   643A      2.238907   644A      2.242134  
     645A      2.245871   646A      2.252688   647A      2.255678  
     648A      2.258982   649A      2.261995   650A      2.272522  
     651A      2.284716   652A      2.291242   653A      2.297027  
     654A      2.301688   655A      2.316069   656A      2.321391  
     657A      2.370485   658A      2.377261   659A      2.380070  
     660A      2.384857   661A      2.403087   662A      2.412267  
     663A      2.437128   664A      2.446163   665A      2.455865  
     666A      2.475088   667A      2.491263   668A      2.504613  
     669A      2.508692   670A      2.516978   671A      2.537910  
     672A      2.542981   673A      2.552666   674A      2.571610  
     675A      2.604685   676A      2.620987   677A      2.639555  
     678A      2.643816   679A      2.650426   680A      2.652337  
     681A      2.658032   682A      2.663105   683A      2.666798  
     684A      2.671300   685A      2.675821   686A      2.680094  
     687A      2.686176   688A      2.690620   689A      2.692089  
     690A      2.705401   691A      2.709874   692A      2.726621  
     693A      2.739188   694A      2.758663   695A      2.769978  
     696A      2.776022   697A      2.779429   698A      2.785692  
     699A      2.788254   700A      2.805768   701A      2.815141  
     702A      2.821560   703A      2.831045   704A      2.855772  
     705A      2.863244   706A      2.872576   707A      2.877639  
     708A      2.884885   709A      2.892357   710A      2.899336  
     711A      2.904589   712A      2.909578   713A      2.912152  
     714A      2.924148   715A      2.936795   716A      2.942863  
     717A      2.958342   718A      2.966050   719A      2.980951  
     720A      2.983348   721A      2.989275   722A      2.997136  
     723A      3.001469   724A      3.018060   725A      3.024953  
     726A      3.035484   727A      3.044184   728A      3.044721  
     729A      3.056825   730A      3.070077   731A      3.071950  
     732A      3.082913   733A      3.089481   734A      3.096580  
     735A      3.101182   736A      3.104537   737A      3.115851  
     738A      3.134136   739A      3.141674   740A      3.152426  
     741A      3.158458   742A      3.163721   743A      3.177097  
     744A      3.181351   745A      3.193598   746A      3.196573  
     747A      3.206119   748A      3.213565   749A      3.228845  
     750A      3.236681   751A      3.241679   752A      3.241945  
     753A      3.263419   754A      3.270278   755A      3.288938  
     756A      3.294357   757A      3.296182   758A      3.305707  
     759A      3.309126   760A      3.317613   761A      3.322784  
     762A      3.338777   763A      3.346337   764A      3.349395  
     765A      3.354113   766A      3.366861   767A      3.368502  
     768A      3.373186   769A      3.376354   770A      3.384355  
     771A      3.386814   772A      3.397073   773A      3.421747  
     774A      3.432757   775A      3.471891   776A      3.476507  
     777A      3.502203   778A      3.506638   779A      3.513098  
     780A      3.559401   781A      3.567808   782A      3.568118  
     783A      3.575346   784A      3.591174   785A      3.594883  
     786A      3.598790   787A      3.631311   788A      3.642955  
     789A      3.646199   790A      3.657381   791A      3.661717  
     792A      3.686667   793A      3.700411   794A      3.703087  
     795A      3.710102   796A      3.719858   797A      3.722318  
     798A      3.740036   799A      3.746821   800A      3.762995  
     801A      3.769224   802A      3.770143   803A      3.774879  
     804A      3.776056   805A      3.783419   806A      3.789868  
     807A      3.812353   808A      3.813480   809A      3.818906  
     810A      3.831799   811A      3.847141   812A      3.856204  
     813A      3.872014   814A      3.884157   815A      3.899783  
     816A      3.909224   817A      3.924760   818A      3.931295  
     819A      3.960219   820A      3.968956   821A      4.026163  
     822A      4.028376   823A      4.049341   824A      4.070081  
     825A      4.085004   826A      4.098829   827A      4.106014  
     828A      4.125208   829A      4.159402   830A      4.184910  
     831A      4.225159   832A      4.293074   833A      4.329186  
     834A      4.361940   835A      4.383927   836A      4.398477  
     837A      4.410503   838A      4.416997   839A      4.418150  
     840A      4.423204   841A      4.443496   842A      4.462933  
     843A      4.483221   844A      4.492777   845A      4.512535  
     846A      4.537811   847A      4.595608   848A      4.635799  
     849A      4.685761   850A      4.759152   851A      4.848572  
     852A      4.873137   853A      4.948240   854A      4.991945  
     855A      5.017633   856A      5.053948   857A      5.086060  
     858A      5.167341   859A      5.196483   860A      5.224305  
     861A      5.243511   862A      5.275899   863A      5.342548  
     864A      5.584915   865A      5.645093   866A      5.688138  
     867A      5.768097   868A      5.826918   869A      5.854374  
     870A      6.382302   871A     24.533372   872A     24.592013  
     873A     24.636727   874A     24.641205   875A     24.682932  
     876A     24.705582   877A     24.780073   878A     24.806367  
     879A     24.811850   880A     24.847218   881A     24.895118  
     882A     24.974011   883A     25.003612   884A     25.009900  
     885A     25.012505   886A     25.024095   887A     25.041442  
     888A     25.058284   889A     25.065447   890A     25.071282  
     891A     25.132157   892A     25.152161   893A     25.173745  
     894A     25.183102   895A     25.194648   896A     25.201866  
     897A     25.204833   898A     25.278515   899A     25.280208  
     900A     36.892579   901A     36.932307   902A     36.971786  
     903A     36.998776   904A     37.044493   905A     37.099473  
     906A     37.142361   907A     51.759573  

    Final Occupation by Irrep:
              A 
    DOCC [   131 ]

  @DF-RHF Final Energy: -1572.25797679132984

   => Energetics <=

    Nuclear Repulsion Energy =           3652.9112522846357933
    One-Electron Energy =               -9404.0786215140851709
    Two-Electron Energy =                4178.9093924381204488
    Total Energy =                      -1572.2579767913293836

Computation Completed


Properties will be evaluated at   0.000000,   0.000000,   0.000000 [a0]

Properties computed using the SCF density matrix

  Nuclear Dipole Moment: [e a0]
     X:   -43.6486      Y:     5.9179      Z:     4.9799

  Electronic Dipole Moment: [e a0]
     X:    43.4866      Y:    -2.7984      Z:    -4.6854

  Dipole Moment: [e a0]
     X:    -0.1619      Y:     3.1195      Z:     0.2945     Total:     3.1375

  Dipole Moment: [D]
     X:    -0.4116      Y:     7.9290      Z:     0.7486     Total:     7.9748


*** tstop() called on node36.bme.utexas.edu at Sun Apr 26 12:39:31 2020
Module time:
	user time   =    5338.97 seconds =      88.98 minutes
	system time =     261.44 seconds =       4.36 minutes
	total time  =       1001 seconds =      16.68 minutes
Total time:
	user time   =    5338.97 seconds =      88.98 minutes
	system time =     261.44 seconds =       4.36 minutes
	total time  =       1001 seconds =      16.68 minutes

*** tstart() called on node36.bme.utexas.edu
*** at Sun Apr 26 12:39:31 2020


  //>>>>>>>>>>>>>>>>>>>>>>>>>>>>>>>>>>>//
  //               DFMP2               //
  //<<<<<<<<<<<<<<<<<<<<<<<<<<<<<<<<<<<//

   => Loading Basis Set <=

    Name: (6-311+G* AUX)
    Role: RIFIT
    Keyword: DF_BASIS_MP2
    atoms 1-4, 6-9, 11, 14-19, 21-28, 30-31, 33-35, 37 entry C          line   148 file /home/bdw2292/miniconda3/envs/p4env/share/psi4/basis/heavy-aug-cc-pvtz-ri.gbs 
    atoms 5, 10, 12-13, 20, 29, 32                     entry N          line   206 file /home/bdw2292/miniconda3/envs/p4env/share/psi4/basis/heavy-aug-cc-pvtz-ri.gbs 
    atoms 36                                           entry O          line   264 file /home/bdw2292/miniconda3/envs/p4env/share/psi4/basis/heavy-aug-cc-pvtz-ri.gbs 
    atoms 38-68                                        entry H          line    44 file /home/bdw2292/miniconda3/envs/p4env/share/psi4/basis/heavy-aug-cc-pvtz-ri.gbs 

	 --------------------------------------------------------
	                          DF-MP2                         
	      2nd-Order Density-Fitted Moller-Plesset Theory     
	              RMP2 Wavefunction,   6 Threads             
	                                                         
	        Rob Parrish, Justin Turney, Andy Simmonett,      
	           Ed Hohenstein, and C. David Sherrill          
	 --------------------------------------------------------

   => Auxiliary Basis Set <=

  Basis Set: (6-311+G* AUX)
    Blend: HEAVY-AUG-CC-PVTZ-RI
    Number of shells: 1346
    Number of basis function: 4852
    Number of Cartesian functions: 6117
    Spherical Harmonics?: true
    Max angular momentum: 4

	 --------------------------------------------------------
	                 NBF =   907, NAUX =  4852
	 --------------------------------------------------------
	   CLASS    FOCC     OCC    AOCC    AVIR     VIR    FVIR
	   PAIRS      37     131      94     776     776       0
	 --------------------------------------------------------

	-----------------------------------------------------------
	 ==================> DF-MP2 Energies <==================== 
	-----------------------------------------------------------
	 Reference Energy          =   -1572.2579767913298383 [Eh]
	 Singles Energy            =      -0.0000000000000000 [Eh]
	 Same-Spin Energy          =      -1.4474762725305337 [Eh]
	 Opposite-Spin Energy      =      -3.8948271031230703 [Eh]
	 Correlation Energy        =      -5.3423033756536036 [Eh]
	 Total Energy              =   -1577.6002801669833389 [Eh]
	-----------------------------------------------------------
	 ================> DF-SCS-MP2 Energies <================== 
	-----------------------------------------------------------
	 SCS Same-Spin Scale       =       0.3333333333333333 [-]
	 SCS Opposite-Spin Scale   =       1.2000000000000000 [-]
	 SCS Same-Spin Energy      =      -0.4824920908435112 [Eh]
	 SCS Opposite-Spin Energy  =      -4.6737925237476841 [Eh]
	 SCS Correlation Energy    =      -5.1562846145911951 [Eh]
	 SCS Total Energy          =   -1577.4142614059210246 [Eh]
	-----------------------------------------------------------


*** tstop() called on node36.bme.utexas.edu at Sun Apr 26 12:48:00 2020
Module time:
	user time   =    2658.99 seconds =      44.32 minutes
	system time =     150.47 seconds =       2.51 minutes
	total time  =        509 seconds =       8.48 minutes
Total time:
	user time   =    7997.97 seconds =     133.30 minutes
	system time =     411.91 seconds =       6.87 minutes
	total time  =       1510 seconds =      25.17 minutes


Properties will be evaluated at   0.000000,   0.000000,   0.000000 [a0]
OEProp: No title given, name of density matrix used for the following properties is 'SCF density'


  Wiberg Bond Indices using Orthogonal Lowdin Orbitals:

  Irrep: 1 Size: 68 x 68

                 1                   2                   3                   4                   5

    1     0.00000000000000     1.50960102207575     0.12970010534200     0.14766827375853     0.12889707180844
    2     1.50960102207575     0.00000000000000     1.42499738833215     0.13159434773141     0.12504660091804
    3     0.12970010534200     1.42499738833215     0.00000000000000     1.38164962709387     0.12249354901800
    4     0.14766827375853     0.13159434773141     1.38164962709387     0.00000000000000     1.68374520251580
    5     0.12889707180844     0.12504660091804     0.12249354901800     1.68374520251580     0.00000000000000
    6     1.51092362401868     0.14355512017605     0.13985582322273     0.15758670931141     1.64647658865998
    7     0.01549770824976     0.10570256861728     1.02707124228275     0.10692933785868     0.01454492479229
    8     0.00397088894581     0.04550735052001     0.10052854852588     0.02481556044907     0.00236594528739
    9     0.00044699228746     0.00510483201918     0.01545120461234     0.00433092952632     0.00073507001717
   10     0.00045223964681     0.00555588858852     0.00601262523781     0.00622238139372     0.00035028768534
   11     0.00094935340745     0.00353893061929     0.01847889307051     0.00746296698367     0.00050217440298
   12     0.00302835044449     0.02273393357402     0.12140531854809     0.06546904811290     0.00436704146140
   13     0.00018188375699     0.00053916752647     0.00173157782624     0.00099155635121     0.00009710145973
   14     0.00004488557129     0.00012593512906     0.00066798124745     0.00163923059563     0.00013362920155
   15     0.00001380248767     0.00003200480278     0.00009546386342     0.00019318227209     0.00002132977407
   16     0.00000405719791     0.00001002276634     0.00006351325505     0.00034537729175     0.00001707878603
   17     0.00001419148903     0.00002434790554     0.00007594290836     0.00034029729792     0.00005093682197
   18     0.00004294673075     0.00007484657004     0.00036280017655     0.00236232350523     0.00025087939221
   19     0.00022604079997     0.00030542238518     0.00238081587533     0.01213401500724     0.00066216651806
   20     0.00008172259451     0.00008821875934     0.00039714096713     0.00376921428233     0.00067960615224
   21     0.00002047453580     0.00002000540859     0.00006743395185     0.00051396380955     0.00026557299872
   22     0.00006589543462     0.00004900035510     0.00006452920111     0.00072505729844     0.00186503469674
   23     0.00062196407690     0.00041665493631     0.00056855013179     0.00819772349509     0.02669477457562
   24     0.00028433415099     0.00027402318261     0.00034644010558     0.00156250390952     0.01197746785335
   25     0.00002333958594     0.00001815854848     0.00002494655518     0.00015049212318     0.00064085350557
   26     0.00001576223239     0.00000766629833     0.00001728851161     0.00018963125757     0.00047635156267
   27     0.00001573643076     0.00000791213024     0.00002066644058     0.00020770008435     0.00058397047705
   28     0.00000868963087     0.00000384273905     0.00000467496188     0.00002990060344     0.00008879595201
   29     0.00001908544811     0.00000392405698     0.00000515796022     0.00001896410532     0.00011212485550
   30     0.00001410437126     0.00001146289218     0.00001753175450     0.00001341716241     0.00005967817698
   31     0.00000516138139     0.00000119445429     0.00000137974230     0.00000226337595     0.00000652331930
   32     0.00000188796171     0.00000043614566     0.00000034060975     0.00000059898907     0.00000207376491
   33     0.00000163549150     0.00000031713251     0.00000023205154     0.00000035880191     0.00000111071783
   34     0.00000464817201     0.00000068084711     0.00000058772304     0.00000154905879     0.00000395505294
   35     0.00002782793066     0.00000920666240     0.00000712729976     0.00001180241320     0.00005394576523
   36     0.00000275151935     0.00000348311998     0.00001785479103     0.00016084280585     0.00005337628175
   37     0.00000389397299     0.00001115381110     0.00004986732989     0.00005602409769     0.00000454472676
   38     0.84227961401345     0.05680244314015     0.00961182918440     0.00272115244620     0.00790138533938
   39     0.05349386508420     0.82980464002331     0.05232211038930     0.00960732339430     0.00126911706596
   40     0.00207440401981     0.00818308976015     0.04935646561473     0.80888066202358     0.06242336412204
   41     0.05480885366618     0.00968944428081     0.00258698765925     0.01283040968202     0.06465246962444
   42     0.00071215904648     0.01031666949032     0.01109636851371     0.00057180135248     0.00016280307680
   43     0.00003737836074     0.00020579657792     0.00109687297598     0.00026252421016     0.00006335833069
   44     0.00001385729921     0.00005052333255     0.00023714759828     0.00004417359146     0.00000607141729
   45     0.00000070493701     0.00000185725217     0.00000897566718     0.00001956350793     0.00000208962170
   46     0.00000131568585     0.00000233215508     0.00000709529870     0.00002238027174     0.00000781404099
   47     0.00005970380387     0.00007462411783     0.00137700725422     0.00528465479485     0.00026872295985
   48     0.00004127252026     0.00002944094939     0.00011265580470     0.00127625605631     0.00032971098514
   49     0.00025189410234     0.00008357857823     0.00016796547983     0.00424089847579     0.00990412452746
   50     0.00003255169244     0.00002189857400     0.00004419962575     0.00014923383185     0.00144690908561
   51     0.00000198607199     0.00000095077341     0.00000295966387     0.00001960283190     0.00002813323773
   52     0.00000222860439     0.00000107612952     0.00000301565887     0.00000848377202     0.00004100515046
   53     0.00000052316787     0.00000041469919     0.00000067452872     0.00000417409702     0.00001684755548
   54     0.00000117973404     0.00000027770979     0.00000064443096     0.00000805569341     0.00000556089072
   55     0.00000145563264     0.00000065284995     0.00000050074787     0.00000162162780     0.00001287885830
   56     0.00000318246508     0.00000049842670     0.00000034943177     0.00000088095970     0.00000195786941
   57     0.00000010713252     0.00000003963415     0.00000005853787     0.00000007555363     0.00000081587098
   58     0.00000475722233     0.00000059272329     0.00000036073235     0.00000102439460     0.00000305538189
   59     0.00000062530806     0.00000004476905     0.00000002726289     0.00000004262794     0.00000021269196
   60     0.00000014664477     0.00000005520013     0.00000003235717     0.00000003405018     0.00000013654052
   61     0.00000011895112     0.00000002208310     0.00000002073092     0.00000003258313     0.00000015744553
   62     0.00000013782362     0.00000007172474     0.00000005642500     0.00000011823554     0.00000048088764
   63     0.00000433242902     0.00000039612115     0.00000035014851     0.00000036189539     0.00000196356099
   64     0.00000246861012     0.00000049043076     0.00000041074851     0.00000069220680     0.00000316411262
   65     0.00000097397564     0.00000012011131     0.00000010030751     0.00000049079922     0.00000215997208
   66     0.00000079746604     0.00000157540759     0.00001104883012     0.00000876156037     0.00000066884069
   67     0.00000068984360     0.00000142932180     0.00000598457532     0.00000937797253     0.00000049780119
   68     0.00000033910522     0.00000072055853     0.00000400006274     0.00000896155589     0.00000043613477

                 6                   7                   8                   9                  10

    1     1.51092362401868     0.01549770824976     0.00397088894581     0.00044699228746     0.00045223964681
    2     0.14355512017605     0.10570256861728     0.04550735052001     0.00510483201918     0.00555588858852
    3     0.13985582322273     1.02707124228275     0.10052854852588     0.01545120461234     0.00601262523781
    4     0.15758670931141     0.10692933785868     0.02481556044907     0.00433092952632     0.00622238139372
    5     1.64647658865998     0.01454492479229     0.00236594528739     0.00073507001717     0.00035028768534
    6     0.00000000000000     0.01023001781606     0.00725005210045     0.00128397030274     0.00342759814079
    7     0.01023001781606     0.00000000000000     1.40906830788166     0.15004415752239     0.11288935074864
    8     0.00725005210045     1.40906830788166     0.00000000000000     1.47542306445900     0.13560449188453
    9     0.00128397030274     0.15004415752239     1.47542306445900     0.00000000000000     1.68143560429470
   10     0.00342759814079     0.11288935074864     0.13560449188453     1.68143560429470     0.00000000000000
   11     0.00092205704430     0.14257956075005     0.11671381797921     0.15500238879786     1.51554512859805
   12     0.00634623714830     1.53632226419254     0.12947213821142     0.11388703862787     0.11139978709600
   13     0.00008871162439     0.02002606075561     0.02225297390971     0.02523222391009     0.16522010311211
   14     0.00006212866692     0.00321932954854     0.00265189566220     0.00344201779738     0.01744877864043
   15     0.00000963651666     0.00056843313749     0.00152826165015     0.00100127776043     0.00332099261488
   16     0.00000635755505     0.00020475175771     0.00021410693727     0.00018729948660     0.00053131811580
   17     0.00000880505755     0.00028621026749     0.00135105020508     0.00046180306117     0.00130841154920
   18     0.00006042005692     0.00063627617868     0.00029713967549     0.00017117241477     0.00047203760002
   19     0.00024709746584     0.00641919259110     0.00339600916150     0.00169827869195     0.00461464670554
   20     0.00008878142960     0.00014753371540     0.00003514063781     0.00002384721981     0.00006928300826
   21     0.00003920768721     0.00002814509200     0.00001101605152     0.00000770854808     0.00001978441828
   22     0.00020612017508     0.00001235770879     0.00000495935861     0.00000256963493     0.00000482566304
   23     0.00272259451964     0.00009268910360     0.00002661531092     0.00000828715907     0.00000545489013
   24     0.00323808722283     0.00003979878715     0.00002510085956     0.00000426464918     0.00000396513846
   25     0.00028101868521     0.00000494787368     0.00000307999419     0.00000060072020     0.00000072490318
   26     0.00016194055695     0.00000313571813     0.00000097636318     0.00000039716199     0.00000053174016
   27     0.00014354154383     0.00000490157652     0.00000200619976     0.00000085355240     0.00000140139543
   28     0.00006969361700     0.00000156989552     0.00000053654771     0.00000012367276     0.00000012669697
   29     0.00008169336294     0.00000145741806     0.00000089476272     0.00000010060806     0.00000011180115
   30     0.00007625195764     0.00000134877597     0.00000166214148     0.00000024627324     0.00000081731060
   31     0.00007450757809     0.00000022751321     0.00000009412022     0.00000002569978     0.00000001915818
   32     0.00001490704076     0.00000009616479     0.00000003711362     0.00000001082972     0.00000000781438
   33     0.00002133950942     0.00000007001199     0.00000003148965     0.00000000686567     0.00000000746746
   34     0.00009390617680     0.00000033725104     0.00000015438732     0.00000004036210     0.00000001191069
   35     0.00012864248061     0.00000252060036     0.00000084614440     0.00000014411979     0.00000031406504
   36     0.00001211801340     0.00001477365865     0.00000920001800     0.00000538885667     0.00001275418027
   37     0.00000339407490     0.00018564216186     0.00017318119520     0.00016463536343     0.00085224876911
   38     0.05964697695248     0.00092550980247     0.00017169092782     0.00003376195894     0.00001767176189
   39     0.00970915273413     0.01302659442337     0.01079791977420     0.00073899397660     0.00018720794137
   40     0.01187168591188     0.01220700814204     0.00075287904585     0.00020226041616     0.00023087626164
   41     0.83954266176498     0.00033714128361     0.00007905751923     0.00002601415651     0.00001159163659
   42     0.00020625457864     0.05554373599693     0.82763131458702     0.05772329648298     0.00715013192965
   43     0.00003565883645     0.00944462146525     0.05381484362320     0.83811844239472     0.06622734454226
   44     0.00000446328208     0.00115449726704     0.00062195861836     0.00197536415116     0.01812089997094
   45     0.00000068594607     0.00001903750837     0.00000929219767     0.00002435314347     0.00005340571388
   46     0.00000165588003     0.00001796427132     0.00000649463864     0.00000528310730     0.00001290467183
   47     0.00008141595898     0.00279283826308     0.00041547302702     0.00023929049753     0.00021920082785
   48     0.00003129787457     0.00004455307781     0.00000987892787     0.00000277308983     0.00001152375662
   49     0.00102908423207     0.00002353134629     0.00000717503895     0.00000180570730     0.00000146743734
   50     0.00124281106838     0.00000471200282     0.00000246017895     0.00000041680403     0.00000043337637
   51     0.00000511632051     0.00000039800083     0.00000017486004     0.00000005467463     0.00000004444055
   52     0.00001544975737     0.00000113816696     0.00000024279855     0.00000010250621     0.00000013946827
   53     0.00000433856876     0.00000029927720     0.00000009048208     0.00000001159650     0.00000001225649
   54     0.00000595993090     0.00000018200017     0.00000006800840     0.00000002051579     0.00000001554913
   55     0.00001452584725     0.00000012076198     0.00000002897658     0.00000001280947     0.00000001016343
   56     0.00002072010128     0.00000005148166     0.00000004340192     0.00000000749358     0.00000001651404
   57     0.00000069922169     0.00000000879469     0.00000001384325     0.00000000335971     0.00000000264033
   58     0.00006156875027     0.00000003449361     0.00000004800416     0.00000001099594     0.00000000433816
   59     0.00000461529254     0.00000000588681     0.00000000672233     0.00000000113362     0.00000000056898
   60     0.00000241851375     0.00000001080121     0.00000000373228     0.00000000030174     0.00000000045486
   61     0.00000257617341     0.00000001588991     0.00000000238748     0.00000000088157     0.00000000042122
   62     0.00000063616462     0.00000002943914     0.00000000805206     0.00000000132651     0.00000000214634
   63     0.00008204035427     0.00000020848015     0.00000005762300     0.00000001359159     0.00000000486402
   64     0.00004206917239     0.00000006133566     0.00000003211691     0.00000001039157     0.00000001011420
   65     0.00001489759479     0.00000013667496     0.00000003773827     0.00000000579497     0.00000000263842
   66     0.00000031788048     0.00003532357681     0.00005797275255     0.00001876056961     0.00010441843350
   67     0.00000037861900     0.00002577080770     0.00009388360325     0.00001635596925     0.00015123198728
   68     0.00000021625367     0.00001445455090     0.00000566841122     0.00000350533341     0.00003264931821

                11                  12                  13                  14                  15

    1     0.00094935340745     0.00302835044449     0.00018188375699     0.00004488557129     0.00001380248767
    2     0.00353893061929     0.02273393357402     0.00053916752647     0.00012593512906     0.00003200480278
    3     0.01847889307051     0.12140531854809     0.00173157782624     0.00066798124745     0.00009546386342
    4     0.00746296698367     0.06546904811290     0.00099155635121     0.00163923059563     0.00019318227209
    5     0.00050217440298     0.00436704146140     0.00009710145973     0.00013362920155     0.00002132977407
    6     0.00092205704430     0.00634623714830     0.00008871162439     0.00006212866692     0.00000963651666
    7     0.14257956075005     1.53632226419254     0.02002606075561     0.00321932954854     0.00056843313749
    8     0.11671381797921     0.12947213821142     0.02225297390971     0.00265189566220     0.00152826165015
    9     0.15500238879786     0.11388703862787     0.02523222391009     0.00344201779738     0.00100127776043
   10     1.51554512859805     0.11139978709600     0.16522010311211     0.01744877864043     0.00332099261488
   11     0.00000000000000     1.53691823457055     1.30270217774256     0.08553857109306     0.01845281570477
   12     1.53691823457055     0.00000000000000     0.14520122998926     0.03139615887917     0.00381111518982
   13     1.30270217774256     0.14520122998926     0.00000000000000     1.14776796171857     0.10858356707662
   14     0.08553857109306     0.03139615887917     1.14776796171857     0.00000000000000     1.32720380999077
   15     0.01845281570477     0.00381111518982     0.10858356707662     1.32720380999077     0.00000000000000
   16     0.00257097476788     0.00135382406947     0.01505382685599     0.12888520318138     1.46709188196283
   17     0.00434907089064     0.00262000447285     0.01271131060599     0.12392272422808     0.12841602992839
   18     0.00271793153937     0.00539029861705     0.01375025427953     0.12568747334491     0.12149413386583
   19     0.03054564590569     0.05906152860626     0.11407048186408     1.42807148954676     0.12215251227885
   20     0.00039493362079     0.00111019417056     0.00140665580586     0.01597430352371     0.01207024360216
   21     0.00008180821484     0.00014837679181     0.00033771841716     0.00292654012232     0.00582491947944
   22     0.00001775068848     0.00002623873354     0.00006771739561     0.00041376289868     0.00034926566481
   23     0.00001874878856     0.00010920049108     0.00001883783347     0.00014105301809     0.00038544861937
   24     0.00000411059607     0.00001729021143     0.00000423663632     0.00001773749632     0.00004078384774
   25     0.00000129000960     0.00000310652887     0.00000242820722     0.00002737067679     0.00018031367042
   26     0.00000121482351     0.00000144857381     0.00000320505990     0.00002375407650     0.00003929379494
   27     0.00000534553456     0.00000622938344     0.00001636952604     0.00011855094226     0.00035643913564
   28     0.00000029072338     0.00000072831554     0.00000038138966     0.00000320543406     0.00001199132306
   29     0.00000019442832     0.00000041027202     0.00000014663520     0.00000130731111     0.00000453028134
   30     0.00000017491002     0.00000069747145     0.00000017262853     0.00000079828015     0.00000269602724
   31     0.00000003457240     0.00000008574862     0.00000004013843     0.00000019873330     0.00000030267073
   32     0.00000001784223     0.00000003599644     0.00000001026298     0.00000006106095     0.00000020246155
   33     0.00000000771587     0.00000002071923     0.00000000644774     0.00000002639961     0.00000003955827
   34     0.00000003221726     0.00000007493091     0.00000002360924     0.00000011158740     0.00000022063461
   35     0.00000012912409     0.00000045442267     0.00000007661672     0.00000035418906     0.00000101098499
   36     0.00005200316818     0.00006948399561     0.00017056744861     0.00109298142538     0.00346708223187
   37     0.00431214456549     0.00096764546390     0.04274730823245     0.10152449268354     1.11510786753547
   38     0.00007177083842     0.00024949381535     0.00001172939893     0.00000790389204     0.00000090430490
   39     0.00014689057446     0.00037496920533     0.00005201441630     0.00002298845705     0.00000467561288
   40     0.00184952952263     0.01794093688065     0.00022763757145     0.00082839236345     0.00007880242981
   41     0.00002597586924     0.00009247334903     0.00000427015629     0.00000383006502     0.00000073151041
   42     0.00286240381583     0.00761241609989     0.00030641571263     0.00004581328168     0.00001450653576
   43     0.01302943070316     0.00139416576831     0.00080482804416     0.00029518569925     0.00004471461882
   44     0.04495019910214     0.00622234003198     0.79228299420635     0.03748430238103     0.00966995904568
   45     0.00033142570668     0.00004250456597     0.00088541206792     0.00939378825057     0.05412803118165
   46     0.00003964370210     0.00009542534030     0.00014278302334     0.00216201554273     0.00828634082322
   47     0.00721473205093     0.02492753473784     0.01192239770102     0.05064064872479     0.00744808492873
   48     0.00006467866543     0.00044763046309     0.00007701159308     0.00123050994578     0.00033714800188
   49     0.00000318464339     0.00002590159307     0.00000275980363     0.00001410810497     0.00007679102235
   50     0.00000060998313     0.00000214954721     0.00000030880848     0.00000159626776     0.00000065855814
   51     0.00000016972514     0.00000009959746     0.00000056680816     0.00000320498082     0.00000250632370
   52     0.00000063715152     0.00000062508802     0.00000126054550     0.00001142853183     0.00000758258456
   53     0.00000005729116     0.00000009640650     0.00000008234409     0.00000106562962     0.00000826130478
   54     0.00000004532995     0.00000006104247     0.00000005776193     0.00000037399234     0.00000088110833
   55     0.00000002188741     0.00000009838129     0.00000001924397     0.00000017186285     0.00000066610358
   56     0.00000000459221     0.00000002692334     0.00000000500170     0.00000001835834     0.00000004184046
   57     0.00000000187872     0.00000000525581     0.00000000287810     0.00000002145057     0.00000002425621
   58     0.00000000678680     0.00000001199470     0.00000000810484     0.00000004512719     0.00000003458462
   59     0.00000000084591     0.00000000415214     0.00000000148619     0.00000000296833     0.00000001981355
   60     0.00000000126604     0.00000000344498     0.00000000058266     0.00000000270775     0.00000000271995
   61     0.00000000085081     0.00000000255677     0.00000000032658     0.00000000113763     0.00000000730933
   62     0.00000000177423     0.00000000617597     0.00000000190778     0.00000000424932     0.00000001678336
   63     0.00000000946435     0.00000004046267     0.00000000696672     0.00000003978873     0.00000003784025
   64     0.00000000471470     0.00000002494365     0.00000000425897     0.00000003355942     0.00000002202278
   65     0.00000000526735     0.00000001361217     0.00000000407855     0.00000003011873     0.00000013627812
   66     0.00067723453394     0.00019453779786     0.00749684103403     0.01392197716886     0.04144271115524
   67     0.00076787364572     0.00021229058718     0.00762777760771     0.01379866325224     0.04197793918865
   68     0.00019290578800     0.00006067888223     0.00163163337148     0.00681577603170     0.04512437424813

                16                  17                  18                  19                  20

    1     0.00000405719791     0.00001419148903     0.00004294673075     0.00022604079997     0.00008172259451
    2     0.00001002276634     0.00002434790554     0.00007484657004     0.00030542238518     0.00008821875934
    3     0.00006351325505     0.00007594290836     0.00036280017655     0.00238081587533     0.00039714096713
    4     0.00034537729175     0.00034029729792     0.00236232350523     0.01213401500724     0.00376921428233
    5     0.00001707878603     0.00005093682197     0.00025087939221     0.00066216651806     0.00067960615224
    6     0.00000635755505     0.00000880505755     0.00006042005692     0.00024709746584     0.00008878142960
    7     0.00020475175771     0.00028621026749     0.00063627617868     0.00641919259110     0.00014753371540
    8     0.00021410693727     0.00135105020508     0.00029713967549     0.00339600916150     0.00003514063781
    9     0.00018729948660     0.00046180306117     0.00017117241477     0.00169827869195     0.00002384721981
   10     0.00053131811580     0.00130841154920     0.00047203760002     0.00461464670554     0.00006928300826
   11     0.00257097476788     0.00434907089064     0.00271793153937     0.03054564590569     0.00039493362079
   12     0.00135382406947     0.00262000447285     0.00539029861705     0.05906152860626     0.00111019417056
   13     0.01505382685599     0.01271131060599     0.01375025427953     0.11407048186408     0.00140665580586
   14     0.12888520318138     0.12392272422808     0.12568747334491     1.42807148954676     0.01597430352371
   15     1.46709188196283     0.12841602992839     0.12149413386583     0.12215251227885     0.01207024360216
   16     0.00000000000000     1.49011473396464     0.13687776554249     0.13247327487868     0.01459559667335
   17     1.49011473396464     0.00000000000000     1.42367534840615     0.12545733489313     0.10818649299349
   18     0.13687776554249     1.42367534840615     0.00000000000000     1.38775927645266     1.15228759488502
   19     0.13247327487868     0.12545733489313     1.38775927645266     0.00000000000000     0.13126349787964
   20     0.01459559667335     0.10818649299349     1.15228759488502     0.13126349787964     0.00000000000000
   21     0.00301025095668     0.03297024841921     0.08870532826642     0.02362384593343     1.34103548773616
   22     0.00042232987306     0.00356105337514     0.01523263646245     0.00232477315738     0.10658601108579
   23     0.00019026985531     0.00140092516588     0.00445715736496     0.00149237909732     0.04694571038537
   24     0.00003099945729     0.00020385963987     0.00048492061437     0.00015934754098     0.00406530695653
   25     0.00003225154184     0.00030310919785     0.00045297885818     0.00026604649598     0.00371569640068
   26     0.00002833729782     0.00016847654676     0.00057318827016     0.00012987809265     0.00278716940243
   27     0.00013168595519     0.00102801641364     0.00247455204677     0.00079209869703     0.01881034829013
   28     0.00000369460361     0.00002879616079     0.00004944612188     0.00002284813109     0.00030319831565
   29     0.00000148642558     0.00000959096789     0.00001752635280     0.00000854396086     0.00010495292351
   30     0.00000085803351     0.00000584114644     0.00000891381391     0.00000509345637     0.00005118745309
   31     0.00000019741112     0.00000107474266     0.00000220544690     0.00000089558316     0.00000864567382
   32     0.00000006052394     0.00000042769901     0.00000125449623     0.00000046868151     0.00000303009099
   33     0.00000003739783     0.00000022140840     0.00000028166036     0.00000011467379     0.00000062969036
   34     0.00000017275042     0.00000086467075     0.00000218598533     0.00000074140965     0.00000583513023
   35     0.00000048139005     0.00000273090596     0.00000544241011     0.00000231547191     0.00002337184558
   36     0.00366681608932     0.05096726194089     0.03249133686295     0.00554160050991     0.19643769787367
   37     0.12231120563832     0.01586679858926     0.00766023254018     0.01538693466752     0.00082084945321
   38     0.00000059797229     0.00000096560872     0.00000767388719     0.00002478389682     0.00000695347338
   39     0.00000181215166     0.00000234923636     0.00000502852530     0.00002898414490     0.00000659738406
   40     0.00018194937765     0.00014807873049     0.00147447027147     0.00603004349011     0.00146358791281
   41     0.00000069150148     0.00000127294924     0.00000308781811     0.00001261614576     0.00000569749409
   42     0.00000614426649     0.00000562546754     0.00002468737525     0.00012605384092     0.00000805832131
   43     0.00001131210321     0.00000551962920     0.00001324780574     0.00007312367394     0.00000124338831
   44     0.00066367083912     0.00029967498657     0.00076187592692     0.00655525693396     0.00018392738872
   45     0.83165581130833     0.05592602028869     0.00975518178047     0.00229331102515     0.00072546854895
   46     0.05502109821675     0.81147814852563     0.05437956347002     0.00891651257560     0.01064043096910
   47     0.00222849017674     0.00807889049773     0.05134279063471     0.79001215214820     0.01940080397251
   48     0.00072358711255     0.00602620176653     0.03917301702095     0.01522432709454     0.79736396158893
   49     0.00003004272669     0.00024019409424     0.00117839725948     0.00044510196319     0.01275012865939
   50     0.00000182454441     0.00000938044842     0.00002145014959     0.00000652234426     0.00010650428202
   51     0.00000259415164     0.00001621204175     0.00005815556677     0.00001738547622     0.00023949687831
   52     0.00002184947920     0.00010301069478     0.00012709348223     0.00004510797011     0.00055128515776
   53     0.00000108510609     0.00001204399107     0.00001425493534     0.00001031159589     0.00011271836781
   54     0.00000069063716     0.00000307749640     0.00001211974763     0.00000309371478     0.00006520222719
   55     0.00000018355766     0.00000119893600     0.00000132114629     0.00000096624953     0.00001316936431
   56     0.00000001481672     0.00000013030361     0.00000011992401     0.00000010283336     0.00000069673184
   57     0.00000000477014     0.00000004067285     0.00000007602330     0.00000006830390     0.00000036068821
   58     0.00000001338105     0.00000013883474     0.00000060967620     0.00000008496721     0.00000110858911
   59     0.00000000515318     0.00000006501216     0.00000004036469     0.00000003540672     0.00000031815869
   60     0.00000000300072     0.00000000705667     0.00000001957953     0.00000002158032     0.00000007983432
   61     0.00000000813442     0.00000001763829     0.00000004034691     0.00000001981174     0.00000009455037
   62     0.00000002642430     0.00000005646405     0.00000009988246     0.00000002647277     0.00000027913053
   63     0.00000004909260     0.00000025680643     0.00000058773732     0.00000018339879     0.00000063400511
   64     0.00000004335845     0.00000020245911     0.00000028451479     0.00000012562472     0.00000060488507
   65     0.00000002952165     0.00000025961506     0.00000060244671     0.00000020492587     0.00000204836692
   66     0.01267498796767     0.00085257766509     0.00279856157400     0.00079976267406     0.00036826894649
   67     0.01281857076754     0.00082410844527     0.00273220794140     0.00086677474231     0.00033862275869
   68     0.01943357133398     0.00141635124277     0.00033541610417     0.00073025068736     0.00006810185504

                21                  22                  23                  24                  25

    1     0.00002047453580     0.00006589543462     0.00062196407690     0.00028433415099     0.00002333958594
    2     0.00002000540859     0.00004900035510     0.00041665493631     0.00027402318261     0.00001815854848
    3     0.00006743395185     0.00006452920111     0.00056855013179     0.00034644010558     0.00002494655518
    4     0.00051396380955     0.00072505729844     0.00819772349509     0.00156250390952     0.00015049212318
    5     0.00026557299872     0.00186503469674     0.02669477457562     0.01197746785335     0.00064085350557
    6     0.00003920768721     0.00020612017508     0.00272259451964     0.00323808722283     0.00028101868521
    7     0.00002814509200     0.00001235770879     0.00009268910360     0.00003979878715     0.00000494787368
    8     0.00001101605152     0.00000495935861     0.00002661531092     0.00002510085956     0.00000307999419
    9     0.00000770854808     0.00000256963493     0.00000828715907     0.00000426464918     0.00000060072020
   10     0.00001978441828     0.00000482566304     0.00000545489013     0.00000396513846     0.00000072490318
   11     0.00008180821484     0.00001775068848     0.00001874878856     0.00000411059607     0.00000129000960
   12     0.00014837679181     0.00002623873354     0.00010920049108     0.00001729021143     0.00000310652887
   13     0.00033771841716     0.00006771739561     0.00001883783347     0.00000423663632     0.00000242820722
   14     0.00292654012232     0.00041376289868     0.00014105301809     0.00001773749632     0.00002737067679
   15     0.00582491947944     0.00034926566481     0.00038544861937     0.00004078384774     0.00018031367042
   16     0.00301025095668     0.00042232987306     0.00019026985531     0.00003099945729     0.00003225154184
   17     0.03297024841921     0.00356105337514     0.00140092516588     0.00020385963987     0.00030310919785
   18     0.08870532826642     0.01523263646245     0.00445715736496     0.00048492061437     0.00045297885818
   19     0.02362384593343     0.00232477315738     0.00149237909732     0.00015934754098     0.00026604649598
   20     1.34103548773616     0.10658601108579     0.04694571038537     0.00406530695653     0.00371569640068
   21     0.00000000000000     0.98380872618456     0.10698426592880     0.01542095363968     0.01193234595650
   22     0.98380872618456     0.00000000000000     1.41985158414886     0.13229750343690     0.12580407591459
   23     0.10698426592880     1.41985158414886     0.00000000000000     1.51438089991813     0.13103189194091
   24     0.01542095363968     0.13229750343690     1.51438089991813     0.00000000000000     1.42665418649343
   25     0.01193234595650     0.12580407591459     0.13103189194091     1.42665418649343     0.00000000000000
   26     0.01578257568983     0.12997882360645     0.13651185863182     0.12977160959915     1.43457255319477
   27     0.11457332856418     1.41186687841450     0.12753577337271     0.13956354022334     0.13119643414808
   28     0.00081805383895     0.00855283630126     0.01570875025337     0.10721466300407     1.05821798431752
   29     0.00027872024536     0.00253705056719     0.00387661253366     0.04194657835166     0.09061966585447
   30     0.00014113446300     0.00141313250553     0.00213992786760     0.01857032423116     0.03384121569050
   31     0.00002112038348     0.00018543053866     0.00031162656011     0.00201479542589     0.00558289797075
   32     0.00000830510909     0.00008124213497     0.00011881672268     0.00063423526049     0.00127772753363
   33     0.00000292821377     0.00001918655620     0.00002789324433     0.00016684252779     0.00037005207443
   34     0.00001961046374     0.00010589993633     0.00019200649456     0.00125754419921     0.00336343010861
   35     0.00006463364941     0.00047969160086     0.00064821535258     0.00671264207662     0.01554923260683
   36     2.17668678767768     0.13770715208363     0.02583689104603     0.00342671491495     0.00666092330686
   37     0.00034357397256     0.00004573269759     0.00003098604714     0.00000417321975     0.00000958466291
   38     0.00000286344832     0.00000512515740     0.00003128995298     0.00001101332262     0.00000128264734
   39     0.00000124268598     0.00000273629328     0.00002234940439     0.00001455702578     0.00000189574077
   40     0.00020797490166     0.00011284585250     0.00091692595706     0.00007625338383     0.00001895892187
   41     0.00000146971209     0.00000926384462     0.00009120397975     0.00023960462021     0.00001288437443
   42     0.00000192423648     0.00000086836453     0.00000760484929     0.00000241571142     0.00000018945922
   43     0.00000086386189     0.00000036152498     0.00000198168958     0.00000091574018     0.00000003413874
   44     0.00004589235191     0.00001143581342     0.00000350792393     0.00000070126464     0.00000061246071
   45     0.00017311049446     0.00004155269498     0.00003776092011     0.00000547249271     0.00000194074446
   46     0.00704346271889     0.00041167581887     0.00010850230416     0.00003347549480     0.00001897891706
   47     0.00165052801223     0.00017813347106     0.00021621139181     0.00001274184830     0.00000810867489
   48     0.04554946305458     0.01124062740591     0.01040784309036     0.00102619598782     0.00035748249374
   49     0.01309049911542     0.05323970608913     0.81240843894973     0.05378221594541     0.00851142264526
   50     0.00093449206729     0.00908312716501     0.05557406203891     0.81615612585694     0.05295421512962
   51     0.00095528312477     0.00932812589151     0.00229714823158     0.00981021957251     0.05462712892505
   52     0.01590581426562     0.05260576638163     0.00907324419215     0.00209360347373     0.00881004045653
   53     0.00032366880572     0.00308859507544     0.00081098647543     0.01337329701559     0.03740070358668
   54     0.00013274476357     0.00079932616399     0.00082950003724     0.00665246841748     0.04282501866088
   55     0.00002412100182     0.00049795520032     0.00070751166251     0.00513218273688     0.01251012393388
   56     0.00000320029119     0.00002428607048     0.00002960730137     0.00068071210510     0.00112920980828
   57     0.00000117634326     0.00000798604579     0.00001520475707     0.00008230446713     0.00014982556718
   58     0.00000413513737     0.00002449222914     0.00004352794155     0.00029148156945     0.00122278325019
   59     0.00000072517266     0.00000748524481     0.00000267896600     0.00003545354855     0.00004026329503
   60     0.00000031810528     0.00000153265407     0.00000259166025     0.00001662045869     0.00002201543221
   61     0.00000032527165     0.00000194983706     0.00000549972695     0.00002684508814     0.00002446012686
[...]
   15     0.00000004184046     0.00000002425621     0.00000003458462     0.00000001981355     0.00000000271995
   16     0.00000001481672     0.00000000477014     0.00000001338105     0.00000000515318     0.00000000300072
   17     0.00000013030361     0.00000004067285     0.00000013883474     0.00000006501216     0.00000000705667
   18     0.00000011992401     0.00000007602330     0.00000060967620     0.00000004036469     0.00000001957953
   19     0.00000010283336     0.00000006830390     0.00000008496721     0.00000003540672     0.00000002158032
   20     0.00000069673184     0.00000036068821     0.00000110858911     0.00000031815869     0.00000007983432
   21     0.00000320029119     0.00000117634326     0.00000413513737     0.00000072517266     0.00000031810528
   22     0.00002428607048     0.00000798604579     0.00002449222914     0.00000748524481     0.00000153265407
   23     0.00002960730137     0.00001520475707     0.00004352794155     0.00000267896600     0.00000259166025
   24     0.00068071210510     0.00008230446713     0.00029148156945     0.00003545354855     0.00001662045869
   25     0.00112920980828     0.00014982556718     0.00122278325019     0.00004026329503     0.00002201543221
   26     0.00015108956453     0.00004856168718     0.00022128875593     0.00003272923336     0.00001411742666
   27     0.00004366483736     0.00000592677499     0.00001229802466     0.00000309892676     0.00000207137918
   28     0.01122886365773     0.00082934286721     0.01196291393375     0.00023043567158     0.00007443076408
   29     0.05635321695864     0.00873048993357     0.01225648328275     0.00114961531000     0.00011446619535
   30     0.79866440827402     0.04411665757729     0.04260404270957     0.00821067986812     0.00228134843912
   31     0.03994587422279     0.84786380944638     0.79101829737143     0.01313542533662     0.01439556933384
   32     0.01066391078417     0.04378987721881     0.05695639107393     0.04891985218031     0.04786598237838
   33     0.01110140631978     0.01655009097496     0.01219026662326     0.89161383996519     0.90324113152443
   34     0.00649718511574     0.01110065105221     0.01977838775283     0.01314151391813     0.01053088574909
   35     0.01743575963469     0.00122962143586     0.00684849100311     0.00807883979302     0.00096002413768
   36     0.00000155933175     0.00000056179013     0.00000169768983     0.00000053930605     0.00000007787031
   37     0.00000000331503     0.00000000220609     0.00000001437860     0.00000000167028     0.00000000043315
   38     0.00000004241377     0.00000000091576     0.00000004292104     0.00000003325505     0.00000000387771
   39     0.00000014315315     0.00000000312993     0.00000004518685     0.00000000622559     0.00000000297678
   40     0.00000006246084     0.00000000989037     0.00000002375888     0.00000000231864     0.00000000173994
   41     0.00000208538687     0.00000002978113     0.00000037323739     0.00000008020530     0.00000003125197
   42     0.00000000388358     0.00000000017681     0.00000000118325     0.00000000051015     0.00000000002341
   43     0.00000000087420     0.00000000009547     0.00000000053755     0.00000000004390     0.00000000006026
   44     0.00000000039111     0.00000000004106     0.00000000133252     0.00000000000894     0.00000000004525
   45     0.00000000163640     0.00000000099913     0.00000000043836     0.00000000017287     0.00000000039994
   46     0.00000000597426     0.00000000237613     0.00000000526662     0.00000000352776     0.00000000107281
   47     0.00000001428148     0.00000000030713     0.00000000237133     0.00000000056188     0.00000000285384
   48     0.00000012447788     0.00000003459152     0.00000014345172     0.00000002017079     0.00000001265075
   49     0.00000101101549     0.00000018042991     0.00000131137133     0.00000008203514     0.00000003547437
   50     0.00009174878974     0.00000888154604     0.00003315012848     0.00001293957630     0.00000140769340
   51     0.00001129699183     0.00000448885769     0.00002369867385     0.00000170815453     0.00000017438248
   52     0.00000164116922     0.00000035791428     0.00000128527331     0.00000004324761     0.00000007437282
   53     0.00027330235604     0.00016191584741     0.00024962286957     0.00004074807539     0.00000614948211
   54     0.00002712766080     0.00019704383596     0.00124013272455     0.00002042662633     0.00002096802540
   55     0.00717160253060     0.00163483223856     0.00445128889007     0.00011344992145     0.00003559129710
   56     0.00000000000000     0.00330948291818     0.01878304535332     0.00138401494014     0.00020603322585
   57     0.00330948291818     0.00000000000000     0.00652000560206     0.00094002347744     0.00169983100081
   58     0.01878304535332     0.00652000560206     0.00000000000000     0.00009904869703     0.00081375983779
   59     0.00138401494014     0.00094002347744     0.00009904869703     0.00000000000000     0.00743241395967
   60     0.00020603322585     0.00169983100081     0.00081375983779     0.00743241395967     0.00000000000000
   61     0.00007711062961     0.00053636653147     0.00017868132916     0.00742920744517     0.00939215022517
   62     0.00003915942918     0.00042117903367     0.00046423060298     0.00091457366597     0.00053376174785
   63     0.00012718688638     0.00045991849131     0.00110962732249     0.00011218585849     0.00016872731431
   64     0.00085756441053     0.00003860868637     0.00009890580276     0.00143487247876     0.00007834216549
   65     0.00056563006174     0.00050006410736     0.00005825035376     0.00011662441475     0.00021815592292
   66     0.00000000135495     0.00000000050431     0.00000000063536     0.00000000028966     0.00000000007671
   67     0.00000000131220     0.00000000049667     0.00000000020095     0.00000000078839     0.00000000005511
   68     0.00000000061277     0.00000000026092     0.00000000117652     0.00000000005956     0.00000000005458

                61                  62                  63                  64                  65

    1     0.00000011895112     0.00000013782362     0.00000433242902     0.00000246861012     0.00000097397564
    2     0.00000002208310     0.00000007172474     0.00000039612115     0.00000049043076     0.00000012011131
    3     0.00000002073092     0.00000005642500     0.00000035014851     0.00000041074851     0.00000010030751
    4     0.00000003258313     0.00000011823554     0.00000036189539     0.00000069220680     0.00000049079922
    5     0.00000015744553     0.00000048088764     0.00000196356099     0.00000316411262     0.00000215997208
    6     0.00000257617341     0.00000063616462     0.00008204035427     0.00004206917239     0.00001489759479
    7     0.00000001588991     0.00000002943914     0.00000020848015     0.00000006133566     0.00000013667496
    8     0.00000000238748     0.00000000805206     0.00000005762300     0.00000003211691     0.00000003773827
    9     0.00000000088157     0.00000000132651     0.00000001359159     0.00000001039157     0.00000000579497
   10     0.00000000042122     0.00000000214634     0.00000000486402     0.00000001011420     0.00000000263842
   11     0.00000000085081     0.00000000177423     0.00000000946435     0.00000000471470     0.00000000526735
   12     0.00000000255677     0.00000000617597     0.00000004046267     0.00000002494365     0.00000001361217
   13     0.00000000032658     0.00000000190778     0.00000000696672     0.00000000425897     0.00000000407855
   14     0.00000000113763     0.00000000424932     0.00000003978873     0.00000003355942     0.00000003011873
   15     0.00000000730933     0.00000001678336     0.00000003784025     0.00000002202278     0.00000013627812
   16     0.00000000813442     0.00000002642430     0.00000004909260     0.00000004335845     0.00000002952165
   17     0.00000001763829     0.00000005646405     0.00000025680643     0.00000020245911     0.00000025961506
   18     0.00000004034691     0.00000009988246     0.00000058773732     0.00000028451479     0.00000060244671
   19     0.00000001981174     0.00000002647277     0.00000018339879     0.00000012562472     0.00000020492587
   20     0.00000009455037     0.00000027913053     0.00000063400511     0.00000060488507     0.00000204836692
   21     0.00000032527165     0.00000212735861     0.00000467561666     0.00000407408622     0.00000642197914
   22     0.00000194983706     0.00001213451808     0.00002462104377     0.00002375058369     0.00006113046075
   23     0.00000549972695     0.00001441147037     0.00005842277308     0.00003767834275     0.00002486761263
   24     0.00002684508814     0.00006293509587     0.00021419878292     0.00018108975305     0.00061564355535
   25     0.00002446012686     0.00022441465714     0.00037735982752     0.00048806754745     0.00194033032727
   26     0.00000816734668     0.00005650515435     0.00005584369950     0.00022715518526     0.00020157902591
   27     0.00000201114175     0.00001885307305     0.00003241359522     0.00007649817269     0.00004477553784
   28     0.00008433142872     0.00075336408818     0.01129442839586     0.01148478188878     0.02124936715002
   29     0.00011642244919     0.00879155483709     0.01273251254510     0.05900698466267     0.04527961226096
   30     0.00094208533158     0.00126273920608     0.00719768349960     0.01798825382826     0.01265986750864
   31     0.01050563094433     0.01101678058766     0.01976479153698     0.00671490161970     0.00113648235776
   32     0.04784738046853     0.04375986184661     0.05668972134816     0.01099742174214     0.01119882702794
   33     0.90346854818903     0.01642691898525     0.01208144029178     0.01180928740138     0.00093160187504
   34     0.01429949638257     0.84886067367925     0.79017448019981     0.04106137774460     0.04668259351670
   35     0.00232125915899     0.04437570021202     0.04256781753782     0.79306598494102     0.82540796701343
   36     0.00000015765095     0.00000088369915     0.00000073191980     0.00000159214592     0.00000371168348
   37     0.00000000035039     0.00000000285458     0.00000002117519     0.00000001156855     0.00000001678853
   38     0.00000000724710     0.00000000075712     0.00000005832431     0.00000004407644     0.00000001705270
   39     0.00000000237275     0.00000000306989     0.00000009442215     0.00000018269929     0.00000002597316
   40     0.00000000551736     0.00000000251346     0.00000005668145     0.00000002029369     0.00000001233741
   41     0.00000000493083     0.00000005069846     0.00000082876773     0.00000139004502     0.00000096814610
   42     0.00000000016441     0.00000000008187     0.00000000096768     0.00000000665278     0.00000000383298
   43     0.00000000003922     0.00000000006545     0.00000000108865     0.00000000150589     0.00000000058632
   44     0.00000000002308     0.00000000012184     0.00000000062116     0.00000000081514     0.00000000020747
   45     0.00000000019047     0.00000000095520     0.00000000448171     0.00000000754225     0.00000000498784
   46     0.00000000049462     0.00000000344272     0.00000000197178     0.00000000501339     0.00000002026274
   47     0.00000000057818     0.00000000144390     0.00000000162217     0.00000000176279     0.00000000931962
   48     0.00000002252169     0.00000001425915     0.00000007219286     0.00000009633549     0.00000017608969
   49     0.00000003946675     0.00000025474419     0.00000117632769     0.00000133858566     0.00000080219501
   50     0.00000087718652     0.00000603282855     0.00004275356169     0.00009036840138     0.00016282472764
   51     0.00000016630185     0.00000197107201     0.00000367696832     0.00003087763013     0.00003730413829
   52     0.00000002753161     0.00000093072056     0.00000085886725     0.00000441226544     0.00000354182416
   53     0.00000756868388     0.00002065936715     0.00025654354548     0.00063004880669     0.00323202399836
   54     0.00000522882832     0.00001272299872     0.00068052781840     0.00061060145391     0.00035342560332
   55     0.00020461414448     0.00049376496733     0.00005991647416     0.00067494895645     0.00097385996701
   56     0.00007711062961     0.00003915942918     0.00012718688638     0.00085756441053     0.00056563006174
   57     0.00053636653147     0.00042117903367     0.00045991849131     0.00003860868637     0.00050006410736
   58     0.00017868132916     0.00046423060298     0.00110962732249     0.00009890580276     0.00005825035376
   59     0.00742920744517     0.00091457366597     0.00011218585849     0.00143487247876     0.00011662441475
   60     0.00939215022517     0.00053376174785     0.00016872731431     0.00007834216549     0.00021815592292
   61     0.00000000000000     0.00168501021062     0.00079665358890     0.00022322728460     0.00003461348254
   62     0.00168501021062     0.00000000000000     0.00658323979134     0.00330425112117     0.00165288844388
   63     0.00079665358890     0.00658323979134     0.00000000000000     0.02010242305414     0.00422172055369
   64     0.00022322728460     0.00330425112117     0.02010242305414     0.00000000000000     0.00736304324899
   65     0.00003461348254     0.00165288844388     0.00422172055369     0.00736304324899     0.00000000000000
   66     0.00000000022345     0.00000000036655     0.00000000104682     0.00000000015454     0.00000000353981
   67     0.00000000014213     0.00000000067559     0.00000000101881     0.00000000090391     0.00000000633113
   68     0.00000000003382     0.00000000024047     0.00000000020293     0.00000000056667     0.00000000090610

                66                  67                  68

    1     0.00000079746604     0.00000068984360     0.00000033910522
    2     0.00000157540759     0.00000142932180     0.00000072055853
    3     0.00001104883012     0.00000598457532     0.00000400006274
    4     0.00000876156037     0.00000937797253     0.00000896155589
    5     0.00000066884069     0.00000049780119     0.00000043613477
    6     0.00000031788048     0.00000037861900     0.00000021625367
    7     0.00003532357681     0.00002577080770     0.00001445455090
    8     0.00005797275255     0.00009388360325     0.00000566841122
    9     0.00001876056961     0.00001635596925     0.00000350533341
   10     0.00010441843350     0.00015123198728     0.00003264931821
   11     0.00067723453394     0.00076787364572     0.00019290578800
   12     0.00019453779786     0.00021229058718     0.00006067888223
   13     0.00749684103403     0.00762777760771     0.00163163337148
   14     0.01392197716886     0.01379866325224     0.00681577603170
   15     0.04144271115524     0.04197793918865     0.04512437424813
   16     0.01267498796767     0.01281857076754     0.01943357133398
   17     0.00085257766509     0.00082410844527     0.00141635124277
   18     0.00279856157400     0.00273220794140     0.00033541610417
   19     0.00079976267406     0.00086677474231     0.00073025068736
   20     0.00036826894649     0.00033862275869     0.00006810185504
   21     0.00020962325148     0.00019906615350     0.00002683768108
   22     0.00000994251368     0.00001403366957     0.00000756390332
   23     0.00001516910093     0.00001446152954     0.00000313340376
   24     0.00000142657317     0.00000182579073     0.00000038182179
   25     0.00000756220082     0.00000728425460     0.00000031862944
   26     0.00000141824708     0.00000149162313     0.00000039259383
   27     0.00001282400174     0.00001423565810     0.00000164557836
   28     0.00000047289498     0.00000042787672     0.00000008119623
   29     0.00000017844180     0.00000019744424     0.00000002179148
   30     0.00000009794338     0.00000011900295     0.00000001429565
   31     0.00000000879094     0.00000001145854     0.00000000565929
   32     0.00000000940901     0.00000000629664     0.00000000149156
   33     0.00000000111325     0.00000000080718     0.00000000041364
   34     0.00000000760004     0.00000001290754     0.00000000267880
   35     0.00000003253481     0.00000005975708     0.00000000773766
   36     0.00012045619425     0.00012352922057     0.00001338229675
   37     0.89906142375297     0.89805005483982     0.90361321606482
   38     0.00000007889321     0.00000008076651     0.00000001744130
   39     0.00000014485108     0.00000003019502     0.00000006321454
   40     0.00000119269288     0.00000669121230     0.00000300962505
   41     0.00000005443849     0.00000000819064     0.00000005309292
   42     0.00000025584873     0.00000088915380     0.00000008840603
   43     0.00000069626300     0.00000071350858     0.00000021294135
   44     0.00147613309797     0.00102859348096     0.00042487187069
   45     0.00011209581842     0.00009235477289     0.00216967191784
   46     0.00013449955224     0.00013825811662     0.00003033602124
   47     0.00007026052441     0.00007154966482     0.00025870380807
   48     0.00000639935324     0.00000989627361     0.00001758725834
   49     0.00000337875564     0.00000155309333     0.00000015270571
   50     0.00000003637929     0.00000004320117     0.00000003787546
   51     0.00000018753190     0.00000004179645     0.00000004481312
   52     0.00000059368338     0.00000015371661     0.00000019422169
   53     0.00000030019863     0.00000036887324     0.00000000782612
   54     0.00000004397328     0.00000002418093     0.00000001142683
   55     0.00000001839819     0.00000002369634     0.00000000022267
   56     0.00000000135495     0.00000000131220     0.00000000061277
   57     0.00000000050431     0.00000000049667     0.00000000026092
   58     0.00000000063536     0.00000000020095     0.00000000117652
   59     0.00000000028966     0.00000000078839     0.00000000005956
   60     0.00000000007671     0.00000000005511     0.00000000005458
   61     0.00000000022345     0.00000000014213     0.00000000003382
   62     0.00000000036655     0.00000000067559     0.00000000024047
   63     0.00000000104682     0.00000000101881     0.00000000020293
   64     0.00000000015454     0.00000000090391     0.00000000056667
   65     0.00000000353981     0.00000000633113     0.00000000090610
   66     0.00000000000000     0.00692265013773     0.00910479228927
   67     0.00692265013773     0.00000000000000     0.00918678366516
   68     0.00910479228927     0.00918678366516     0.00000000000000



  Atomic Valences: 

 #  #
 Irrep: 1
      1:  4.4067160
      2:  4.4402528
      3:  4.6226904
      4:  4.5970762
      5:  3.9228854
      6:  4.5594811
      7:  4.7584012
      8:  4.3771860
      9:  4.5346895
     10:  3.8653173
     11:  5.0226104
     12:  3.9625418
     13:  3.9644569
     14:  4.6868598
     15:  4.6504895
     16:  4.4559129
     17:  4.4153464
     18:  4.6912126
     19:  4.4449200
     20:  4.0088016
     21:  5.0130530
     22:  4.6276150
     23:  4.4735164
     24:  4.4734562
     25:  4.7065119
     26:  4.4524653
     27:  4.4408184
     28:  4.5603649
     29:  4.3061167
     30:  4.6074238
     31:  4.6084882
     32:  4.2555090
     33:  4.2927736
     34:  4.6097806
     35:  4.5986902
     36:  2.7497618
     37:  4.1580984
     38:  0.9889396
     39:  0.9887595
     40:  0.9905521
     41:  0.9891165
     42:  0.9879573
     43:  0.9888401
     44:  0.9342126
     45:  0.9904290
     46:  0.9825488
     47:  0.9927173
     48:  0.9460343
     49:  0.9926345
     50:  0.9858624
     51:  0.9892752
     52:  0.9828576
     53:  0.9918137
     54:  0.9963622
     55:  0.9797215
     56:  0.9869123
     57:  0.9909578
     58:  0.9896372
     59:  1.0046618
     60:  1.0001338
     61:  1.0002293
     62:  0.9917766
     63:  0.9880910
     64:  0.9887653
     65:  0.9869631
     66:  0.9987416
     67:  0.9981580
     68:  1.0007437


    Psi4 stopped on: Sunday, 26 April 2020 12:48PM
    Psi4 wall time for execution: 0:25:10.61

*** Psi4 exiting successfully. Buy a developer a beer!
