 Entering Gaussian System, Link 0=g09
 Input=MOLECULE0-opt-23-22-21-36-095.com
 Output=MOLECULE0-opt-23-22-21-36-095.log
 Initial command:
 /opt/g09gh/gaussian/g09/l1.exe /scratch/bdw2292/Gau-MOLECULE0/Gau-109554.inp -scrdir=/scratch/bdw2292/Gau-MOLECULE0/
 Entering Link 1 = /opt/g09gh/gaussian/g09/l1.exe PID=    109555.
  
 Copyright (c) 1988,1990,1992,1993,1995,1998,2003,2009, Gaussian, Inc.
                  All Rights Reserved.
  
 This is part of the Gaussian(R) 09 program.  It is based on
 the Gaussian(R) 03 system (copyright 2003, Gaussian, Inc.),
 the Gaussian(R) 98 system (copyright 1998, Gaussian, Inc.),
 the Gaussian(R) 94 system (copyright 1995, Gaussian, Inc.),
 the Gaussian 92(TM) system (copyright 1992, Gaussian, Inc.),
 the Gaussian 90(TM) system (copyright 1990, Gaussian, Inc.),
 the Gaussian 88(TM) system (copyright 1988, Gaussian, Inc.),
 the Gaussian 86(TM) system (copyright 1986, Carnegie Mellon
 University), and the Gaussian 82(TM) system (copyright 1983,
 Carnegie Mellon University). Gaussian is a federally registered
 trademark of Gaussian, Inc.
  
 This software contains proprietary and confidential information,
 including trade secrets, belonging to Gaussian, Inc.
  
 This software is provided under written license and may be
 used, copied, transmitted, or stored only in accord with that
 written license.
  
 The following legend is applicable only to US Government
 contracts under FAR:
  
                    RESTRICTED RIGHTS LEGEND
  
 Use, reproduction and disclosure by the US Government is
 subject to restrictions as set forth in subparagraphs (a)
 and (c) of the Commercial Computer Software - Restricted
 Rights clause in FAR 52.227-19.
  
 Gaussian, Inc.
 340 Quinnipiac St., Bldg. 40, Wallingford CT 06492
  
  
 ---------------------------------------------------------------
 Warning -- This program may not be used in any manner that
 competes with the business of Gaussian, Inc. or will provide
 assistance to any competitor of Gaussian, Inc.  The licensee
 of this program is prohibited from giving any competitor of
 Gaussian, Inc. access to this program.  By using this program,
 the user acknowledges that Gaussian, Inc. is engaged in the
 business of creating and licensing software in the field of
 computational chemistry and represents and warrants to the
 licensee that it is not a competitor of Gaussian, Inc. and that
 it will not use this program in any manner prohibited above.
 ---------------------------------------------------------------
  

 Cite this work as:
 Gaussian 09, Revision A.02,
 M. J. Frisch, G. W. Trucks, H. B. Schlegel, G. E. Scuseria, 
 M. A. Robb, J. R. Cheeseman, G. Scalmani, V. Barone, B. Mennucci, 
 G. A. Petersson, H. Nakatsuji, M. Caricato, X. Li, H. P. Hratchian, 
 A. F. Izmaylov, J. Bloino, G. Zheng, J. L. Sonnenberg, M. Hada, 
 M. Ehara, K. Toyota, R. Fukuda, J. Hasegawa, M. Ishida, T. Nakajima, 
 Y. Honda, O. Kitao, H. Nakai, T. Vreven, J. A. Montgomery, Jr., 
 J. E. Peralta, F. Ogliaro, M. Bearpark, J. J. Heyd, E. Brothers, 
 K. N. Kudin, V. N. Staroverov, R. Kobayashi, J. Normand, 
 K. Raghavachari, A. Rendell, J. C. Burant, S. S. Iyengar, J. Tomasi, 
 M. Cossi, N. Rega, J. M. Millam, M. Klene, J. E. Knox, J. B. Cross, 
 V. Bakken, C. Adamo, J. Jaramillo, R. Gomperts, R. E. Stratmann, 
 O. Yazyev, A. J. Austin, R. Cammi, C. Pomelli, J. W. Ochterski, 
 R. L. Martin, K. Morokuma, V. G. Zakrzewski, G. A. Voth, 
 P. Salvador, J. J. Dannenberg, S. Dapprich, A. D. Daniels, 
 O. Farkas, J. B. Foresman, J. V. Ortiz, J. Cioslowski, 
 and D. J. Fox, Gaussian, Inc., Wallingford CT, 2009.
 
 ******************************************
 Gaussian 09:  EM64L-G09RevA.02 11-Jun-2009
                 8-Apr-2020 
 ******************************************
 %RWF=/scratch/bdw2292/Gau-MOLECULE0/,100GB
 %Nosave
 %Chk=MOLECULE0-opt-23-22-21-36-095.chk
 %Mem=20GB
 %Nproc=6
 Will use up to    6 processors via shared memory.
 --------------------------------------------------
 #P opt=(,maxcycle=400) wB97XD/6-31G* MaxDisk=100GB
 --------------------------------------------------
 1/6=400,14=-1,18=20,19=15,26=3,38=1/1,3;
 2/9=110,12=2,17=6,18=5,40=1/2;
 3/5=1,6=6,7=1,11=2,16=1,25=1,30=1,71=1,74=-58/1,2,3;
 4//1;
 5/5=2,38=5/2;
 6/7=2,8=2,9=2,10=2,28=1/1;
 7//1,2,3,16;
 1/6=400,14=-1,18=20,19=15/3(2);
 2/9=110/2;
 99//99;
 2/9=110/2;
 3/5=1,6=6,7=1,11=2,16=1,25=1,30=1,71=1,74=-58/1,2,3;
 4/5=5,16=3/1;
 5/5=2,38=5/2;
 7//1,2,3,16;
 1/6=400,14=-1,18=20,19=15/3(-5);
 2/9=110/2;
 6/7=2,8=2,9=2,10=2,19=2,28=1/1;
 99/9=1/99;
 Leave Link    1 at Wed Apr  8 22:20:34 2020, MaxMem= 2684354560 cpu:       0.9
 (Enter /opt/g09gh/gaussian/g09/l101.exe)
 --------------------------------------------------------------
 MOLECULE0 Rotatable Bond Optimization on node37.bme.utexas.edu
 --------------------------------------------------------------
 Symbolic Z-matrix:
 Charge =  0 Multiplicity = 1
 C                    -3.29132  -6.21927  -7.11189 
 C                    -2.0036   -6.764    -7.19864 
 C                    -1.1091   -6.63614  -6.11707 
 C                    -1.61109  -5.9604   -4.97836 
 N                    -2.8391   -5.43623  -4.87717 
 C                    -3.65789  -5.56333  -5.93202 
 C                     0.29767  -7.17938  -6.12814 
 C                     0.83741  -7.97349  -7.1545 
 C                     2.15802  -8.39633  -6.97198 
 N                     2.90196  -8.08656  -5.91385 
 C                     2.30911  -7.31151  -4.98259 
 N                     1.05576  -6.8601   -5.06025 
 N                     3.11326  -6.99891  -3.90298 
 C                     2.91235  -6.28572  -2.66849 
 C                     3.85966  -6.45918  -1.61274 
 C                     3.63057  -5.75861  -0.41811 
 C                     2.5434   -4.90358  -0.21342 
 C                     1.63395  -4.71909  -1.2609 
 C                     1.82783  -5.42051  -2.46371 
 N                     0.48005  -3.87144  -1.19965 
 C                    -0.08617  -3.19761  -0.14198 
 C                    -1.46021  -2.62667  -0.40605 
 C                    -1.60177  -1.37869  -1.03085 
 C                    -2.87451  -0.87061  -1.30103 
 C                    -4.03958  -1.57951  -0.94941 
 C                    -3.87598  -2.82711  -0.3152 
 C                    -2.60786  -3.34776  -0.04553 
 C                    -5.43051  -0.99166  -1.19635 
 N                    -6.01206  -0.05041  -0.22496 
 C                    -5.50782   1.34059  -0.16969 
 C                    -4.39134   1.58221   0.8793 
 N                    -4.74816   1.13404   2.24705 
 C                    -5.56783   2.05112   3.04748 
 C                    -5.20136  -0.27733   2.185 
 C                    -6.31778  -0.53694   1.14011 
 O                     0.46371  -3.0419    0.93484 
 C                     5.07788  -7.36234  -1.71836 
 H                    -3.99311  -6.29906  -7.93687 
 H                    -1.71657  -7.26548  -8.11958 
 H                    -0.996    -5.85052  -4.09084 
 H                    -4.6469   -5.12306  -5.81459 
 H                     0.29855  -8.28198  -8.0418 
 H                     2.66821  -9.02326  -7.70275 
 H                     4.00211  -7.46244  -4.01541 
 H                     4.32939  -5.87434   0.40944 
 H                     2.40345  -4.38581   0.7272 
 H                     1.13139  -5.28385  -3.27583 
 H                    -0.04671  -3.81145  -2.06044 
 H                    -0.70985  -0.82069  -1.30463 
 H                    -2.95848   0.10099  -1.78719 
 H                    -4.75158  -3.40205  -0.01472 
 H                    -2.49345  -4.31405   0.43923 
 H                    -5.41716  -0.48353  -2.17083 
 H                    -6.14359  -1.82312  -1.28946 
 H                    -5.16284   1.70276  -1.25394 
 H                    -6.65521   2.19701   0.20545 
 H                    -4.08905   2.87987   0.91946 
 H                    -3.35645   0.98002   0.55346 
 H                    -6.56314   2.17461   2.60601 
 H                    -5.08455   3.03281   3.11075 
 H                    -5.679     1.66609   4.06767 
 H                    -5.56327  -0.63595   3.30607 
 H                    -4.01879  -1.08461   1.83132 
 H                    -7.52932   0.18312   1.59626 
 H                    -6.60611  -1.69977   1.11172 
 H                     5.76741  -7.05369  -2.51724 
 H                     4.78402  -8.39486  -1.92654 
 H                     5.66733  -7.3861   -0.79813 
 
 NAtoms=     68 NQM=     68 NQMF=      0 NMic=      0 NMicF=      0 NTot=     68.
                    Isotopes and Nuclear Properties:
 (Nuclear quadrupole moments (NQMom) in fm**2, nuclear magnetic moments (NMagM)
  in nuclear magnetons)

  Atom         1           2           3           4           5           6           7           8           9          10
 IAtWgt=          12          12          12          12          14          12          12          12          12          14
 AtmWgt=  12.0000000  12.0000000  12.0000000  12.0000000  14.0030740  12.0000000  12.0000000  12.0000000  12.0000000  14.0030740
 NucSpn=           0           0           0           0           2           0           0           0           0           2
 AtZEff=   0.0000000   0.0000000   0.0000000   0.0000000   0.0000000   0.0000000   0.0000000   0.0000000   0.0000000   0.0000000
 NQMom=    0.0000000   0.0000000   0.0000000   0.0000000   2.0440000   0.0000000   0.0000000   0.0000000   0.0000000   2.0440000
 NMagM=    0.0000000   0.0000000   0.0000000   0.0000000   0.4037610   0.0000000   0.0000000   0.0000000   0.0000000   0.4037610

  Atom        11          12          13          14          15          16          17          18          19          20
 IAtWgt=          12          14          14          12          12          12          12          12          12          14
 AtmWgt=  12.0000000  14.0030740  14.0030740  12.0000000  12.0000000  12.0000000  12.0000000  12.0000000  12.0000000  14.0030740
 NucSpn=           0           2           2           0           0           0           0           0           0           2
 AtZEff=   0.0000000   0.0000000   0.0000000   0.0000000   0.0000000   0.0000000   0.0000000   0.0000000   0.0000000   0.0000000
 NQMom=    0.0000000   2.0440000   2.0440000   0.0000000   0.0000000   0.0000000   0.0000000   0.0000000   0.0000000   2.0440000
 NMagM=    0.0000000   0.4037610   0.4037610   0.0000000   0.0000000   0.0000000   0.0000000   0.0000000   0.0000000   0.4037610

  Atom        21          22          23          24          25          26          27          28          29          30
 IAtWgt=          12          12          12          12          12          12          12          12          14          12
 AtmWgt=  12.0000000  12.0000000  12.0000000  12.0000000  12.0000000  12.0000000  12.0000000  12.0000000  14.0030740  12.0000000
 NucSpn=           0           0           0           0           0           0           0           0           2           0
 AtZEff=   0.0000000   0.0000000   0.0000000   0.0000000   0.0000000   0.0000000   0.0000000   0.0000000   0.0000000   0.0000000
 NQMom=    0.0000000   0.0000000   0.0000000   0.0000000   0.0000000   0.0000000   0.0000000   0.0000000   2.0440000   0.0000000
 NMagM=    0.0000000   0.0000000   0.0000000   0.0000000   0.0000000   0.0000000   0.0000000   0.0000000   0.4037610   0.0000000

  Atom        31          32          33          34          35          36          37          38          39          40
 IAtWgt=          12          14          12          12          12          16          12           1           1           1
 AtmWgt=  12.0000000  14.0030740  12.0000000  12.0000000  12.0000000  15.9949146  12.0000000   1.0078250   1.0078250   1.0078250
 NucSpn=           0           2           0           0           0           0           0           1           1           1
 AtZEff=   0.0000000   0.0000000   0.0000000   0.0000000   0.0000000   0.0000000   0.0000000   0.0000000   0.0000000   0.0000000
 NQMom=    0.0000000   2.0440000   0.0000000   0.0000000   0.0000000   0.0000000   0.0000000   0.0000000   0.0000000   0.0000000
 NMagM=    0.0000000   0.4037610   0.0000000   0.0000000   0.0000000   0.0000000   0.0000000   2.7928460   2.7928460   2.7928460

  Atom        41          42          43          44          45          46          47          48          49          50
 IAtWgt=           1           1           1           1           1           1           1           1           1           1
 AtmWgt=   1.0078250   1.0078250   1.0078250   1.0078250   1.0078250   1.0078250   1.0078250   1.0078250   1.0078250   1.0078250
 NucSpn=           1           1           1           1           1           1           1           1           1           1
 AtZEff=   0.0000000   0.0000000   0.0000000   0.0000000   0.0000000   0.0000000   0.0000000   0.0000000   0.0000000   0.0000000
 NQMom=    0.0000000   0.0000000   0.0000000   0.0000000   0.0000000   0.0000000   0.0000000   0.0000000   0.0000000   0.0000000
 NMagM=    2.7928460   2.7928460   2.7928460   2.7928460   2.7928460   2.7928460   2.7928460   2.7928460   2.7928460   2.7928460

  Atom        51          52          53          54          55          56          57          58          59          60
 IAtWgt=           1           1           1           1           1           1           1           1           1           1
 AtmWgt=   1.0078250   1.0078250   1.0078250   1.0078250   1.0078250   1.0078250   1.0078250   1.0078250   1.0078250   1.0078250
 NucSpn=           1           1           1           1           1           1           1           1           1           1
 AtZEff=   0.0000000   0.0000000   0.0000000   0.0000000   0.0000000   0.0000000   0.0000000   0.0000000   0.0000000   0.0000000
 NQMom=    0.0000000   0.0000000   0.0000000   0.0000000   0.0000000   0.0000000   0.0000000   0.0000000   0.0000000   0.0000000
 NMagM=    2.7928460   2.7928460   2.7928460   2.7928460   2.7928460   2.7928460   2.7928460   2.7928460   2.7928460   2.7928460

  Atom        61          62          63          64          65          66          67          68
 IAtWgt=           1           1           1           1           1           1           1           1
 AtmWgt=   1.0078250   1.0078250   1.0078250   1.0078250   1.0078250   1.0078250   1.0078250   1.0078250
 NucSpn=           1           1           1           1           1           1           1           1
 AtZEff=   0.0000000   0.0000000   0.0000000   0.0000000   0.0000000   0.0000000   0.0000000   0.0000000
 NQMom=    0.0000000   0.0000000   0.0000000   0.0000000   0.0000000   0.0000000   0.0000000   0.0000000
 NMagM=    2.7928460   2.7928460   2.7928460   2.7928460   2.7928460   2.7928460   2.7928460   2.7928460
 Leave Link  101 at Wed Apr  8 22:20:35 2020, MaxMem= 2684354560 cpu:       0.4
 (Enter /opt/g09gh/gaussian/g09/l103.exe)

 GradGradGradGradGradGradGradGradGradGradGradGradGradGradGradGradGradGrad
 Berny optimization.
 Initialization pass.
                           ----------------------------
                           !    Initial Parameters    !
                           ! (Angstroms and Degrees)  !
 --------------------------                            --------------------------
 ! Name  Definition              Value          Derivative Info.                !
 --------------------------------------------------------------------------------
 ! R1    R(1,2)                  1.4009         estimate D2E/DX2                !
 ! R2    R(1,6)                  1.3988         estimate D2E/DX2                !
 ! R3    R(1,38)                 1.086          estimate D2E/DX2                !
 ! R4    R(2,3)                  1.4093         estimate D2E/DX2                !
 ! R5    R(2,39)                 1.0872         estimate D2E/DX2                !
 ! R6    R(3,4)                  1.4161         estimate D2E/DX2                !
 ! R7    R(3,7)                  1.5081         estimate D2E/DX2                !
 ! R8    R(4,5)                  1.339          estimate D2E/DX2                !
 ! R9    R(4,40)                 1.0854         estimate D2E/DX2                !
 ! R10   R(5,6)                  1.3414         estimate D2E/DX2                !
 ! R11   R(6,41)                 1.0889         estimate D2E/DX2                !
 ! R12   R(7,8)                  1.4055         estimate D2E/DX2                !
 ! R13   R(7,12)                 1.348          estimate D2E/DX2                !
 ! R14   R(8,9)                  1.3986         estimate D2E/DX2                !
 ! R15   R(8,42)                 1.083          estimate D2E/DX2                !
 ! R16   R(9,10)                 1.33           estimate D2E/DX2                !
 ! R17   R(9,43)                 1.0897         estimate D2E/DX2                !
 ! R18   R(10,11)                1.3489         estimate D2E/DX2                !
 ! R19   R(11,12)                1.3344         estimate D2E/DX2                !
 ! R20   R(11,13)                1.382          estimate D2E/DX2                !
 ! R21   R(13,14)                1.4398         estimate D2E/DX2                !
 ! R22   R(13,44)                1.0087         estimate D2E/DX2                !
 ! R23   R(14,15)                1.429          estimate D2E/DX2                !
 ! R24   R(14,19)                1.4024         estimate D2E/DX2                !
 ! R25   R(15,16)                1.4037         estimate D2E/DX2                !
 ! R26   R(15,37)                1.5202         estimate D2E/DX2                !
 ! R27   R(16,17)                1.3982         estimate D2E/DX2                !
 ! R28   R(16,45)                1.0893         estimate D2E/DX2                !
 ! R29   R(17,18)                1.3994         estimate D2E/DX2                !
 ! R30   R(17,46)                1.0828         estimate D2E/DX2                !
 ! R31   R(18,19)                1.4058         estimate D2E/DX2                !
 ! R32   R(18,20)                1.4331         estimate D2E/DX2                !
 ! R33   R(19,47)                1.0785         estimate D2E/DX2                !
 ! R34   R(20,21)                1.376          estimate D2E/DX2                !
 ! R35   R(20,48)                1.011          estimate D2E/DX2                !
 ! R36   R(21,22)                1.5112         estimate D2E/DX2                !
 ! R37   R(21,36)                1.2191         estimate D2E/DX2                !
 ! R38   R(22,23)                1.4028         estimate D2E/DX2                !
 ! R39   R(22,27)                1.4025         estimate D2E/DX2                !
 ! R40   R(23,24)                1.3968         estimate D2E/DX2                !
 ! R41   R(23,49)                1.0871         estimate D2E/DX2                !
 ! R42   R(24,25)                1.4084         estimate D2E/DX2                !
 ! R43   R(24,50)                1.0897         estimate D2E/DX2                !
 ! R44   R(25,26)                1.4091         estimate D2E/DX2                !
 ! R45   R(25,28)                1.5301         estimate D2E/DX2                !
 ! R46   R(26,27)                1.3971         estimate D2E/DX2                !
 ! R47   R(26,51)                1.0897         estimate D2E/DX2                !
 ! R48   R(27,52)                1.0871         estimate D2E/DX2                !
 ! R49   R(28,29)                1.4723         estimate D2E/DX2                !
 ! R50   R(28,53)                1.0991         estimate D2E/DX2                !
 ! R51   R(28,54)                1.0993         estimate D2E/DX2                !
 ! R52   R(29,30)                1.4806         estimate D2E/DX2                !
 ! R53   R(29,35)                1.4811         estimate D2E/DX2                !
 ! R54   R(30,31)                1.5509         estimate D2E/DX2                !
 ! R55   R(30,55)                1.1941         estimate D2E/DX2                !
 ! R56   R(30,56)                1.4801         estimate D2E/DX2                !
 ! R57   R(31,32)                1.4829         estimate D2E/DX2                !
 ! R58   R(31,57)                1.333          estimate D2E/DX2                !
 ! R59   R(31,58)                1.2409         estimate D2E/DX2                !
 ! R60   R(32,33)                1.4675         estimate D2E/DX2                !
 ! R61   R(32,34)                1.4837         estimate D2E/DX2                !
 ! R62   R(33,59)                1.0958         estimate D2E/DX2                !
 ! R63   R(33,60)                1.096          estimate D2E/DX2                !
 ! R64   R(33,61)                1.0961         estimate D2E/DX2                !
 ! R65   R(34,35)                1.551          estimate D2E/DX2                !
 ! R66   R(34,62)                1.2314         estimate D2E/DX2                !
 ! R67   R(34,63)                1.4749         estimate D2E/DX2                !
 ! R68   R(35,64)                1.4813         estimate D2E/DX2                !
 ! R69   R(35,65)                1.1984         estimate D2E/DX2                !
 ! R70   R(37,66)                1.0995         estimate D2E/DX2                !
 ! R71   R(37,67)                1.0935         estimate D2E/DX2                !
 ! R72   R(37,68)                1.0931         estimate D2E/DX2                !
 ! A1    A(2,1,6)              118.3888         estimate D2E/DX2                !
 ! A2    A(2,1,38)             121.2244         estimate D2E/DX2                !
 ! A3    A(6,1,38)             120.3868         estimate D2E/DX2                !
 ! A4    A(1,2,3)              120.0415         estimate D2E/DX2                !
 ! A5    A(1,2,39)             118.3263         estimate D2E/DX2                !
 ! A6    A(3,2,39)             121.6242         estimate D2E/DX2                !
 ! A7    A(2,3,4)              115.8113         estimate D2E/DX2                !
 ! A8    A(2,3,7)              123.6249         estimate D2E/DX2                !
 ! A9    A(4,3,7)              120.5623         estimate D2E/DX2                !
 ! A10   A(3,4,5)              124.936          estimate D2E/DX2                !
 ! A11   A(3,4,40)             120.3282         estimate D2E/DX2                !
 ! A12   A(5,4,40)             114.7265         estimate D2E/DX2                !
 ! A13   A(4,5,6)              117.5994         estimate D2E/DX2                !
 ! A14   A(1,6,5)              123.2141         estimate D2E/DX2                !
 ! A15   A(1,6,41)             121.236          estimate D2E/DX2                !
 ! A16   A(5,6,41)             115.549          estimate D2E/DX2                !
 ! A17   A(3,7,8)              124.5501         estimate D2E/DX2                !
 ! A18   A(3,7,12)             115.6888         estimate D2E/DX2                !
 ! A19   A(8,7,12)             119.761          estimate D2E/DX2                !
 ! A20   A(7,8,9)              115.9846         estimate D2E/DX2                !
 ! A21   A(7,8,42)             124.6231         estimate D2E/DX2                !
 ! A22   A(9,8,42)             119.3819         estimate D2E/DX2                !
 ! A23   A(8,9,10)             124.1629         estimate D2E/DX2                !
 ! A24   A(8,9,43)             121.9053         estimate D2E/DX2                !
 ! A25   A(10,9,43)            113.9315         estimate D2E/DX2                !
 ! A26   A(9,10,11)            115.928          estimate D2E/DX2                !
 ! A27   A(10,11,12)           124.5425         estimate D2E/DX2                !
 ! A28   A(10,11,13)           114.4295         estimate D2E/DX2                !
 ! A29   A(12,11,13)           121.0277         estimate D2E/DX2                !
 ! A30   A(7,12,11)            119.6167         estimate D2E/DX2                !
 ! A31   A(11,13,14)           134.4801         estimate D2E/DX2                !
 ! A32   A(11,13,44)           108.7658         estimate D2E/DX2                !
 ! A33   A(14,13,44)           116.4961         estimate D2E/DX2                !
 ! A34   A(13,14,15)           118.7395         estimate D2E/DX2                !
 ! A35   A(13,14,19)           122.5966         estimate D2E/DX2                !
 ! A36   A(15,14,19)           118.6627         estimate D2E/DX2                !
 ! A37   A(14,15,16)           117.386          estimate D2E/DX2                !
 ! A38   A(14,15,37)           123.5057         estimate D2E/DX2                !
 ! A39   A(16,15,37)           119.1062         estimate D2E/DX2                !
 ! A40   A(15,16,17)           123.8276         estimate D2E/DX2                !
 ! A41   A(15,16,45)           119.2633         estimate D2E/DX2                !
 ! A42   A(17,16,45)           116.9091         estimate D2E/DX2                !
 ! A43   A(16,17,18)           118.4475         estimate D2E/DX2                !
 ! A44   A(16,17,46)           121.3388         estimate D2E/DX2                !
 ! A45   A(18,17,46)           120.2122         estimate D2E/DX2                !
 ! A46   A(17,18,19)           119.0142         estimate D2E/DX2                !
 ! A47   A(17,18,20)           124.6981         estimate D2E/DX2                !
 ! A48   A(19,18,20)           116.2782         estimate D2E/DX2                !
 ! A49   A(14,19,18)           122.6438         estimate D2E/DX2                !
 ! A50   A(14,19,47)           117.8772         estimate D2E/DX2                !
 ! A51   A(18,19,47)           119.4704         estimate D2E/DX2                !
 ! A52   A(18,20,21)           130.832          estimate D2E/DX2                !
 ! A53   A(18,20,48)           114.7241         estimate D2E/DX2                !
 ! A54   A(21,20,48)           114.2688         estimate D2E/DX2                !
 ! A55   A(20,21,22)           115.1413         estimate D2E/DX2                !
 ! A56   A(20,21,36)           123.7735         estimate D2E/DX2                !
 ! A57   A(22,21,36)           121.0787         estimate D2E/DX2                !
 ! A58   A(21,22,23)           120.3773         estimate D2E/DX2                !
 ! A59   A(21,22,27)           120.3216         estimate D2E/DX2                !
 ! A60   A(23,22,27)           119.2952         estimate D2E/DX2                !
 ! A61   A(22,23,24)           120.1133         estimate D2E/DX2                !
 ! A62   A(22,23,49)           119.0783         estimate D2E/DX2                !
 ! A63   A(24,23,49)           120.8074         estimate D2E/DX2                !
 ! A64   A(23,24,25)           121.4921         estimate D2E/DX2                !
 ! A65   A(23,24,50)           118.7408         estimate D2E/DX2                !
 ! A66   A(25,24,50)           119.7648         estimate D2E/DX2                !
 ! A67   A(24,25,26)           117.5153         estimate D2E/DX2                !
 ! A68   A(24,25,28)           121.2197         estimate D2E/DX2                !
 ! A69   A(26,25,28)           121.221          estimate D2E/DX2                !
 ! A70   A(25,26,27)           121.4813         estimate D2E/DX2                !
 ! A71   A(25,26,51)           119.8648         estimate D2E/DX2                !
 ! A72   A(27,26,51)           118.6508         estimate D2E/DX2                !
 ! A73   A(22,27,26)           120.0999         estimate D2E/DX2                !
 ! A74   A(22,27,52)           119.046          estimate D2E/DX2                !
 ! A75   A(26,27,52)           120.8534         estimate D2E/DX2                !
 ! A76   A(25,28,29)           119.8799         estimate D2E/DX2                !
 ! A77   A(25,28,53)           108.0388         estimate D2E/DX2                !
 ! A78   A(25,28,54)           108.2252         estimate D2E/DX2                !
 ! A79   A(29,28,53)           107.1098         estimate D2E/DX2                !
 ! A80   A(29,28,54)           106.4511         estimate D2E/DX2                !
 ! A81   A(53,28,54)           106.4077         estimate D2E/DX2                !
 ! A82   A(28,29,30)           119.3878         estimate D2E/DX2                !
 ! A83   A(28,29,35)           118.6605         estimate D2E/DX2                !
 ! A84   A(30,29,35)           110.1515         estimate D2E/DX2                !
 ! A85   A(29,30,31)           114.6316         estimate D2E/DX2                !
 ! A86   A(29,30,55)           110.4534         estimate D2E/DX2                !
 ! A87   A(29,30,56)           106.8017         estimate D2E/DX2                !
 ! A88   A(31,30,55)           111.0344         estimate D2E/DX2                !
 ! A89   A(31,30,56)           107.2476         estimate D2E/DX2                !
 ! A90   A(55,30,56)           106.1776         estimate D2E/DX2                !
 ! A91   A(30,31,32)           113.8004         estimate D2E/DX2                !
 ! A92   A(30,31,57)           109.5902         estimate D2E/DX2                !
 ! A93   A(30,31,58)           110.3145         estimate D2E/DX2                !
 ! A94   A(32,31,57)           108.7228         estimate D2E/DX2                !
 ! A95   A(32,31,58)           107.2304         estimate D2E/DX2                !
 ! A96   A(57,31,58)           106.9304         estimate D2E/DX2                !
 ! A97   A(31,32,33)           116.6553         estimate D2E/DX2                !
 ! A98   A(31,32,34)           108.8098         estimate D2E/DX2                !
 ! A99   A(33,32,34)           116.5307         estimate D2E/DX2                !
 ! A100  A(32,33,59)           110.9775         estimate D2E/DX2                !
 ! A101  A(32,33,60)           110.1774         estimate D2E/DX2                !
 ! A102  A(32,33,61)           110.1693         estimate D2E/DX2                !
 ! A103  A(59,33,60)           108.8337         estimate D2E/DX2                !
 ! A104  A(59,33,61)           108.8108         estimate D2E/DX2                !
 ! A105  A(60,33,61)           107.7961         estimate D2E/DX2                !
 ! A106  A(32,34,35)           114.0341         estimate D2E/DX2                !
 ! A107  A(32,34,62)           109.1919         estimate D2E/DX2                !
 ! A108  A(32,34,63)           106.6062         estimate D2E/DX2                !
 ! A109  A(35,34,62)           110.6723         estimate D2E/DX2                !
 ! A110  A(35,34,63)           108.9042         estimate D2E/DX2                !
 ! A111  A(62,34,63)           107.1313         estimate D2E/DX2                !
 ! A112  A(29,35,34)           114.6677         estimate D2E/DX2                !
 ! A113  A(29,35,64)           107.0353         estimate D2E/DX2                !
 ! A114  A(29,35,65)           110.2782         estimate D2E/DX2                !
 ! A115  A(34,35,64)           107.4516         estimate D2E/DX2                !
 ! A116  A(34,35,65)           110.5828         estimate D2E/DX2                !
 ! A117  A(64,35,65)           106.3902         estimate D2E/DX2                !
 ! A118  A(15,37,66)           112.7225         estimate D2E/DX2                !
 ! A119  A(15,37,67)           111.0294         estimate D2E/DX2                !
 ! A120  A(15,37,68)           112.7408         estimate D2E/DX2                !
 ! A121  A(66,37,67)           107.1732         estimate D2E/DX2                !
 ! A122  A(66,37,68)           106.2368         estimate D2E/DX2                !
 ! A123  A(67,37,68)           106.5379         estimate D2E/DX2                !
 ! D1    D(6,1,2,3)             -0.4526         estimate D2E/DX2                !
 ! D2    D(6,1,2,39)          -179.4386         estimate D2E/DX2                !
 ! D3    D(38,1,2,3)           179.4651         estimate D2E/DX2                !
 ! D4    D(38,1,2,39)            0.4791         estimate D2E/DX2                !
 ! D5    D(2,1,6,5)             -0.3449         estimate D2E/DX2                !
 ! D6    D(2,1,6,41)          -179.9931         estimate D2E/DX2                !
 ! D7    D(38,1,6,5)           179.7367         estimate D2E/DX2                !
 ! D8    D(38,1,6,41)            0.0885         estimate D2E/DX2                !
 ! D9    D(1,2,3,4)              1.0247         estimate D2E/DX2                !
 ! D10   D(1,2,3,7)           -179.4218         estimate D2E/DX2                !
 ! D11   D(39,2,3,4)           179.9765         estimate D2E/DX2                !
 ! D12   D(39,2,3,7)            -0.47           estimate D2E/DX2                !
 ! D13   D(2,3,4,5)             -0.9342         estimate D2E/DX2                !
 ! D14   D(2,3,4,40)           177.8942         estimate D2E/DX2                !
 ! D15   D(7,3,4,5)            179.4976         estimate D2E/DX2                !
 ! D16   D(7,3,4,40)            -1.6741         estimate D2E/DX2                !
 ! D17   D(2,3,7,8)             -6.0627         estimate D2E/DX2                !
 ! D18   D(2,3,7,12)           174.0649         estimate D2E/DX2                !
 ! D19   D(4,3,7,8)            173.4705         estimate D2E/DX2                !
 ! D20   D(4,3,7,12)            -6.4019         estimate D2E/DX2                !
 ! D21   D(3,4,5,6)              0.1938         estimate D2E/DX2                !
 ! D22   D(40,4,5,6)          -178.6928         estimate D2E/DX2                !
 ! D23   D(4,5,6,1)              0.4774         estimate D2E/DX2                !
 ! D24   D(4,5,6,41)          -179.856          estimate D2E/DX2                !
 ! D25   D(3,7,8,9)           -179.1217         estimate D2E/DX2                !
 ! D26   D(3,7,8,42)            -0.303          estimate D2E/DX2                !
 ! D27   D(12,7,8,9)             0.7458         estimate D2E/DX2                !
 ! D28   D(12,7,8,42)          179.5646         estimate D2E/DX2                !
 ! D29   D(3,7,12,11)          179.2959         estimate D2E/DX2                !
 ! D30   D(8,7,12,11)           -0.583          estimate D2E/DX2                !
 ! D31   D(7,8,9,10)            -0.3799         estimate D2E/DX2                !
 ! D32   D(7,8,9,43)           179.4192         estimate D2E/DX2                !
 ! D33   D(42,8,9,10)         -179.2644         estimate D2E/DX2                !
 ! D34   D(42,8,9,43)            0.5347         estimate D2E/DX2                !
 ! D35   D(8,9,10,11)           -0.1571         estimate D2E/DX2                !
 ! D36   D(43,9,10,11)        -179.9705         estimate D2E/DX2                !
 ! D37   D(9,10,11,12)           0.3671         estimate D2E/DX2                !
 ! D38   D(9,10,11,13)        -179.452          estimate D2E/DX2                !
 ! D39   D(10,11,12,7)           0.0038         estimate D2E/DX2                !
 ! D40   D(13,11,12,7)         179.8115         estimate D2E/DX2                !
 ! D41   D(10,11,13,14)       -176.144          estimate D2E/DX2                !
 ! D42   D(10,11,13,44)         -2.4009         estimate D2E/DX2                !
 ! D43   D(12,11,13,14)          4.0299         estimate D2E/DX2                !
 ! D44   D(12,11,13,44)        177.7731         estimate D2E/DX2                !
 ! D45   D(11,13,14,15)        163.0777         estimate D2E/DX2                !
 ! D46   D(11,13,14,19)        -17.3337         estimate D2E/DX2                !
 ! D47   D(44,13,14,15)        -10.3012         estimate D2E/DX2                !
 ! D48   D(44,13,14,19)        169.2874         estimate D2E/DX2                !
 ! D49   D(13,14,15,16)       -179.5121         estimate D2E/DX2                !
 ! D50   D(13,14,15,37)         -0.0492         estimate D2E/DX2                !
 ! D51   D(19,14,15,16)          0.8829         estimate D2E/DX2                !
 ! D52   D(19,14,15,37)       -179.6542         estimate D2E/DX2                !
 ! D53   D(13,14,19,18)       -179.7096         estimate D2E/DX2                !
 ! D54   D(13,14,19,47)         -0.7832         estimate D2E/DX2                !
 ! D55   D(15,14,19,18)         -0.1207         estimate D2E/DX2                !
 ! D56   D(15,14,19,47)        178.8057         estimate D2E/DX2                !
 ! D57   D(14,15,16,17)         -0.48           estimate D2E/DX2                !
 ! D58   D(14,15,16,45)        179.5392         estimate D2E/DX2                !
 ! D59   D(37,15,16,17)       -179.9674         estimate D2E/DX2                !
 ! D60   D(37,15,16,45)          0.0518         estimate D2E/DX2                !
 ! D61   D(14,15,37,66)         61.3832         estimate D2E/DX2                !
 ! D62   D(14,15,37,67)        -58.8782         estimate D2E/DX2                !
 ! D63   D(14,15,37,68)       -178.3377         estimate D2E/DX2                !
 ! D64   D(16,15,37,66)       -119.1627         estimate D2E/DX2                !
 ! D65   D(16,15,37,67)        120.576          estimate D2E/DX2                !
 ! D66   D(16,15,37,68)          1.1164         estimate D2E/DX2                !
 ! D67   D(15,16,17,18)         -0.7155         estimate D2E/DX2                !
 ! D68   D(15,16,17,46)        179.7391         estimate D2E/DX2                !
 ! D69   D(45,16,17,18)        179.2657         estimate D2E/DX2                !
 ! D70   D(45,16,17,46)         -0.2797         estimate D2E/DX2                !
 ! D71   D(16,17,18,19)          1.4719         estimate D2E/DX2                !
 ! D72   D(16,17,18,20)       -179.6975         estimate D2E/DX2                !
 ! D73   D(46,17,18,19)       -178.9775         estimate D2E/DX2                !
 ! D74   D(46,17,18,20)         -0.1468         estimate D2E/DX2                !
 ! D75   D(17,18,19,14)         -1.0897         estimate D2E/DX2                !
 ! D76   D(17,18,19,47)       -179.9996         estimate D2E/DX2                !
 ! D77   D(20,18,19,14)        179.9825         estimate D2E/DX2                !
 ! D78   D(20,18,19,47)          1.0726         estimate D2E/DX2                !
 ! D79   D(17,18,20,21)         -8.2843         estimate D2E/DX2                !
 ! D80   D(17,18,20,48)        176.8757         estimate D2E/DX2                !
 ! D81   D(19,18,20,21)        170.5752         estimate D2E/DX2                !
 ! D82   D(19,18,20,48)         -4.2647         estimate D2E/DX2                !
 ! D83   D(18,20,21,22)       -168.1374         estimate D2E/DX2                !
 ! D84   D(18,20,21,36)         12.7815         estimate D2E/DX2                !
 ! D85   D(48,20,21,22)          6.7213         estimate D2E/DX2                !
 ! D86   D(48,20,21,36)       -172.3599         estimate D2E/DX2                !
 ! D87   D(20,21,22,23)        -84.1189         estimate D2E/DX2                !
 ! D88   D(20,21,22,27)         94.9952         estimate D2E/DX2                !
 ! D89   D(36,21,22,23)         94.9893         estimate D2E/DX2                !
 ! D90   D(36,21,22,27)        -85.8966         estimate D2E/DX2                !
 ! D91   D(21,22,23,24)        178.474          estimate D2E/DX2                !
 ! D92   D(21,22,23,49)         -1.1569         estimate D2E/DX2                !
 ! D93   D(27,22,23,24)         -0.6492         estimate D2E/DX2                !
 ! D94   D(27,22,23,49)        179.7199         estimate D2E/DX2                !
 ! D95   D(21,22,27,26)       -178.763          estimate D2E/DX2                !
 ! D96   D(21,22,27,52)          0.9293         estimate D2E/DX2                !
 ! D97   D(23,22,27,26)          0.3607         estimate D2E/DX2                !
 ! D98   D(23,22,27,52)       -179.947          estimate D2E/DX2                !
 ! D99   D(22,23,24,25)          0.551          estimate D2E/DX2                !
 ! D100  D(22,23,24,50)       -179.9963         estimate D2E/DX2                !
 ! D101  D(49,23,24,25)       -179.8246         estimate D2E/DX2                !
 ! D102  D(49,23,24,50)         -0.3719         estimate D2E/DX2                !
 ! D103  D(23,24,25,26)         -0.1509         estimate D2E/DX2                !
 ! D104  D(23,24,25,28)        177.4659         estimate D2E/DX2                !
 ! D105  D(50,24,25,26)       -179.598          estimate D2E/DX2                !
 ! D106  D(50,24,25,28)         -1.9812         estimate D2E/DX2                !
 ! D107  D(24,25,26,27)         -0.1432         estimate D2E/DX2                !
 ! D108  D(24,25,26,51)        179.1982         estimate D2E/DX2                !
 ! D109  D(28,25,26,27)       -177.76           estimate D2E/DX2                !
 ! D110  D(28,25,26,51)          1.5814         estimate D2E/DX2                !
 ! D111  D(24,25,28,29)        -83.1421         estimate D2E/DX2                !
 ! D112  D(24,25,28,53)         39.8118         estimate D2E/DX2                !
 ! D113  D(24,25,28,54)        154.6462         estimate D2E/DX2                !
 ! D114  D(26,25,28,29)         94.3862         estimate D2E/DX2                !
 ! D115  D(26,25,28,53)       -142.6598         estimate D2E/DX2                !
 ! D116  D(26,25,28,54)        -27.8255         estimate D2E/DX2                !
 ! D117  D(25,26,27,22)          0.0367         estimate D2E/DX2                !
 ! D118  D(25,26,27,52)       -179.65           estimate D2E/DX2                !
 ! D119  D(51,26,27,22)       -179.3125         estimate D2E/DX2                !
 ! D120  D(51,26,27,52)          1.0009         estimate D2E/DX2                !
 ! D121  D(25,28,29,30)         74.7165         estimate D2E/DX2                !
 ! D122  D(25,28,29,35)        -64.6088         estimate D2E/DX2                !
 ! D123  D(53,28,29,30)        -48.6874         estimate D2E/DX2                !
 ! D124  D(53,28,29,35)        171.9872         estimate D2E/DX2                !
 ! D125  D(54,28,29,30)       -162.2071         estimate D2E/DX2                !
 ! D126  D(54,28,29,35)         58.4675         estimate D2E/DX2                !
 ! D127  D(28,29,30,31)        -94.1252         estimate D2E/DX2                !
 ! D128  D(28,29,30,55)         32.2043         estimate D2E/DX2                !
 ! D129  D(28,29,30,56)        147.2435         estimate D2E/DX2                !
 ! D130  D(35,29,30,31)         48.3432         estimate D2E/DX2                !
 ! D131  D(35,29,30,55)        174.6727         estimate D2E/DX2                !
 ! D132  D(35,29,30,56)        -70.2882         estimate D2E/DX2                !
 ! D133  D(28,29,35,34)         94.8196         estimate D2E/DX2                !
 ! D134  D(28,29,35,64)       -146.1102         estimate D2E/DX2                !
 ! D135  D(28,29,35,65)        -30.7799         estimate D2E/DX2                !
 ! D136  D(30,29,35,34)        -47.9571         estimate D2E/DX2                !
 ! D137  D(30,29,35,64)         71.1131         estimate D2E/DX2                !
 ! D138  D(30,29,35,65)       -173.5566         estimate D2E/DX2                !
 ! D139  D(29,30,31,32)        -53.0764         estimate D2E/DX2                !
 ! D140  D(29,30,31,57)       -175.038          estimate D2E/DX2                !
 ! D141  D(29,30,31,58)         67.4875         estimate D2E/DX2                !
 ! D142  D(55,30,31,32)       -179.1051         estimate D2E/DX2                !
 ! D143  D(55,30,31,57)         58.9334         estimate D2E/DX2                !
 ! D144  D(55,30,31,58)        -58.5411         estimate D2E/DX2                !
 ! D145  D(56,30,31,32)         65.3036         estimate D2E/DX2                !
 ! D146  D(56,30,31,57)        -56.658          estimate D2E/DX2                !
 ! D147  D(56,30,31,58)       -174.1325         estimate D2E/DX2                !
 ! D148  D(30,31,32,33)        -81.7835         estimate D2E/DX2                !
 ! D149  D(30,31,32,34)         52.5611         estimate D2E/DX2                !
 ! D150  D(57,31,32,33)         40.6565         estimate D2E/DX2                !
 ! D151  D(57,31,32,34)        175.0011         estimate D2E/DX2                !
 ! D152  D(58,31,32,33)        155.9364         estimate D2E/DX2                !
 ! D153  D(58,31,32,34)        -69.719          estimate D2E/DX2                !
 ! D154  D(31,32,33,59)         65.3754         estimate D2E/DX2                !
 ! D155  D(31,32,33,60)        -55.2379         estimate D2E/DX2                !
 ! D156  D(31,32,33,61)       -174.0454         estimate D2E/DX2                !
 ! D157  D(34,32,33,59)        -65.4563         estimate D2E/DX2                !
 ! D158  D(34,32,33,60)        173.9304         estimate D2E/DX2                !
 ! D159  D(34,32,33,61)         55.1228         estimate D2E/DX2                !
 ! D160  D(31,32,34,35)        -52.2808         estimate D2E/DX2                !
 ! D161  D(31,32,34,62)       -176.6486         estimate D2E/DX2                !
 ! D162  D(31,32,34,63)         67.9296         estimate D2E/DX2                !
 ! D163  D(33,32,34,35)         82.1275         estimate D2E/DX2                !
 ! D164  D(33,32,34,62)        -42.2403         estimate D2E/DX2                !
 ! D165  D(33,32,34,63)       -157.6621         estimate D2E/DX2                !
 ! D166  D(32,34,35,29)         52.3496         estimate D2E/DX2                !
 ! D167  D(32,34,35,64)        -66.4871         estimate D2E/DX2                !
 ! D168  D(32,34,35,65)        177.7901         estimate D2E/DX2                !
 ! D169  D(62,34,35,29)        175.9205         estimate D2E/DX2                !
 ! D170  D(62,34,35,64)         57.0838         estimate D2E/DX2                !
 ! D171  D(62,34,35,65)        -58.639          estimate D2E/DX2                !
 ! D172  D(63,34,35,29)        -66.5634         estimate D2E/DX2                !
 ! D173  D(63,34,35,64)        174.5999         estimate D2E/DX2                !
 ! D174  D(63,34,35,65)         58.8771         estimate D2E/DX2                !
 --------------------------------------------------------------------------------
 Trust Radius=3.00D-01 FncErr=1.00D-07 GrdErr=1.00D-06
 Number of steps in this run= 400 maximum allowed number of steps= 408.
 GradGradGradGradGradGradGradGradGradGradGradGradGradGradGradGradGradGrad

 Leave Link  103 at Wed Apr  8 22:20:35 2020, MaxMem= 2684354560 cpu:       0.1
 (Enter /opt/g09gh/gaussian/g09/l202.exe)
 Stoichiometry    C29H31N7O
 Framework group  C1[X(C29H31N7O)]
 Deg. of freedom   198
 Full point group                 C1      NOp   1
 Largest Abelian subgroup         C1      NOp   1
 Largest concise Abelian subgroup C1      NOp   1
                         Standard orientation:                         
 ---------------------------------------------------------------------
 Center     Atomic      Atomic             Coordinates (Angstroms)
 Number     Number       Type             X           Y           Z
 ---------------------------------------------------------------------
      1          6           0        2.706833    5.232460   -0.151385
      2          6           0        3.853598    4.443117    0.004594
      3          6           0        3.759790    3.039100   -0.074111
      4          6           0        2.468130    2.521174   -0.336116
      5          7           0        1.362367    3.260399   -0.490543
      6          6           0        1.486810    4.592468   -0.393642
      7          6           0        4.937861    2.112714    0.093801
      8          6           0        6.271879    2.535333    0.224718
      9          6           0        7.226340    1.520966    0.351971
     10          7           0        6.939285    0.222305    0.361944
     11          6           0        5.633496   -0.094010    0.242458
     12          7           0        4.648152    0.796366    0.111925
     13          7           0        5.369243   -1.450268    0.268478
     14          6           0        4.182518   -2.250028    0.110302
     15          6           0        4.325657   -3.645269   -0.163410
     16          6           0        3.150261   -4.395912   -0.322749
     17          6           0        1.863565   -3.858648   -0.219315
     18          6           0        1.731445   -2.496751    0.074167
     19          6           0        2.890809   -1.715614    0.222536
     20          7           0        0.481465   -1.810445    0.216596
     21          6           0       -0.806450   -2.225817   -0.032517
     22          6           0       -1.846779   -1.129734   -0.027904
     23          6           0       -2.420383   -0.701187    1.178411
     24          6           0       -3.358022    0.334112    1.179700
     25          6           0       -3.760299    0.963872   -0.014094
     26          6           0       -3.178684    0.513212   -1.215808
     27          6           0       -2.235438   -0.517354   -1.228308
     28          6           0       -4.829851    2.058083   -0.012114
     29          7           0       -6.255479    1.690291   -0.020467
     30          6           0       -6.879396    1.172032    1.218215
     31          6           0       -6.899944   -0.374441    1.333459
     32          7           0       -7.499350   -1.054075    0.159691
     33          6           0       -8.964293   -1.131936    0.121137
     34          6           0       -6.829106   -0.564839   -1.070204
     35          6           0       -6.799020    0.980319   -1.201185
     36          8           0       -1.117687   -3.388035   -0.228799
     37          6           0        5.670903   -4.340038   -0.299528
     38          1           0        2.755593    6.315411   -0.085818
     39          1           0        4.799671    4.941069    0.202065
     40          1           0        2.318285    1.451756   -0.445637
     41          1           0        0.566837    5.160683   -0.522241
     42          1           0        6.593629    3.569360    0.214039
     43          1           0        8.289378    1.739442    0.449879
     44          1           0        6.242977   -1.949889    0.335816
     45          1           0        3.223865   -5.460837   -0.539795
     46          1           0        0.983480   -4.474872   -0.353997
     47          1           0        2.797535   -0.665200    0.448763
     48          1           0        0.560883   -0.837191    0.478333
     49          1           0       -2.119951   -1.181434    2.106285
     50          1           0       -3.789351    0.649207    2.129471
     51          1           0       -3.471925    0.964651   -2.163304
     52          1           0       -1.788981   -0.853225   -2.160870
     53          1           0       -4.665008    2.693543    0.869364
     54          1           0       -4.668352    2.698305   -0.891031
     55          1           0       -6.372254    1.666729    2.179392
     56          1           0       -8.286711    1.630415    1.212541
     57          1           0       -7.574845   -0.732290    2.425877
     58          1           0       -5.745995   -0.812226    1.462025
     59          1           0       -9.407887   -0.134178    0.028961
     60          1           0       -9.341979   -1.603987    1.035354
     61          1           0       -9.288035   -1.742610   -0.729543
     62          1           0       -7.366688   -1.074134   -2.054085
     63          1           0       -5.443319   -1.067504   -1.023436
     64          1           0       -8.196621    1.438502   -1.377684
     65          1           0       -6.208235    1.307800   -2.191056
     66          1           0        6.272833   -4.283743    0.618855
     67          1           0        6.263973   -3.893050   -1.102195
     68          1           0        5.575529   -5.402565   -0.537799
 ---------------------------------------------------------------------
 Rotational constants (GHZ):      0.1541826      0.0437444      0.0350696
 Leave Link  202 at Wed Apr  8 22:20:35 2020, MaxMem= 2684354560 cpu:       0.0
 (Enter /opt/g09gh/gaussian/g09/l301.exe)
 Standard basis: 6-31G(d) (6D, 7F)
 Ernie: Thresh=  0.10000D-02 Tol=  0.10000D-05 Strict=F.
 There are   617 symmetry adapted basis functions of A   symmetry.
 Integral buffers will be    131072 words long.
 Raffenetti 2 integral format.
 Two-electron integral symmetry is turned on.
   617 basis functions,  1160 primitive gaussians,   617 cartesian basis functions
   131 alpha electrons      131 beta electrons
       nuclear repulsion energy      3640.2325920023 Hartrees.
 IExCor= 4639 DFT=T Ex+Corr=wB97XD ExCW=0 ScaHFX=  1.000000
 ScaDFX=  1.000000  1.000000  1.000000  1.000000 ScalE2=  1.000000  1.000000
 IRadAn=      0 IRanWt=     -1 IRanGd=            0 ICorTp=0
  HFx wShort=  0.000000 wLong=  0.200000 cFull=  0.222036 cShort=  0.000000 cLong=  0.777964
  DFx wShort=  0.000000 wLong=  0.200000 cFull=  0.000000 cShort=  0.000000 cLong=  1.000000
 NAtoms=   68 NActive=   68 NUniq=   68 SFac= 7.50D-01 NAtFMM=   80 NAOKFM=F Big=T
 R6Disp: Dispersion energy =        -0.0555373439 Hartrees.
 Nuclear repulsion after empirical dispersion term =     3640.1770546584 Hartrees.
 Leave Link  301 at Wed Apr  8 22:20:35 2020, MaxMem= 2684354560 cpu:       0.3
 (Enter /opt/g09gh/gaussian/g09/l302.exe)
 NPDir=0 NMtPBC=     1 NCelOv=     1 NCel=       1 NClECP=     1 NCelD=      1
         NCelK=      1 NCelE2=     1 NClLst=     1 CellRange=     0.0.
 One-electron integrals computed using PRISM.
 NBasis=   617 RedAO= T  NBF=   617
 NBsUse=   617 1.00D-06 NBFU=   617
 Precomputing XC quadrature grid using
 IXCGrd= 2 IRadAn=           0 IRanWt=          -1 IRanGd=           0 AccXCQ= 1.00D-10.
 NRdTot=    4410 NPtTot=      563904 NUsed=      595671 NTot=      595703
 NSgBfM=   581   581   581   581   581 NAtAll=    68    68.
 Leave Link  302 at Wed Apr  8 22:20:36 2020, MaxMem= 2684354560 cpu:       7.3
 (Enter /opt/g09gh/gaussian/g09/l303.exe)
 DipDrv:  MaxL=1.
 Leave Link  303 at Wed Apr  8 22:20:36 2020, MaxMem= 2684354560 cpu:       0.5
 (Enter /opt/g09gh/gaussian/g09/l401.exe)
 Harris functional with IExCor= 4639 diagonalized for initial guess.
 ExpMin= 1.61D-01 ExpMax= 5.48D+03 ExpMxC= 8.25D+02 IAcc=1 IRadAn=         1 AccDes= 0.00D+00
 HarFok:  IExCor= 4639 AccDes= 0.00D+00 IRadAn=         1 IDoV= 1
 ScaDFX=  1.000000  1.000000  1.000000  1.000000
 FoFCou: FMM=F IPFlag=           0 FMFlag=      100000 FMFlg1=           1
         NFxFlg=           0 DoJE=T BraDBF=F KetDBF=T FulRan=T
         Omega=  0.000000  0.000000  1.000000  0.000000  0.000000 ICntrl=     500 IOpCl=  0
         NMat0=    1 NMatS0=    1 NMatT0=    0 NMatD0=    1 NMtDS0=    0 NMtDT0=    0
         I1Cent=           4 NGrid=           0.
 Petite list used in FoFCou.
 Harris En= -1512.43268501050    
 Initial guess orbital symmetries:
       Occupied  (A) (A) (A) (A) (A) (A) (A) (A) (A) (A) (A) (A)
                 (A) (A) (A) (A) (A) (A) (A) (A) (A) (A) (A) (A)
                 (A) (A) (A) (A) (A) (A) (A) (A) (A) (A) (A) (A)
                 (A) (A) (A) (A) (A) (A) (A) (A) (A) (A) (A) (A)
                 (A) (A) (A) (A) (A) (A) (A) (A) (A) (A) (A) (A)
                 (A) (A) (A) (A) (A) (A) (A) (A) (A) (A) (A) (A)
                 (A) (A) (A) (A) (A) (A) (A) (A) (A) (A) (A) (A)
                 (A) (A) (A) (A) (A) (A) (A) (A) (A) (A) (A) (A)
                 (A) (A) (A) (A) (A) (A) (A) (A) (A) (A) (A) (A)
                 (A) (A) (A) (A) (A) (A) (A) (A) (A) (A) (A) (A)
                 (A) (A) (A) (A) (A) (A) (A) (A) (A) (A) (A)
       Virtual   (A) (A) (A) (A) (A) (A) (A) (A) (A) (A) (A) (A)
                 (A) (A) (A) (A) (A) (A) (A) (A) (A) (A) (A) (A)
                 (A) (A) (A) (A) (A) (A) (A) (A) (A) (A) (A) (A)
                 (A) (A) (A) (A) (A) (A) (A) (A) (A) (A) (A) (A)
                 (A) (A) (A) (A) (A) (A) (A) (A) (A) (A) (A) (A)
                 (A) (A) (A) (A) (A) (A) (A) (A) (A) (A) (A) (A)
                 (A) (A) (A) (A) (A) (A) (A) (A) (A) (A) (A) (A)
                 (A) (A) (A) (A) (A) (A) (A) (A) (A) (A) (A) (A)
                 (A) (A) (A) (A) (A) (A) (A) (A) (A) (A) (A) (A)
                 (A) (A) (A) (A) (A) (A) (A) (A) (A) (A) (A) (A)
                 (A) (A) (A) (A) (A) (A) (A) (A) (A) (A) (A) (A)
                 (A) (A) (A) (A) (A) (A) (A) (A) (A) (A) (A) (A)
                 (A) (A) (A) (A) (A) (A) (A) (A) (A) (A) (A) (A)
                 (A) (A) (A) (A) (A) (A) (A) (A) (A) (A) (A) (A)
                 (A) (A) (A) (A) (A) (A) (A) (A) (A) (A) (A) (A)
                 (A) (A) (A) (A) (A) (A) (A) (A) (A) (A) (A) (A)
                 (A) (A) (A) (A) (A) (A) (A) (A) (A) (A) (A) (A)
                 (A) (A) (A) (A) (A) (A) (A) (A) (A) (A) (A) (A)
                 (A) (A) (A) (A) (A) (A) (A) (A) (A) (A) (A) (A)
                 (A) (A) (A) (A) (A) (A) (A) (A) (A) (A) (A) (A)
                 (A) (A) (A) (A) (A) (A) (A) (A) (A) (A) (A) (A)
                 (A) (A) (A) (A) (A) (A) (A) (A) (A) (A) (A) (A)
                 (A) (A) (A) (A) (A) (A) (A) (A) (A) (A) (A) (A)
                 (A) (A) (A) (A) (A) (A) (A) (A) (A) (A) (A) (A)
                 (A) (A) (A) (A) (A) (A) (A) (A) (A) (A) (A) (A)
                 (A) (A) (A) (A) (A) (A) (A) (A) (A) (A) (A) (A)
                 (A) (A) (A) (A) (A) (A) (A) (A) (A) (A) (A) (A)
                 (A) (A) (A) (A) (A) (A) (A) (A) (A) (A) (A) (A)
                 (A) (A) (A) (A) (A) (A) (A) (A) (A) (A) (A) (A)
                 (A) (A) (A) (A) (A) (A) (A) (A) (A) (A) (A) (A)
                 (A) (A) (A) (A) (A) (A) (A) (A) (A) (A) (A) (A)
                 (A) (A) (A) (A) (A) (A) (A) (A) (A) (A) (A) (A)
                 (A) (A) (A) (A) (A) (A) (A) (A) (A) (A) (A) (A)
                 (A) (A) (A) (A) (A) (A) (A) (A) (A) (A) (A) (A)
                 (A) (A) (A) (A) (A) (A) (A) (A) (A) (A) (A) (A)
                 (A) (A) (A) (A) (A) (A) (A) (A) (A) (A) (A) (A)
                 (A) (A) (A) (A) (A) (A) (A) (A) (A) (A) (A) (A)
                 (A) (A) (A) (A) (A) (A) (A) (A) (A) (A) (A) (A)
                 (A) (A) (A) (A) (A) (A) (A) (A) (A) (A) (A) (A)
                 (A) (A) (A) (A) (A) (A) (A) (A) (A) (A) (A) (A)
                 (A) (A) (A) (A) (A) (A)
 The electronic state of the initial guess is 1-A.
 Leave Link  401 at Wed Apr  8 22:20:39 2020, MaxMem= 2684354560 cpu:      15.6
 (Enter /opt/g09gh/gaussian/g09/l502.exe)
 Closed shell SCF:
 Requested convergence on RMS density matrix=1.00D-08 within 128 cycles.
 Requested convergence on MAX density matrix=1.00D-06.
 Requested convergence on             energy=1.00D-06.
 No special actions if energy rises.
 Using DIIS extrapolation, IDIIS=  1040.
 Integral symmetry usage will be decided dynamically.
       595046 words used for storage of precomputed grid.
 IEnd=     1763626 IEndB=     1763626 NGot=  2684354560 MDV=  2682988881
 LenX=  2682988881 LenY=  2682607575
 Fock matrices will be formed incrementally for  20 cycles.
 Integral accuracy reduced to 1.0D-05 until final iterations.

 Cycle   1  Pass 0  IDiag  1:
 FoFJK:  IHMeth= 1 ICntrl=     0 DoSepK=T KAlg= 1 I1Cent= 0 FoldK=F
 FoFCou: FMM=T IPFlag=           0 FMFlag=      100000 FMFlg1=           1
         NFxFlg=           0 DoJE=T BraDBF=F KetDBF=F FulRan=T
         Omega=  0.000000  0.000000  1.000000  0.000000  0.000000 ICntrl=     500 IOpCl=  0
         NMat0=    1 NMatS0=    1 NMatT0=    0 NMatD0=    1 NMtDS0=    0 NMtDT0=    0
         I1Cent=           0 NGrid=           0.
 Symmetry not used in FoFCou.
 FMM levels:  10  Number of levels for PrismC:   9
 E= -1581.19217380322    
 DIIS: error= 6.17D-02 at cycle   1 NSaved=   1.
 NSaved= 1 IEnMin= 1 EnMin= -1581.19217380322     IErMin= 1 ErrMin= 6.17D-02
 ErrMax= 6.17D-02 EMaxC= 1.00D-01 BMatC= 1.46D+00 BMatP= 1.46D+00
 IDIUse=3 WtCom= 3.83D-01 WtEn= 6.17D-01
 Coeff-Com:  0.100D+01
 Coeff-En:   0.100D+01
 Coeff:      0.100D+01
 Gap=     0.267 Goal=   None    Shift=    0.000
 GapD=    0.267 DampG=1.000 DampE=0.500 DampFc=0.5000 IDamp=-1.
 Damping current iteration by 5.00D-01
 RMSDP=1.86D-03 MaxDP=9.02D-02              OVMax= 1.71D-01

 Cycle   2  Pass 0  IDiag  1:
 RMSU=  6.56D-04    CP:  1.00D+00
 FoFJK:  IHMeth= 1 ICntrl=     0 DoSepK=T KAlg= 1 I1Cent= 0 FoldK=F
 E= -1581.36752336996     Delta-E=       -0.175349566734 Rises=F Damp=T
 DIIS: error= 3.13D-02 at cycle   2 NSaved=   2.
 NSaved= 2 IEnMin= 2 EnMin= -1581.36752336996     IErMin= 2 ErrMin= 3.13D-02
 ErrMax= 3.13D-02 EMaxC= 1.00D-01 BMatC= 3.22D-01 BMatP= 1.46D+00
 IDIUse=3 WtCom= 6.87D-01 WtEn= 3.13D-01
 Coeff-Com: -0.662D+00 0.166D+01
 Coeff-En:   0.000D+00 0.100D+01
 Coeff:     -0.454D+00 0.145D+01
 Gap=     0.286 Goal=   None    Shift=    0.000
 RMSDP=8.59D-04 MaxDP=3.90D-02 DE=-1.75D-01 OVMax= 1.21D-01

 Cycle   3  Pass 0  IDiag  1:
 RMSU=  5.51D-04    CP:  1.00D+00  1.39D+00
 FoFJK:  IHMeth= 1 ICntrl=     0 DoSepK=T KAlg= 1 I1Cent= 0 FoldK=F
 E= -1581.50041426255     Delta-E=       -0.132890892593 Rises=F Damp=F
 DIIS: error= 7.92D-03 at cycle   3 NSaved=   3.
 NSaved= 3 IEnMin= 3 EnMin= -1581.50041426255     IErMin= 3 ErrMin= 7.92D-03
 ErrMax= 7.92D-03 EMaxC= 1.00D-01 BMatC= 5.68D-02 BMatP= 3.22D-01
 IDIUse=3 WtCom= 9.21D-01 WtEn= 7.92D-02
 Coeff-Com: -0.357D+00 0.739D+00 0.618D+00
 Coeff-En:   0.000D+00 0.000D+00 0.100D+01
 Coeff:     -0.329D+00 0.680D+00 0.649D+00
 Gap=     0.259 Goal=   None    Shift=    0.000
 RMSDP=4.50D-04 MaxDP=3.17D-02 DE=-1.33D-01 OVMax= 6.20D-02

 Cycle   4  Pass 0  IDiag  1:
 RMSU=  1.40D-04    CP:  1.00D+00  1.67D+00  6.05D-01
 FoFJK:  IHMeth= 1 ICntrl=     0 DoSepK=T KAlg= 1 I1Cent= 0 FoldK=F
 E= -1581.55070746522     Delta-E=       -0.050293202668 Rises=F Damp=F
 DIIS: error= 2.17D-03 at cycle   4 NSaved=   4.
 NSaved= 4 IEnMin= 4 EnMin= -1581.55070746522     IErMin= 4 ErrMin= 2.17D-03
 ErrMax= 2.17D-03 EMaxC= 1.00D-01 BMatC= 3.66D-03 BMatP= 5.68D-02
 IDIUse=3 WtCom= 9.78D-01 WtEn= 2.17D-02
 Coeff-Com: -0.159D+00 0.325D+00 0.349D+00 0.486D+00
 Coeff-En:   0.000D+00 0.000D+00 0.000D+00 0.100D+01
 Coeff:     -0.156D+00 0.318D+00 0.341D+00 0.497D+00
 Gap=     0.254 Goal=   None    Shift=    0.000
 RMSDP=9.87D-05 MaxDP=9.42D-03 DE=-5.03D-02 OVMax= 1.04D-02

 Cycle   5  Pass 0  IDiag  1:
 RMSU=  4.40D-05    CP:  1.00D+00  1.65D+00  6.70D-01  7.22D-01
 FoFJK:  IHMeth= 1 ICntrl=     0 DoSepK=T KAlg= 1 I1Cent= 0 FoldK=F
 E= -1581.55385023596     Delta-E=       -0.003142770738 Rises=F Damp=F
 DIIS: error= 5.10D-04 at cycle   5 NSaved=   5.
 NSaved= 5 IEnMin= 5 EnMin= -1581.55385023596     IErMin= 5 ErrMin= 5.10D-04
 ErrMax= 5.10D-04 EMaxC= 1.00D-01 BMatC= 8.84D-05 BMatP= 3.66D-03
 IDIUse=3 WtCom= 9.95D-01 WtEn= 5.10D-03
 Coeff-Com: -0.166D-01 0.329D-01 0.571D-01 0.161D+00 0.765D+00
 Coeff-En:   0.000D+00 0.000D+00 0.000D+00 0.000D+00 0.100D+01
 Coeff:     -0.165D-01 0.327D-01 0.568D-01 0.160D+00 0.767D+00
 Gap=     0.252 Goal=   None    Shift=    0.000
 RMSDP=2.30D-05 MaxDP=2.58D-03 DE=-3.14D-03 OVMax= 2.65D-03

 Cycle   6  Pass 0  IDiag  1:
 RMSU=  1.27D-05    CP:  1.00D+00  1.66D+00  6.77D-01  7.83D-01  9.93D-01
 FoFJK:  IHMeth= 1 ICntrl=     0 DoSepK=T KAlg= 1 I1Cent= 0 FoldK=F
 E= -1581.55393297728     Delta-E=       -0.000082741323 Rises=F Damp=F
 DIIS: error= 2.91D-04 at cycle   6 NSaved=   6.
 NSaved= 6 IEnMin= 6 EnMin= -1581.55393297728     IErMin= 6 ErrMin= 2.91D-04
 ErrMax= 2.91D-04 EMaxC= 1.00D-01 BMatC= 2.59D-05 BMatP= 8.84D-05
 IDIUse=3 WtCom= 9.97D-01 WtEn= 2.91D-03
 Coeff-Com:  0.226D-01-0.467D-01-0.366D-01-0.149D-01 0.391D+00 0.684D+00
 Coeff-En:   0.000D+00 0.000D+00 0.000D+00 0.000D+00 0.000D+00 0.100D+01
 Coeff:      0.225D-01-0.466D-01-0.365D-01-0.149D-01 0.390D+00 0.685D+00
 Gap=     0.253 Goal=   None    Shift=    0.000
 RMSDP=1.27D-05 MaxDP=8.94D-04 DE=-8.27D-05 OVMax= 1.68D-03

 Cycle   7  Pass 0  IDiag  1:
 RMSU=  5.48D-06    CP:  1.00D+00  1.66D+00  6.81D-01  8.12D-01  1.11D+00
                    CP:  8.79D-01
 FoFJK:  IHMeth= 1 ICntrl=     0 DoSepK=T KAlg= 1 I1Cent= 0 FoldK=F
 E= -1581.55396150746     Delta-E=       -0.000028530180 Rises=F Damp=F
 DIIS: error= 5.74D-05 at cycle   7 NSaved=   7.
 NSaved= 7 IEnMin= 7 EnMin= -1581.55396150746     IErMin= 7 ErrMin= 5.74D-05
 ErrMax= 5.74D-05 EMaxC= 1.00D-01 BMatC= 1.60D-06 BMatP= 2.59D-05
 IDIUse=1 WtCom= 1.00D+00 WtEn= 0.00D+00
 Coeff-Com:  0.951D-02-0.195D-01-0.173D-01-0.198D-01 0.677D-01 0.239D+00
 Coeff-Com:  0.740D+00
 Coeff:      0.951D-02-0.195D-01-0.173D-01-0.198D-01 0.677D-01 0.239D+00
 Coeff:      0.740D+00
 Gap=     0.253 Goal=   None    Shift=    0.000
 RMSDP=3.88D-06 MaxDP=2.50D-04 DE=-2.85D-05 OVMax= 6.13D-04

 Initial convergence to 1.0D-05 achieved.  Increase integral accuracy.
 Cycle   8  Pass 1  IDiag  1:
 FoFJK:  IHMeth= 1 ICntrl=     0 DoSepK=T KAlg= 1 I1Cent= 0 FoldK=F
 E= -1581.55171761687     Delta-E=        0.002243890589 Rises=F Damp=F
 DIIS: error= 8.86D-05 at cycle   1 NSaved=   1.
 NSaved= 1 IEnMin= 1 EnMin= -1581.55171761687     IErMin= 1 ErrMin= 8.86D-05
 ErrMax= 8.86D-05 EMaxC= 1.00D-01 BMatC= 1.45D-05 BMatP= 1.45D-05
 IDIUse=1 WtCom= 1.00D+00 WtEn= 0.00D+00
 Coeff-Com:  0.100D+01
 Coeff:      0.100D+01
 Gap=     0.253 Goal=   None    Shift=    0.000
 RMSDP=3.88D-06 MaxDP=2.50D-04 DE= 2.24D-03 OVMax= 4.09D-04

 Cycle   9  Pass 1  IDiag  1:
 RMSU=  1.86D-05    CP:  1.00D+00
 FoFJK:  IHMeth= 1 ICntrl=     0 DoSepK=T KAlg= 1 I1Cent= 0 FoldK=F
 E= -1581.55172933555     Delta-E=       -0.000011718677 Rises=F Damp=F
 DIIS: error= 2.82D-05 at cycle   2 NSaved=   2.
 NSaved= 2 IEnMin= 2 EnMin= -1581.55172933555     IErMin= 2 ErrMin= 2.82D-05
 ErrMax= 2.82D-05 EMaxC= 1.00D-01 BMatC= 7.85D-07 BMatP= 1.45D-05
 IDIUse=1 WtCom= 1.00D+00 WtEn= 0.00D+00
 Coeff-Com:  0.275D-01 0.973D+00
 Coeff:      0.275D-01 0.973D+00
 Gap=     0.253 Goal=   None    Shift=    0.000
 RMSDP=3.12D-06 MaxDP=1.97D-04 DE=-1.17D-05 OVMax= 2.94D-04

 Cycle  10  Pass 1  IDiag  1:
 RMSU=  2.06D-06    CP:  1.00D+00  1.04D+00
 FoFJK:  IHMeth= 1 ICntrl=     0 DoSepK=T KAlg= 1 I1Cent= 0 FoldK=F
 E= -1581.55172947249     Delta-E=       -0.000000136941 Rises=F Damp=F
 DIIS: error= 3.71D-05 at cycle   3 NSaved=   3.
 NSaved= 3 IEnMin= 3 EnMin= -1581.55172947249     IErMin= 2 ErrMin= 2.82D-05
 ErrMax= 3.71D-05 EMaxC= 1.00D-01 BMatC= 8.78D-07 BMatP= 7.85D-07
 IDIUse=1 WtCom= 1.00D+00 WtEn= 0.00D+00
 Coeff-Com: -0.398D-01 0.530D+00 0.510D+00
 Coeff:     -0.398D-01 0.530D+00 0.510D+00
 Gap=     0.253 Goal=   None    Shift=    0.000
 RMSDP=1.55D-06 MaxDP=1.41D-04 DE=-1.37D-07 OVMax= 1.53D-04

 Cycle  11  Pass 1  IDiag  1:
 RMSU=  6.39D-07    CP:  1.00D+00  1.05D+00  5.79D-01
 FoFJK:  IHMeth= 1 ICntrl=     0 DoSepK=T KAlg= 1 I1Cent= 0 FoldK=F
 E= -1581.55173025065     Delta-E=       -0.000000778162 Rises=F Damp=F
 DIIS: error= 8.43D-06 at cycle   4 NSaved=   4.
 NSaved= 4 IEnMin= 4 EnMin= -1581.55173025065     IErMin= 4 ErrMin= 8.43D-06
 ErrMax= 8.43D-06 EMaxC= 1.00D-01 BMatC= 2.89D-08 BMatP= 7.85D-07
 IDIUse=1 WtCom= 1.00D+00 WtEn= 0.00D+00
 Coeff-Com: -0.184D-01 0.133D+00 0.193D+00 0.692D+00
 Coeff:     -0.184D-01 0.133D+00 0.193D+00 0.692D+00
 Gap=     0.253 Goal=   None    Shift=    0.000
 RMSDP=3.60D-07 MaxDP=3.82D-05 DE=-7.78D-07 OVMax= 3.93D-05

 Cycle  12  Pass 1  IDiag  1:
 RMSU=  2.31D-07    CP:  1.00D+00  1.05D+00  6.30D-01  1.01D+00
 FoFJK:  IHMeth= 1 ICntrl=     0 DoSepK=T KAlg= 1 I1Cent= 0 FoldK=F
 E= -1581.55173027755     Delta-E=       -0.000000026904 Rises=F Damp=F
 DIIS: error= 3.52D-06 at cycle   5 NSaved=   5.
 NSaved= 5 IEnMin= 5 EnMin= -1581.55173027755     IErMin= 5 ErrMin= 3.52D-06
 ErrMax= 3.52D-06 EMaxC= 1.00D-01 BMatC= 5.47D-09 BMatP= 2.89D-08
 IDIUse=1 WtCom= 1.00D+00 WtEn= 0.00D+00
 Coeff-Com: -0.773D-03-0.307D-01-0.359D-02 0.301D+00 0.735D+00
 Coeff:     -0.773D-03-0.307D-01-0.359D-02 0.301D+00 0.735D+00
 Gap=     0.253 Goal=   None    Shift=    0.000
 RMSDP=1.92D-07 MaxDP=1.46D-05 DE=-2.69D-08 OVMax= 2.43D-05

 Cycle  13  Pass 1  IDiag  1:
 RMSU=  9.30D-08    CP:  1.00D+00  1.05D+00  6.49D-01  1.15D+00  9.24D-01
 FoFJK:  IHMeth= 1 ICntrl=     0 DoSepK=T KAlg= 1 I1Cent= 0 FoldK=F
 E= -1581.55173028502     Delta-E=       -0.000000007466 Rises=F Damp=F
 DIIS: error= 7.94D-07 at cycle   6 NSaved=   6.
 NSaved= 6 IEnMin= 6 EnMin= -1581.55173028502     IErMin= 6 ErrMin= 7.94D-07
 ErrMax= 7.94D-07 EMaxC= 1.00D-01 BMatC= 6.26D-10 BMatP= 5.47D-09
 IDIUse=1 WtCom= 1.00D+00 WtEn= 0.00D+00
 Coeff-Com:  0.202D-02-0.274D-01-0.265D-01 0.176D-01 0.267D+00 0.767D+00
 Coeff:      0.202D-02-0.274D-01-0.265D-01 0.176D-01 0.267D+00 0.767D+00
 Gap=     0.253 Goal=   None    Shift=    0.000
 RMSDP=8.43D-08 MaxDP=4.42D-06 DE=-7.47D-09 OVMax= 1.73D-05

 Cycle  14  Pass 1  IDiag  1:
 RMSU=  3.64D-08    CP:  1.00D+00  1.05D+00  6.52D-01  1.20D+00  1.06D+00
                    CP:  1.06D+00
 FoFJK:  IHMeth= 1 ICntrl=     0 DoSepK=T KAlg= 1 I1Cent= 0 FoldK=F
 E= -1581.55173028633     Delta-E=       -0.000000001307 Rises=F Damp=F
 DIIS: error= 3.54D-07 at cycle   7 NSaved=   7.
 NSaved= 7 IEnMin= 7 EnMin= -1581.55173028633     IErMin= 7 ErrMin= 3.54D-07
 ErrMax= 3.54D-07 EMaxC= 1.00D-01 BMatC= 1.21D-10 BMatP= 6.26D-10
 IDIUse=1 WtCom= 1.00D+00 WtEn= 0.00D+00
 Coeff-Com:  0.901D-03-0.498D-02-0.105D-01-0.537D-01-0.337D-01 0.293D+00
 Coeff-Com:  0.809D+00
 Coeff:      0.901D-03-0.498D-02-0.105D-01-0.537D-01-0.337D-01 0.293D+00
 Coeff:      0.809D+00
 Gap=     0.253 Goal=   None    Shift=    0.000
 RMSDP=4.50D-08 MaxDP=1.73D-06 DE=-1.31D-09 OVMax= 8.51D-06

 Cycle  15  Pass 1  IDiag  1:
 RMSU=  1.61D-08    CP:  1.00D+00  1.05D+00  6.57D-01  1.22D+00  1.11D+00
                    CP:  1.25D+00  1.08D+00
 FoFJK:  IHMeth= 1 ICntrl=     0 DoSepK=T KAlg= 1 I1Cent= 0 FoldK=F
 E= -1581.55173028663     Delta-E=       -0.000000000301 Rises=F Damp=F
 DIIS: error= 1.70D-07 at cycle   8 NSaved=   8.
 NSaved= 8 IEnMin= 8 EnMin= -1581.55173028663     IErMin= 8 ErrMin= 1.70D-07
 ErrMax= 1.70D-07 EMaxC= 1.00D-01 BMatC= 2.01D-11 BMatP= 1.21D-10
 IDIUse=1 WtCom= 1.00D+00 WtEn= 0.00D+00
 Coeff-Com: -0.165D-04 0.305D-02 0.777D-03-0.219D-01-0.561D-01-0.275D-01
 Coeff-Com:  0.294D+00 0.807D+00
 Coeff:     -0.165D-04 0.305D-02 0.777D-03-0.219D-01-0.561D-01-0.275D-01
 Coeff:      0.294D+00 0.807D+00
 Gap=     0.253 Goal=   None    Shift=    0.000
 RMSDP=1.87D-08 MaxDP=8.82D-07 DE=-3.01D-10 OVMax= 4.74D-06

 Cycle  16  Pass 1  IDiag  1:
 RMSU=  6.65D-09    CP:  1.00D+00  1.05D+00  6.57D-01  1.23D+00  1.13D+00
                    CP:  1.32D+00  1.28D+00  1.05D+00
 FoFJK:  IHMeth= 1 ICntrl=     0 DoSepK=T KAlg= 1 I1Cent= 0 FoldK=F
 E= -1581.55173028667     Delta-E=       -0.000000000044 Rises=F Damp=F
 DIIS: error= 6.53D-08 at cycle   9 NSaved=   9.
 NSaved= 9 IEnMin= 9 EnMin= -1581.55173028667     IErMin= 9 ErrMin= 6.53D-08
 ErrMax= 6.53D-08 EMaxC= 1.00D-01 BMatC= 3.77D-12 BMatP= 2.01D-11
 IDIUse=1 WtCom= 1.00D+00 WtEn= 0.00D+00
 Coeff-Com: -0.176D-03 0.217D-02 0.235D-02 0.165D-02-0.164D-01-0.686D-01
 Coeff-Com: -0.435D-01 0.307D+00 0.816D+00
 Coeff:     -0.176D-03 0.217D-02 0.235D-02 0.165D-02-0.164D-01-0.686D-01
 Coeff:     -0.435D-01 0.307D+00 0.816D+00
 Gap=     0.253 Goal=   None    Shift=    0.000
 RMSDP=8.19D-09 MaxDP=4.16D-07 DE=-4.37D-11 OVMax= 2.00D-06

 SCF Done:  E(RwB97XD) =  -1581.55173029     A.U. after   16 cycles
             Convg  =    0.8195D-08             -V/T =  2.0111
 KE= 1.564169825815D+03 PE=-1.094905317905D+04 EE= 4.163154568285D+03
 Leave Link  502 at Wed Apr  8 22:23:18 2020, MaxMem= 2684354560 cpu:     949.1
 (Enter /opt/g09gh/gaussian/g09/l601.exe)
 Copying SCF densities to generalized density rwf, IOpCl= 0 IROHF=0.

 **********************************************************************

            Population analysis using the SCF density.

 **********************************************************************

 Orbital symmetries:
       Occupied  (A) (A) (A) (A) (A) (A) (A) (A) (A) (A) (A) (A)
                 (A) (A) (A) (A) (A) (A) (A) (A) (A) (A) (A) (A)
                 (A) (A) (A) (A) (A) (A) (A) (A) (A) (A) (A) (A)
                 (A) (A) (A) (A) (A) (A) (A) (A) (A) (A) (A) (A)
                 (A) (A) (A) (A) (A) (A) (A) (A) (A) (A) (A) (A)
                 (A) (A) (A) (A) (A) (A) (A) (A) (A) (A) (A) (A)
                 (A) (A) (A) (A) (A) (A) (A) (A) (A) (A) (A) (A)
                 (A) (A) (A) (A) (A) (A) (A) (A) (A) (A) (A) (A)
                 (A) (A) (A) (A) (A) (A) (A) (A) (A) (A) (A) (A)
                 (A) (A) (A) (A) (A) (A) (A) (A) (A) (A) (A) (A)
                 (A) (A) (A) (A) (A) (A) (A) (A) (A) (A) (A)
       Virtual   (A) (A) (A) (A) (A) (A) (A) (A) (A) (A) (A) (A)
                 (A) (A) (A) (A) (A) (A) (A) (A) (A) (A) (A) (A)
                 (A) (A) (A) (A) (A) (A) (A) (A) (A) (A) (A) (A)
                 (A) (A) (A) (A) (A) (A) (A) (A) (A) (A) (A) (A)
                 (A) (A) (A) (A) (A) (A) (A) (A) (A) (A) (A) (A)
                 (A) (A) (A) (A) (A) (A) (A) (A) (A) (A) (A) (A)
                 (A) (A) (A) (A) (A) (A) (A) (A) (A) (A) (A) (A)
                 (A) (A) (A) (A) (A) (A) (A) (A) (A) (A) (A) (A)
                 (A) (A) (A) (A) (A) (A) (A) (A) (A) (A) (A) (A)
                 (A) (A) (A) (A) (A) (A) (A) (A) (A) (A) (A) (A)
                 (A) (A) (A) (A) (A) (A) (A) (A) (A) (A) (A) (A)
                 (A) (A) (A) (A) (A) (A) (A) (A) (A) (A) (A) (A)
                 (A) (A) (A) (A) (A) (A) (A) (A) (A) (A) (A) (A)
                 (A) (A) (A) (A) (A) (A) (A) (A) (A) (A) (A) (A)
                 (A) (A) (A) (A) (A) (A) (A) (A) (A) (A) (A) (A)
                 (A) (A) (A) (A) (A) (A) (A) (A) (A) (A) (A) (A)
                 (A) (A) (A) (A) (A) (A) (A) (A) (A) (A) (A) (A)
                 (A) (A) (A) (A) (A) (A) (A) (A) (A) (A) (A) (A)
                 (A) (A) (A) (A) (A) (A) (A) (A) (A) (A) (A) (A)
                 (A) (A) (A) (A) (A) (A) (A) (A) (A) (A) (A) (A)
                 (A) (A) (A) (A) (A) (A) (A) (A) (A) (A) (A) (A)
                 (A) (A) (A) (A) (A) (A) (A) (A) (A) (A) (A) (A)
                 (A) (A) (A) (A) (A) (A) (A) (A) (A) (A) (A) (A)
                 (A) (A) (A) (A) (A) (A) (A) (A) (A) (A) (A) (A)
                 (A) (A) (A) (A) (A) (A) (A) (A) (A) (A) (A) (A)
                 (A) (A) (A) (A) (A) (A) (A) (A) (A) (A) (A) (A)
                 (A) (A) (A) (A) (A) (A) (A) (A) (A) (A) (A) (A)
                 (A) (A) (A) (A) (A) (A) (A) (A) (A) (A) (A) (A)
                 (A) (A) (A) (A) (A) (A) (A) (A) (A) (A) (A) (A)
                 (A) (A) (A) (A) (A) (A) (A) (A) (A) (A) (A) (A)
                 (A) (A) (A) (A) (A) (A) (A) (A) (A) (A) (A) (A)
                 (A) (A) (A) (A) (A) (A) (A) (A) (A) (A) (A) (A)
                 (A) (A) (A) (A) (A) (A) (A) (A) (A) (A) (A) (A)
                 (A) (A) (A) (A) (A) (A) (A) (A) (A) (A) (A) (A)
                 (A) (A) (A) (A) (A) (A) (A) (A) (A) (A) (A) (A)
                 (A) (A) (A) (A) (A) (A) (A) (A) (A) (A) (A) (A)
                 (A) (A) (A) (A) (A) (A) (A) (A) (A) (A) (A) (A)
                 (A) (A) (A) (A) (A) (A) (A) (A) (A) (A) (A) (A)
                 (A) (A) (A) (A) (A) (A) (A) (A) (A) (A) (A) (A)
                 (A) (A) (A) (A) (A) (A) (A) (A) (A) (A) (A) (A)
                 (A) (A) (A) (A) (A) (A)
 The electronic state is 1-A.
 Alpha  occ. eigenvalues --  -19.23961 -14.49394 -14.49193 -14.45949 -14.45943
 Alpha  occ. eigenvalues --  -14.45934 -14.45762 -14.44256 -10.41916 -10.40799
 Alpha  occ. eigenvalues --  -10.38131 -10.36519 -10.36390 -10.36260 -10.35973
 Alpha  occ. eigenvalues --  -10.35899 -10.35185 -10.35124 -10.34876 -10.34720
 Alpha  occ. eigenvalues --  -10.34038 -10.33867 -10.33740 -10.32592 -10.32064
 Alpha  occ. eigenvalues --  -10.31890 -10.31605 -10.31428 -10.31361 -10.31268
 Alpha  occ. eigenvalues --  -10.31040 -10.31008 -10.30821 -10.30264 -10.30187
 Alpha  occ. eigenvalues --  -10.29971 -10.29144  -1.13900  -1.11558  -1.05151
 Alpha  occ. eigenvalues --   -1.03798  -1.03189  -1.02995  -0.99982  -0.99056
 Alpha  occ. eigenvalues --   -0.96124  -0.94596  -0.92241  -0.89226  -0.88055
 Alpha  occ. eigenvalues --   -0.86878  -0.86390  -0.85012  -0.83854  -0.82734
 Alpha  occ. eigenvalues --   -0.81660  -0.79502  -0.77714  -0.77669  -0.75926
 Alpha  occ. eigenvalues --   -0.73152  -0.72674  -0.72201  -0.71038  -0.70362
 Alpha  occ. eigenvalues --   -0.70014  -0.69526  -0.67994  -0.66446  -0.64619
 Alpha  occ. eigenvalues --   -0.63078  -0.62438  -0.61486  -0.60365  -0.59747
 Alpha  occ. eigenvalues --   -0.58440  -0.57564  -0.56703  -0.56576  -0.56062
 Alpha  occ. eigenvalues --   -0.55686  -0.55184  -0.54697  -0.54377  -0.53775
 Alpha  occ. eigenvalues --   -0.53443  -0.52342  -0.52176  -0.51702  -0.51387
 Alpha  occ. eigenvalues --   -0.51137  -0.51063  -0.50865  -0.50679  -0.50418
 Alpha  occ. eigenvalues --   -0.49893  -0.49829  -0.49420  -0.49376  -0.48230
 Alpha  occ. eigenvalues --   -0.47512  -0.46336  -0.45994  -0.45914  -0.45816
 Alpha  occ. eigenvalues --   -0.45415  -0.44634  -0.44229  -0.43955  -0.43905
 Alpha  occ. eigenvalues --   -0.43452  -0.43095  -0.42136  -0.41311  -0.40093
 Alpha  occ. eigenvalues --   -0.40030  -0.38592  -0.38049  -0.37097  -0.36426
 Alpha  occ. eigenvalues --   -0.35141  -0.35091  -0.34262  -0.33414  -0.33101
 Alpha  occ. eigenvalues --   -0.33073  -0.31584  -0.30923  -0.29562  -0.27477
 Alpha  occ. eigenvalues --   -0.25774
 Alpha virt. eigenvalues --   -0.00435   0.03205   0.04611   0.05161   0.05758
 Alpha virt. eigenvalues --    0.06369   0.07550   0.09805   0.09847   0.12399
 Alpha virt. eigenvalues --    0.12731   0.14074   0.14942   0.15437   0.16023
 Alpha virt. eigenvalues --    0.16103   0.17282   0.17821   0.18913   0.19195
 Alpha virt. eigenvalues --    0.19342   0.19655   0.20131   0.20686   0.21726
 Alpha virt. eigenvalues --    0.21830   0.22822   0.22951   0.23326   0.23953
 Alpha virt. eigenvalues --    0.24108   0.24178   0.24391   0.25142   0.25307
 Alpha virt. eigenvalues --    0.25427   0.25470   0.25809   0.26324   0.26779
 Alpha virt. eigenvalues --    0.27457   0.27787   0.28076   0.28321   0.28455
 Alpha virt. eigenvalues --    0.28851   0.29085   0.29600   0.29985   0.30957
 Alpha virt. eigenvalues --    0.31724   0.32100   0.32252   0.33394   0.33655
 Alpha virt. eigenvalues --    0.33822   0.34398   0.35398   0.36556   0.37260
 Alpha virt. eigenvalues --    0.37960   0.38078   0.38720   0.38919   0.40064
 Alpha virt. eigenvalues --    0.40248   0.40527   0.41026   0.41365   0.42584
 Alpha virt. eigenvalues --    0.43458   0.44958   0.45136   0.46326   0.46897
 Alpha virt. eigenvalues --    0.47991   0.49472   0.51052   0.52420   0.53849
 Alpha virt. eigenvalues --    0.55301   0.55463   0.56585   0.57073   0.57640
 Alpha virt. eigenvalues --    0.58668   0.58874   0.59437   0.59724   0.59758
 Alpha virt. eigenvalues --    0.60099   0.60718   0.61221   0.61324   0.62084
 Alpha virt. eigenvalues --    0.62343   0.62895   0.63259   0.63619   0.63865
 Alpha virt. eigenvalues --    0.64339   0.64707   0.64886   0.65207   0.65473
 Alpha virt. eigenvalues --    0.65551   0.65962   0.66496   0.66514   0.66676
 Alpha virt. eigenvalues --    0.67051   0.67178   0.67339   0.68217   0.68345
 Alpha virt. eigenvalues --    0.68784   0.68964   0.69796   0.70001   0.70434
 Alpha virt. eigenvalues --    0.70653   0.71010   0.71252   0.71408   0.71753
 Alpha virt. eigenvalues --    0.72082   0.72236   0.72601   0.73009   0.73227
 Alpha virt. eigenvalues --    0.74136   0.74513   0.74698   0.75474   0.75987
 Alpha virt. eigenvalues --    0.76783   0.77635   0.78245   0.79899   0.80620
 Alpha virt. eigenvalues --    0.81012   0.81157   0.81555   0.81801   0.82107
 Alpha virt. eigenvalues --    0.83359   0.83646   0.83786   0.85483   0.85758
 Alpha virt. eigenvalues --    0.86284   0.86787   0.87520   0.87970   0.88034
 Alpha virt. eigenvalues --    0.89172   0.89486   0.89666   0.89958   0.90477
 Alpha virt. eigenvalues --    0.90759   0.91012   0.91265   0.91597   0.92113
 Alpha virt. eigenvalues --    0.92613   0.92736   0.93509   0.93788   0.93899
 Alpha virt. eigenvalues --    0.94262   0.94657   0.94798   0.94975   0.95175
 Alpha virt. eigenvalues --    0.95379   0.96304   0.96512   0.97039   0.97509
 Alpha virt. eigenvalues --    0.97879   0.98034   0.98516   0.99261   0.99564
 Alpha virt. eigenvalues --    0.99934   0.99959   1.00696   1.01059   1.01546
 Alpha virt. eigenvalues --    1.02261   1.02619   1.03087   1.03389   1.04051
 Alpha virt. eigenvalues --    1.05694   1.06336   1.06598   1.07437   1.07656
[...]
                 (A) (A) (A) (A) (A) (A) (A) (A) (A) (A) (A) (A)
                 (A) (A) (A) (A) (A) (A) (A) (A) (A) (A) (A) (A)
                 (A) (A) (A) (A) (A) (A) (A) (A) (A) (A) (A) (A)
                 (A) (A) (A) (A) (A) (A) (A) (A) (A) (A) (A) (A)
                 (A) (A) (A) (A) (A) (A) (A) (A) (A) (A) (A) (A)
                 (A) (A) (A) (A) (A) (A) (A) (A) (A) (A) (A) (A)
                 (A) (A) (A) (A) (A) (A) (A) (A) (A) (A) (A) (A)
                 (A) (A) (A) (A) (A) (A) (A) (A) (A) (A) (A) (A)
                 (A) (A) (A) (A) (A) (A) (A) (A) (A) (A) (A) (A)
                 (A) (A) (A) (A) (A) (A) (A) (A) (A) (A) (A) (A)
                 (A) (A) (A) (A) (A) (A) (A) (A) (A) (A) (A) (A)
                 (A) (A) (A) (A) (A) (A) (A) (A) (A) (A) (A) (A)
                 (A) (A) (A) (A) (A) (A) (A) (A) (A) (A) (A) (A)
                 (A) (A) (A) (A) (A) (A) (A) (A) (A) (A) (A) (A)
                 (A) (A) (A) (A) (A) (A) (A) (A) (A) (A) (A) (A)
                 (A) (A) (A) (A) (A) (A) (A) (A) (A) (A) (A) (A)
                 (A) (A) (A) (A) (A) (A) (A) (A) (A) (A) (A) (A)
                 (A) (A) (A) (A) (A) (A) (A) (A) (A) (A) (A) (A)
                 (A) (A) (A) (A) (A) (A) (A) (A) (A) (A) (A) (A)
                 (A) (A) (A) (A) (A) (A) (A) (A) (A) (A) (A) (A)
                 (A) (A) (A) (A) (A) (A) (A) (A) (A) (A) (A) (A)
                 (A) (A) (A) (A) (A) (A) (A) (A) (A) (A) (A) (A)
                 (A) (A) (A) (A) (A) (A) (A) (A) (A) (A) (A) (A)
                 (A) (A) (A) (A) (A) (A) (A) (A) (A) (A) (A) (A)
                 (A) (A) (A) (A) (A) (A) (A) (A) (A) (A) (A) (A)
                 (A) (A) (A) (A) (A) (A) (A) (A) (A) (A) (A) (A)
                 (A) (A) (A) (A) (A) (A) (A) (A) (A) (A) (A) (A)
                 (A) (A) (A) (A) (A) (A) (A) (A) (A) (A) (A) (A)
                 (A) (A) (A) (A) (A) (A) (A) (A) (A) (A) (A) (A)
                 (A) (A) (A) (A) (A) (A) (A) (A) (A) (A) (A) (A)
                 (A) (A) (A) (A) (A) (A) (A) (A) (A) (A) (A) (A)
                 (A) (A) (A) (A) (A) (A)
 The electronic state is 1-A.
 Alpha  occ. eigenvalues --  -19.23285 -14.49309 -14.48399 -14.46770 -14.46125
 Alpha  occ. eigenvalues --  -14.45870 -14.43443 -14.42831 -10.41818 -10.40152
 Alpha  occ. eigenvalues --  -10.37643 -10.36360 -10.35299 -10.35231 -10.34642
 Alpha  occ. eigenvalues --  -10.34149 -10.33997 -10.33664 -10.32862 -10.32297
 Alpha  occ. eigenvalues --  -10.31874 -10.31132 -10.31059 -10.31051 -10.30943
 Alpha  occ. eigenvalues --  -10.30744 -10.30399 -10.30385 -10.30363 -10.30324
 Alpha  occ. eigenvalues --  -10.30175 -10.30162 -10.30107 -10.30036 -10.29517
 Alpha  occ. eigenvalues --  -10.28711 -10.28312  -1.13480  -1.12315  -1.06374
 Alpha  occ. eigenvalues --   -1.04591  -1.03635  -1.03601  -1.00739  -0.99342
 Alpha  occ. eigenvalues --   -0.96055  -0.94693  -0.93142  -0.89805  -0.88078
 Alpha  occ. eigenvalues --   -0.87399  -0.86251  -0.85199  -0.84534  -0.83772
 Alpha  occ. eigenvalues --   -0.81725  -0.79531  -0.78272  -0.77717  -0.76339
 Alpha  occ. eigenvalues --   -0.73952  -0.73055  -0.72983  -0.72644  -0.70874
 Alpha  occ. eigenvalues --   -0.70324  -0.69544  -0.67989  -0.66453  -0.65241
 Alpha  occ. eigenvalues --   -0.63728  -0.63328  -0.62283  -0.61852  -0.60211
 Alpha  occ. eigenvalues --   -0.58870  -0.58003  -0.57564  -0.56467  -0.56202
 Alpha  occ. eigenvalues --   -0.55781  -0.55079  -0.54903  -0.54735  -0.54337
 Alpha  occ. eigenvalues --   -0.53657  -0.53209  -0.52988  -0.52413  -0.52089
 Alpha  occ. eigenvalues --   -0.51888  -0.51560  -0.51333  -0.50923  -0.50707
 Alpha  occ. eigenvalues --   -0.50518  -0.50386  -0.49943  -0.49437  -0.48335
 Alpha  occ. eigenvalues --   -0.47287  -0.46713  -0.46540  -0.46443  -0.46060
 Alpha  occ. eigenvalues --   -0.45583  -0.44956  -0.44607  -0.43944  -0.43745
 Alpha  occ. eigenvalues --   -0.43354  -0.43151  -0.42135  -0.41688  -0.41267
 Alpha  occ. eigenvalues --   -0.40729  -0.40633  -0.39893  -0.38212  -0.37562
 Alpha  occ. eigenvalues --   -0.35835  -0.35358  -0.33918  -0.33576  -0.33265
 Alpha  occ. eigenvalues --   -0.32900  -0.32017  -0.30633  -0.29158  -0.27015
 Alpha  occ. eigenvalues --   -0.24765
 Alpha virt. eigenvalues --   -0.00255   0.02896   0.03202   0.04358   0.06534
 Alpha virt. eigenvalues --    0.07197   0.08455   0.10621   0.13528   0.14908
 Alpha virt. eigenvalues --    0.15916   0.16359   0.17277   0.17674   0.18731
 Alpha virt. eigenvalues --    0.19258   0.19789   0.20370   0.20476   0.21454
 Alpha virt. eigenvalues --    0.21955   0.22330   0.22717   0.22947   0.23128
 Alpha virt. eigenvalues --    0.23851   0.23955   0.24098   0.24529   0.24641
 Alpha virt. eigenvalues --    0.24854   0.25626   0.26156   0.26333   0.26909
 Alpha virt. eigenvalues --    0.26938   0.27598   0.27993   0.28362   0.28607
 Alpha virt. eigenvalues --    0.28736   0.28986   0.29157   0.29614   0.30199
 Alpha virt. eigenvalues --    0.30875   0.31214   0.32034   0.32149   0.32605
 Alpha virt. eigenvalues --    0.33015   0.33503   0.33806   0.34068   0.34749
 Alpha virt. eigenvalues --    0.34866   0.35518   0.36736   0.37909   0.38333
 Alpha virt. eigenvalues --    0.38545   0.38757   0.39227   0.39874   0.41264
 Alpha virt. eigenvalues --    0.41361   0.41664   0.42230   0.42550   0.43177
 Alpha virt. eigenvalues --    0.44340   0.45016   0.45963   0.47314   0.47822
 Alpha virt. eigenvalues --    0.48179   0.49899   0.51397   0.52745   0.54092
 Alpha virt. eigenvalues --    0.55806   0.56616   0.57985   0.58381   0.58606
 Alpha virt. eigenvalues --    0.59187   0.59619   0.60261   0.60577   0.60985
 Alpha virt. eigenvalues --    0.61276   0.61633   0.62107   0.62354   0.62598
 Alpha virt. eigenvalues --    0.63328   0.63601   0.63983   0.64283   0.64548
 Alpha virt. eigenvalues --    0.64893   0.65213   0.65427   0.65467   0.65922
 Alpha virt. eigenvalues --    0.66058   0.66515   0.66711   0.66894   0.67285
 Alpha virt. eigenvalues --    0.67379   0.67880   0.68713   0.68780   0.69348
 Alpha virt. eigenvalues --    0.69851   0.70425   0.70697   0.70992   0.71057
 Alpha virt. eigenvalues --    0.71127   0.71480   0.72381   0.72483   0.72944
 Alpha virt. eigenvalues --    0.73136   0.73656   0.73934   0.74559   0.75002
 Alpha virt. eigenvalues --    0.75257   0.75756   0.75976   0.76898   0.77330
 Alpha virt. eigenvalues --    0.77805   0.79149   0.80166   0.80498   0.81673
 Alpha virt. eigenvalues --    0.81860   0.82690   0.82860   0.83651   0.84419
 Alpha virt. eigenvalues --    0.84508   0.85831   0.87025   0.87392   0.87836
 Alpha virt. eigenvalues --    0.88314   0.89133   0.89464   0.90432   0.90763
 Alpha virt. eigenvalues --    0.91025   0.91640   0.91789   0.91992   0.92179
 Alpha virt. eigenvalues --    0.92422   0.92677   0.93209   0.93248   0.93851
 Alpha virt. eigenvalues --    0.94096   0.94224   0.94599   0.95041   0.95451
 Alpha virt. eigenvalues --    0.95719   0.96213   0.96883   0.97566   0.97998
 Alpha virt. eigenvalues --    0.98111   0.98521   0.98642   0.98882   0.99594
 Alpha virt. eigenvalues --    0.99994   1.00166   1.00602   1.01176   1.01682
 Alpha virt. eigenvalues --    1.01796   1.02795   1.03524   1.04054   1.04699
 Alpha virt. eigenvalues --    1.05627   1.06212   1.06554   1.06937   1.07355
 Alpha virt. eigenvalues --    1.07748   1.08210   1.08780   1.08820   1.09011
 Alpha virt. eigenvalues --    1.09516   1.10300   1.11176   1.11719   1.11873
 Alpha virt. eigenvalues --    1.12423   1.12875   1.13933   1.15777   1.16262
 Alpha virt. eigenvalues --    1.16633   1.17196   1.17296   1.17940   1.19546
 Alpha virt. eigenvalues --    1.20438   1.20578   1.22491   1.23713   1.24663
 Alpha virt. eigenvalues --    1.24971   1.25271   1.26242   1.26986   1.27436
 Alpha virt. eigenvalues --    1.28649   1.29631   1.30408   1.31029   1.31962
 Alpha virt. eigenvalues --    1.32412   1.33240   1.34091   1.34722   1.34776
 Alpha virt. eigenvalues --    1.36025   1.36997   1.37685   1.37900   1.38298
 Alpha virt. eigenvalues --    1.39487   1.42469   1.42952   1.44070   1.44772
 Alpha virt. eigenvalues --    1.45594   1.47009   1.47685   1.48406   1.48847
 Alpha virt. eigenvalues --    1.48890   1.49041   1.49577   1.50209   1.51097
 Alpha virt. eigenvalues --    1.52037   1.52886   1.53124   1.53599   1.54501
 Alpha virt. eigenvalues --    1.55218   1.55721   1.56024   1.56693   1.57036
 Alpha virt. eigenvalues --    1.57521   1.57747   1.58068   1.58943   1.59021
 Alpha virt. eigenvalues --    1.59743   1.60003   1.60629   1.61444   1.62842
 Alpha virt. eigenvalues --    1.63591   1.64786   1.65255   1.66115   1.66900
 Alpha virt. eigenvalues --    1.68739   1.69739   1.71699   1.74891   1.76224
 Alpha virt. eigenvalues --    1.78850   1.80571   1.81677   1.82547   1.84315
 Alpha virt. eigenvalues --    1.84831   1.85628   1.86388   1.86596   1.87425
 Alpha virt. eigenvalues --    1.87783   1.88909   1.89745   1.90373   1.90930
 Alpha virt. eigenvalues --    1.91447   1.92419   1.92674   1.93292   1.94517
 Alpha virt. eigenvalues --    1.94759   1.94975   1.95728   1.97207   1.97815
 Alpha virt. eigenvalues --    1.99500   1.99753   2.00277   2.00559   2.00722
 Alpha virt. eigenvalues --    2.01218   2.01815   2.02183   2.03026   2.03493
 Alpha virt. eigenvalues --    2.05092   2.06645   2.06932   2.07281   2.08024
 Alpha virt. eigenvalues --    2.08648   2.08989   2.09868   2.10647   2.11761
 Alpha virt. eigenvalues --    2.12159   2.12679   2.13537   2.14059   2.15091
 Alpha virt. eigenvalues --    2.15919   2.16754   2.17799   2.19186   2.20286
 Alpha virt. eigenvalues --    2.20979   2.21566   2.21945   2.22168   2.22676
 Alpha virt. eigenvalues --    2.23089   2.23614   2.23967   2.24630   2.25154
 Alpha virt. eigenvalues --    2.25886   2.26002   2.26584   2.27462   2.27936
 Alpha virt. eigenvalues --    2.28263   2.29290   2.29840   2.31035   2.32152
 Alpha virt. eigenvalues --    2.33886   2.35009   2.35475   2.37087   2.37607
 Alpha virt. eigenvalues --    2.37864   2.38032   2.38452   2.39870   2.39940
 Alpha virt. eigenvalues --    2.40382   2.41249   2.41932   2.42261   2.42921
 Alpha virt. eigenvalues --    2.44169   2.44356   2.44554   2.44821   2.45456
 Alpha virt. eigenvalues --    2.46150   2.47936   2.48832   2.48988   2.49925
 Alpha virt. eigenvalues --    2.50286   2.50375   2.53082   2.54505   2.56936
 Alpha virt. eigenvalues --    2.57569   2.60073   2.61107   2.61416   2.62708
 Alpha virt. eigenvalues --    2.64067   2.64800   2.66360   2.66405   2.67311
 Alpha virt. eigenvalues --    2.69463   2.69940   2.71202   2.72265   2.72410
 Alpha virt. eigenvalues --    2.74067   2.74387   2.75258   2.75716   2.76239
 Alpha virt. eigenvalues --    2.76877   2.77455   2.79271   2.81352   2.81979
 Alpha virt. eigenvalues --    2.82743   2.83111   2.84044   2.84247   2.85595
 Alpha virt. eigenvalues --    2.86050   2.86418   2.87468   2.88518   2.89525
 Alpha virt. eigenvalues --    2.89743   2.91717   2.93114   2.93403   2.94126
 Alpha virt. eigenvalues --    2.95115   2.96363   2.98005   3.01896   3.03422
 Alpha virt. eigenvalues --    3.04532   3.06755   3.09050   3.10420   3.11899
 Alpha virt. eigenvalues --    3.19231   3.27923   3.29374   3.39209   3.41473
 Alpha virt. eigenvalues --    3.45221   3.53979   3.56424   3.58004   4.12836
 Alpha virt. eigenvalues --    4.13802   4.15233   4.17154   4.18154   4.18780
 Alpha virt. eigenvalues --    4.19210   4.21064   4.22082   4.23480   4.25837
 Alpha virt. eigenvalues --    4.26535   4.27275   4.30092   4.30798   4.32277
 Alpha virt. eigenvalues --    4.33570   4.34212   4.36605   4.40419   4.40702
 Alpha virt. eigenvalues --    4.41799   4.44661   4.45970   4.48583   4.49924
 Alpha virt. eigenvalues --    4.50093   4.53945   4.57134   4.60649   4.62182
 Alpha virt. eigenvalues --    4.64046   4.67965   4.70304   4.78905   4.84920
 Alpha virt. eigenvalues --    4.90404
          Condensed to atoms (all electrons):
 Mulliken atomic charges:
              1
     1  C   -0.195424
     2  C   -0.154964
     3  C    0.039089
     4  C    0.014726
     5  N   -0.432864
     6  C    0.028069
     7  C    0.290587
     8  C   -0.257018
     9  C    0.050134
    10  N   -0.494744
    11  C    0.719126
    12  N   -0.566293
    13  N   -0.810815
    14  C    0.288556
    15  C    0.120454
    16  C   -0.241435
    17  C   -0.187656
    18  C    0.363962
    19  C   -0.270409
    20  N   -0.780353
    21  C    0.612192
    22  C    0.017136
    23  C   -0.210695
    24  C   -0.226436
    25  C    0.160051
    26  C   -0.223209
    27  C   -0.178184
    28  C   -0.263885
    29  N   -0.381371
    30  C   -0.184386
    31  C   -0.182453
    32  N   -0.383735
    33  C   -0.349379
    34  C   -0.183810
    35  C   -0.185959
    36  O   -0.520948
    37  C   -0.609392
    38  H    0.186818
    39  H    0.187375
    40  H    0.189811
    41  H    0.182083
    42  H    0.181433
    43  H    0.189690
    44  H    0.370000
    45  H    0.160499
    46  H    0.213601
    47  H    0.204412
    48  H    0.362032
    49  H    0.178606
    50  H    0.170220
    51  H    0.164348
    52  H    0.201547
    53  H    0.169247
    54  H    0.169589
    55  H    0.149563
    56  H    0.158714
    57  H    0.150190
    58  H    0.173056
    59  H    0.134263
    60  H    0.165893
    61  H    0.167537
    62  H    0.153477
    63  H    0.173258
    64  H    0.159243
    65  H    0.152612
    66  H    0.183084
    67  H    0.178551
    68  H    0.190984
 Sum of Mulliken atomic charges =   0.00000
 Mulliken charges with hydrogens summed into heavy atoms:
              1
     1  C   -0.008606
     2  C    0.032412
     3  C    0.039089
     4  C    0.204537
     5  N   -0.432864
     6  C    0.210152
     7  C    0.290587
     8  C   -0.075585
     9  C    0.239824
    10  N   -0.494744
    11  C    0.719126
    12  N   -0.566293
    13  N   -0.440816
    14  C    0.288556
    15  C    0.120454
    16  C   -0.080935
    17  C    0.025945
    18  C    0.363962
    19  C   -0.065997
    20  N   -0.418322
    21  C    0.612192
    22  C    0.017136
    23  C   -0.032090
    24  C   -0.056216
    25  C    0.160051
    26  C   -0.058861
    27  C    0.023363
    28  C    0.074951
    29  N   -0.381371
    30  C    0.123891
    31  C    0.140794
    32  N   -0.383735
    33  C    0.118313
    34  C    0.142925
    35  C    0.125896
    36  O   -0.520948
    37  C   -0.056773
 Sum of Mulliken charges with hydrogens summed into heavy atoms =   0.00000
 Electronic spatial extent (au):  <R**2>=          25025.8654
 Charge=              0.0000 electrons
 Dipole moment (field-independent basis, Debye):
    X=              2.2677    Y=              6.0696    Z=             -0.1778  Tot=              6.4819
 Quadrupole moment (field-independent basis, Debye-Ang):
   XX=           -188.5192   YY=           -195.1548   ZZ=           -221.5995
   XY=              6.1884   XZ=              4.3164   YZ=              5.5315
 Traceless Quadrupole moment (field-independent basis, Debye-Ang):
   XX=             13.2387   YY=              6.6030   ZZ=            -19.8417
   XY=              6.1884   XZ=              4.3164   YZ=              5.5315
 Octapole moment (field-independent basis, Debye-Ang**2):
  XXX=             46.9574  YYY=            150.9711  ZZZ=              3.4771  XYY=             85.6967
  XXY=            -17.2863  XXZ=             31.3580  XZZ=            -10.1809  YZZ=             -1.5502
  YYZ=             27.6395  XYZ=            -23.8899
 Hexadecapole moment (field-independent basis, Debye-Ang**3):
 XXXX=         -23586.8609 YYYY=          -7316.5659 ZZZZ=          -1509.6971 XXXY=            350.4821
 XXXZ=           -113.5447 YYYX=            119.6772 YYYZ=             75.0527 ZZZX=            -11.5202
 ZZZY=             15.1785 XXYY=          -4747.3297 XXZZ=          -4385.1563 YYZZ=          -1621.4637
 XXYZ=             60.4189 YYXZ=            101.1775 ZZXY=            -19.3737
 N-N= 3.769423353953D+03 E-N=-1.121052353373D+04  KE= 1.567149212720D+03
 No NMR shielding tensors so no spin-rotation constants.
 Leave Link  601 at Thu Apr  9 01:15:21 2020, MaxMem= 2684354560 cpu:       2.8
 (Enter /opt/g09gh/gaussian/g09/l9999.exe)
 1\1\GINC-NODE58\FOpt\RwB97XD\6-31G(d)\C29H31N7O1\BDW2292\09-Apr-2020\0
 \\#P opt=(,maxcycle=400) wB97XD/6-31G* MaxDisk=100GB\\MOLECULE0 Rotata
 ble Bond Optimization on node37.bme.utexas.edu\\0,1\C,-2.5428334163,-3
 .6272425868,-6.7893147174\C,-1.3812907194,-4.3652441629,-6.9814133498\
 C,-0.87903596,-5.124555679,-5.9257551862\C,-1.5960172065,-5.1054152718
 ,-4.7231100895\N,-2.7034955743,-4.3956573711,-4.5190557254\C,-3.158035
 5355,-3.6662728527,-5.5427313703\C,0.3873830858,-5.8927257937,-6.02010
 36424\C,0.8945481087,-6.3939541696,-7.215334897\C,2.1132946475,-7.0655
 463008,-7.1299673036\N,2.7795900319,-7.2395295838,-5.99753745\C,2.1927
 055454,-6.7292805123,-4.8949188586\N,1.0325215123,-6.0722160652,-4.863
 8246354\N,2.9001767881,-6.921880751,-3.7405603999\C,2.6407331419,-6.51
 42425998,-2.419523763\C,3.6574064977,-6.6948266312,-1.4590292722\C,3.3
 964539316,-6.2821680069,-0.1558186166\C,2.1895231056,-5.709610241,0.23
 971227\C,1.1974825452,-5.5513621956,-0.7237237999\C,1.4281280059,-5.95
 1358317,-2.0396759182\N,-0.0783758134,-5.0115047095,-0.4817748092\C,-0
 .546330678,-4.3385365773,0.61376865\C,-1.9493268605,-3.8109043845,0.46
 83978008\C,-2.6103192015,-3.6579253306,-0.7546086628\C,-3.9139369328,-
 3.179844128,-0.7926999973\C,-4.5852662775,-2.8224496925,0.3769235309\C
 ,-3.919229001,-2.9790104863,1.5949833918\C,-2.617601039,-3.4587075506,
 1.6425527299\C,-5.9936919903,-2.2492873223,0.3195742133\N,-6.144170908
 6,-0.8086496798,0.2006919871\C,-5.7187110089,-0.192930821,-1.051080969
 4\C,-4.2752689018,0.3371654376,-1.0242909563\N,-4.0103189031,1.2144138
 39,0.1126624697\C,-4.5955075644,2.5368614067,-0.0155646395\C,-4.358892
 5261,0.5306604719,1.355069767\C,-5.8029526988,0.0013455427,1.365067809
 9\O,0.0950214156,-4.1847587787,1.6411290034\C,4.9859148785,-7.30462232
 85,-1.8282981555\H,-2.9554757196,-3.0169167908,-7.5854492944\H,-0.8572
 232239,-4.3241085764,-7.9319810544\H,-1.2493938981,-5.7101206447,-3.88
 9791883\H,-4.0577596111,-3.085665106,-5.3530401082\H,0.3727824023,-6.2
 956869744,-8.1592551352\H,2.5751707209,-7.4848579335,-8.0215316759\H,3
 .7706335647,-7.4046589682,-3.9060315218\H,4.1746028004,-6.4127144631,0
 .5920154431\H,2.0204466242,-5.392717535,1.2589629883\H,0.6695083304,-5
 .7948317762,-2.7905366945\H,-0.7247938784,-5.1251603343,-1.2463082825\
 H,-2.1335643307,-3.880489442,-1.7060796476\H,-4.4086548781,-3.08174958
 14,-1.7560555797\H,-4.4293761234,-2.7179670316,2.5196825272\H,-2.09474
 5697,-3.5726726699,2.5863885502\H,-6.5197741362,-2.7004663715,-0.53129
 36511\H,-6.5362724325,-2.555925884,1.2224171109\H,-5.8422731932,-0.919
 9690149,-1.8619490766\H,-6.4033818054,0.6408879119,-1.2681119259\H,-4.
 0581647498,0.8841210052,-1.9499980937\H,-3.5737047138,-0.5030501184,-0
 .9650641693\H,-5.6983602321,2.5679769657,-0.0614911192\H,-4.2131162866
 ,3.0102834889,-0.9266741758\H,-4.2819140201,3.149574739,0.8367750195\H
 ,-4.2062097149,1.2210607322,2.193377172\H,-3.6580288187,-0.302713946,1
 .4815455296\H,-6.4981223544,0.8536741763,1.397824942\H,-5.9865169855,-
 0.5881066131,2.2706603538\H,5.5096353429,-6.7167143146,-2.5934701081\H
 ,4.8808346573,-8.3293772158,-2.209932785\H,5.6412358365,-7.3559665294,
 -0.9552260933\\Version=EM64L-G09RevA.02\State=1-A\HF=-1581.7601\RMSD=7
 .947e-09\RMSF=5.115e-06\Dipole=-0.4947132,-0.1988643,-2.4937954\Quadru
 pole=-1.977779,-8.6080683,10.5858473,-9.8968721,-4.5977256,1.8849512\P
 G=C01 [X(C29H31N7O1)]\\@


 TOWERING GENIUS DISDAINS A BEATEN PATH.  IT SEEKS 
 REGIONS HITHERTO UNEXPLORED.

                                -- ABRAHAM LINCOLN
 Job cpu time:  0 days 17 hours 22 minutes  7.4 seconds.
 File lengths (MBytes):  RWF=    244 Int=      0 D2E=      0 Chk=     25 Scr=      1
 Normal termination of Gaussian 09 at Thu Apr  9 01:15:21 2020.
