
    -----------------------------------------------------------------------
          Psi4: An Open-Source Ab Initio Electronic Structure Package
                               Psi4 1.3.2 release

                         Git: Rev {HEAD} ecbda83 


    R. M. Parrish, L. A. Burns, D. G. A. Smith, A. C. Simmonett,
    A. E. DePrince III, E. G. Hohenstein, U. Bozkaya, A. Yu. Sokolov,
    R. Di Remigio, R. M. Richard, J. F. Gonthier, A. M. James,
    H. R. McAlexander, A. Kumar, M. Saitow, X. Wang, B. P. Pritchard,
    P. Verma, H. F. Schaefer III, K. Patkowski, R. A. King, E. F. Valeev,
    F. A. Evangelista, J. M. Turney, T. D. Crawford, and C. D. Sherrill,
    J. Chem. Theory Comput. 13(7) pp 3185--3197 (2017).
    (doi: 10.1021/acs.jctc.7b00174)


                         Additional Contributions by
    P. Kraus, H. Kruse, M. H. Lechner, M. C. Schieber, R. A. Shaw,
    A. Alenaizan, R. Galvelis, Z. L. Glick, S. Lehtola, and J. P. Misiewicz

    -----------------------------------------------------------------------


    Psi4 started on: Saturday, 07 March 2020 10:42AM

    Process ID: 33058
    Host:       node36.bme.utexas.edu
    PSIDATADIR: /home/bdw2292/miniconda3/envs/p4env/share/psi4
    Memory:     500.0 MiB
    Threads:    1
    
  ==> Input File <==

--------------------------------------------------------------------------
molecule { 
0 1
 C    0.082945    4.912143   -0.110034
 C    1.443827    4.638165   -0.303946
 C    1.965294    3.375264    0.041573
 C    1.038218    2.457503    0.594215
 N   -0.263150    2.702036    0.786951
 C   -0.726941    3.910167    0.436127
 C    3.410169    2.988267   -0.152186
 C    4.419914    3.828418   -0.649391
 C    5.692230    3.255042   -0.753027
 N    5.978977    1.997773   -0.428375
 C    4.943693    1.261398    0.024871
 N    3.695682    1.712178    0.173065
 N    5.245561   -0.046623    0.345282
 C    4.492757   -1.272485    0.281108
 C    5.188626   -2.517839    0.343808
 C    4.416505   -3.688977    0.272208
 C    3.022765   -3.697217    0.149341
 C    2.352768   -2.469753    0.104590
 C    3.096904   -1.279056    0.158804
 N    0.935657   -2.299589   -0.024810
 C   -0.062088   -3.211226   -0.279531
 C   -1.438644   -2.677180   -0.623468
 C   -1.645908   -1.507015   -1.372150
 C   -2.941469   -1.059042   -1.640369
 C   -4.071546   -1.767795   -1.190704
 C   -3.848624   -2.939691   -0.442363
 C   -2.556967   -3.397612   -0.172926
 C   -5.488419   -1.253275   -1.450413
 N   -6.069158   -0.238558   -0.552306
 C   -5.602639    1.162723   -0.651175
 C   -4.483560    1.553929    0.347819
 N   -4.797624    1.243260    1.761498
 C   -5.637869    2.212069    2.475268
 C   -5.197562   -0.181149    1.861250
 C   -6.308006   -0.602506    0.863609
 O    0.121970   -4.416464   -0.218296
 C    6.698786   -2.629315    0.466603
 H   -0.340838    5.876205   -0.375403
 H    2.068086    5.417128   -0.734415
 H    1.369937    1.475192    0.914883
 H   -1.789004    4.077777    0.606673
 H    4.264255    4.861056   -0.936673
 H    6.531675    3.843782   -1.122176
 H    6.221784   -0.115919    0.591375
 H    4.913668   -4.657661    0.309804
 H    2.466618   -4.625177    0.093843
 H    2.588874   -0.328119    0.110327
 H    0.628165   -1.337447    0.008194
 H   -0.788860   -0.950957   -1.744000
 H   -3.068970   -0.142242   -2.216290
 H   -4.693927   -3.511726   -0.060357
 H   -2.394734   -4.308935    0.397200
 H   -5.522872   -0.834406   -2.466796
 H   -6.174838   -2.112642   -1.433047
 H   -5.363351    1.406878   -1.642759
 H   -6.844016    2.077645   -0.254154
 H   -4.270736    2.997781    0.222249
 H   -3.425804    0.987700    0.064538
 H   -6.646334    2.249582    2.048120
 H   -5.192426    3.211978    2.420490
 H   -5.713653    1.937002    3.533524
 H   -5.471480   -0.413673    2.898655
 H   -3.964821   -1.004528    1.522793
 H   -7.599264    0.171678    1.324418
 H   -6.542477   -1.713958    0.952713
 H    7.052549   -2.229427    1.427389
 H    7.209410   -2.072521   -0.331667
 H    7.059757   -3.665188    0.404134
}
memory 20GB
set_num_threads(6)
psi4_io.set_default_path("/scratch/bdw2292")
set freeze_core True
E, wfn = energy('mp2/6-311++G**',return_wfn=True)
oeprop(wfn,"WIBERG_LOWDIN_INDICES")
clean()
--------------------------------------------------------------------------

  Memory set to  18.626 GiB by Python driver.
  Threads set to 6 by Python driver.
    SCF Algorithm Type (re)set to DF.

*** tstart() called on node36.bme.utexas.edu
*** at Sat Mar  7 10:42:03 2020

   => Loading Basis Set <=

    Name: 6-311++G**
    Role: ORBITAL
    Keyword: BASIS
    atoms 1-4, 6-9, 11, 14-19, 21-28, 30-31, 33-35, 37 entry C          line   119 file /home/bdw2292/miniconda3/envs/p4env/share/psi4/basis/6-311ppgss.gbs 
    atoms 5, 10, 12-13, 20, 29, 32                     entry N          line   140 file /home/bdw2292/miniconda3/envs/p4env/share/psi4/basis/6-311ppgss.gbs 
    atoms 36                                           entry O          line   161 file /home/bdw2292/miniconda3/envs/p4env/share/psi4/basis/6-311ppgss.gbs 
    atoms 38-68                                        entry H          line    42 file /home/bdw2292/miniconda3/envs/p4env/share/psi4/basis/6-311ppgss.gbs 


         ---------------------------------------------------------
                                   SCF
               by Justin Turney, Rob Parrish, Andy Simmonett
                          and Daniel G. A. Smith
                              RHF Reference
                        6 Threads,  19073 MiB Core
         ---------------------------------------------------------

  ==> Geometry <==

    Molecular point group: c1
    Full point group: C1

    Geometry (in Angstrom), charge = 0, multiplicity = 1:

       Center              X                  Y                   Z               Mass       
    ------------   -----------------  -----------------  -----------------  -----------------
         C           -0.041726456628     4.912493720520    -0.141481622487    12.000000000000
         C            1.319155543372     4.638515720520    -0.335393622487    12.000000000000
         C            1.840622543372     3.375614720520     0.010125377513    12.000000000000
         C            0.913546543372     2.457853720520     0.562767377513    12.000000000000
         N           -0.387821456628     2.702386720520     0.755503377513    14.003074004430
         C           -0.851612456628     3.910517720520     0.404679377513    12.000000000000
         C            3.285497543372     2.988617720520    -0.183633622487    12.000000000000
         C            4.295242543372     3.828768720520    -0.680838622487    12.000000000000
         C            5.567558543372     3.255392720520    -0.784474622487    12.000000000000
         N            5.854305543372     1.998123720520    -0.459822622487    14.003074004430
         C            4.819021543372     1.261748720520    -0.006576622487    12.000000000000
         N            3.571010543372     1.712528720520     0.141617377513    14.003074004430
         N            5.120889543372    -0.046272279480     0.313834377513    14.003074004430
         C            4.368085543372    -1.272134279480     0.249660377513    12.000000000000
         C            5.063954543372    -2.517488279480     0.312360377513    12.000000000000
         C            4.291833543372    -3.688626279480     0.240760377513    12.000000000000
         C            2.898093543372    -3.696866279480     0.117893377513    12.000000000000
         C            2.228096543372    -2.469402279480     0.073142377513    12.000000000000
         C            2.972232543372    -1.278705279480     0.127356377513    12.000000000000
         N            0.810985543372    -2.299238279480    -0.056257622487    14.003074004430
         C           -0.186759456628    -3.210875279480    -0.310978622487    12.000000000000
         C           -1.563315456628    -2.676829279480    -0.654915622487    12.000000000000
         C           -1.770579456628    -1.506664279480    -1.403597622487    12.000000000000
         C           -3.066140456628    -1.058691279480    -1.671816622487    12.000000000000
         C           -4.196217456628    -1.767444279480    -1.222151622487    12.000000000000
         C           -3.973295456628    -2.939340279480    -0.473810622487    12.000000000000
         C           -2.681638456628    -3.397261279480    -0.204373622487    12.000000000000
         C           -5.613090456628    -1.252924279480    -1.481860622487    12.000000000000
         N           -6.193829456628    -0.238207279480    -0.583753622487    14.003074004430
         C           -5.727310456628     1.163073720520    -0.682622622487    12.000000000000
         C           -4.608231456628     1.554279720520     0.316371377513    12.000000000000
         N           -4.922295456628     1.243610720520     1.730050377513    14.003074004430
         C           -5.762540456628     2.212419720520     2.443820377513    12.000000000000
         C           -5.322233456628    -0.180798279480     1.829802377513    12.000000000000
         C           -6.432677456628    -0.602155279480     0.832161377513    12.000000000000
         O           -0.002701456628    -4.416113279480    -0.249743622487    15.994914619570
         C            6.574114543372    -2.628964279480     0.435155377513    12.000000000000
         H           -0.465509456628     5.876555720520    -0.406850622487     1.007825032230
         H            1.943414543372     5.417478720520    -0.765862622487     1.007825032230
         H            1.245265543372     1.475542720520     0.883435377513     1.007825032230
         H           -1.913675456628     4.078127720520     0.575225377513     1.007825032230
         H            4.139583543372     4.861406720520    -0.968120622487     1.007825032230
         H            6.407003543372     3.844132720520    -1.153623622487     1.007825032230
         H            6.097112543372    -0.115568279480     0.559927377513     1.007825032230
         H            4.788996543372    -4.657310279480     0.278356377513     1.007825032230
         H            2.341946543372    -4.624826279480     0.062395377513     1.007825032230
         H            2.464202543372    -0.327768279480     0.078879377513     1.007825032230
         H            0.503493543372    -1.337096279480    -0.023253622487     1.007825032230
         H           -0.913531456628    -0.950606279480    -1.775447622487     1.007825032230
         H           -3.193641456628    -0.141891279480    -2.247737622487     1.007825032230
         H           -4.818598456628    -3.511375279480    -0.091804622487     1.007825032230
         H           -2.519405456628    -4.308584279480     0.365752377513     1.007825032230
         H           -5.647543456628    -0.834055279480    -2.498243622487     1.007825032230
         H           -6.299509456628    -2.112291279480    -1.464494622487     1.007825032230
         H           -5.488022456628     1.407228720520    -1.674206622487     1.007825032230
         H           -6.968687456628     2.077995720520    -0.285601622487     1.007825032230
         H           -4.395407456628     2.998131720520     0.190801377513     1.007825032230
         H           -3.550475456628     0.988050720520     0.033090377513     1.007825032230
         H           -6.771005456628     2.249932720520     2.016672377513     1.007825032230
         H           -5.317097456628     3.212328720520     2.389042377513     1.007825032230
         H           -5.838324456628     1.937352720520     3.502076377513     1.007825032230
         H           -5.596151456628    -0.413322279480     2.867207377513     1.007825032230
         H           -4.089492456628    -1.004177279480     1.491345377513     1.007825032230
         H           -7.723935456628     0.172028720520     1.292970377513     1.007825032230
         H           -6.667148456628    -1.713607279480     0.921265377513     1.007825032230
         H            6.927877543372    -2.229076279480     1.395941377513     1.007825032230
         H            7.084738543372    -2.072170279480    -0.363114622487     1.007825032230
         H            6.935085543372    -3.664837279480     0.372686377513     1.007825032230

  Running in c1 symmetry.

  Rotational constants: A =      0.00435  B =      0.00195  C =      0.00143 [cm^-1]
  Rotational constants: A =    130.54078  B =     58.55681  C =     42.99116 [MHz]
  Nuclear repulsion = 3742.388156985771730

  Charge       = 0
  Multiplicity = 1
  Electrons    = 262
  Nalpha       = 131
  Nbeta        = 131

  ==> Algorithm <==

  SCF Algorithm Type is DF.
  DIIS enabled.
  MOM disabled.
  Fractional occupation disabled.
  Guess Type is SAD.
  Energy threshold   = 1.00e-08
  Density threshold  = 1.00e-08
  Integral threshold = 0.00e+00

  ==> Primary Basis <==

  Basis Set: 6-311++G**
    Blend: 6-311++G**
    Number of shells: 525
    Number of basis function: 1031
    Number of Cartesian functions: 1068
    Spherical Harmonics?: true
    Max angular momentum: 2

   => Loading Basis Set <=

    Name: (6-311++G** AUX)
    Role: JKFIT
    Keyword: DF_BASIS_SCF
    atoms 1-4, 6-9, 11, 14-19, 21-28, 30-31, 33-35, 37 entry C          line   162 file /home/bdw2292/miniconda3/envs/p4env/share/psi4/basis/aug-cc-pvtz-jkfit.gbs 
    atoms 5, 10, 12-13, 20, 29, 32                     entry N          line   224 file /home/bdw2292/miniconda3/envs/p4env/share/psi4/basis/aug-cc-pvtz-jkfit.gbs 
    atoms 36                                           entry O          line   286 file /home/bdw2292/miniconda3/envs/p4env/share/psi4/basis/aug-cc-pvtz-jkfit.gbs 
    atoms 38-68                                        entry H          line    70 file /home/bdw2292/miniconda3/envs/p4env/share/psi4/basis/aug-cc-pvtz-jkfit.gbs 

  ==> Pre-Iterations <==

   -------------------------------------------------------
    Irrep   Nso     Nmo     Nalpha   Nbeta   Ndocc  Nsocc
   -------------------------------------------------------
     A       1031    1031       0       0       0       0
   -------------------------------------------------------
    Total    1031    1031     131     131     131       0
   -------------------------------------------------------

  ==> Integral Setup <==

  ==> DiskDFJK: Density-Fitted J/K Matrices <==

    J tasked:                  Yes
    K tasked:                  Yes
    wK tasked:                  No
    OpenMP threads:              6
    Integrals threads:           6
    Memory [MiB]:            14305
    Algorithm:                Disk
    Integral Cache:           NONE
    Schwarz Cutoff:          1E-12
    Fitting Condition:       1E-10

   => Auxiliary Basis Set <=

  Basis Set: (6-311++G** AUX)
    Blend: AUG-CC-PVTZ-JKFIT
    Number of shells: 1544
    Number of basis function: 5274
    Number of Cartesian functions: 6552
    Spherical Harmonics?: true
    Max angular momentum: 4

  Minimum eigenvalue in the overlap matrix is 1.1391499935E-07.
  Using Symmetric Orthogonalization.

  SCF Guess: Superposition of Atomic Densities via on-the-fly atomic UHF.

  ==> Iterations <==

                           Total Energy        Delta E     RMS |[F,P]|

   @DF-RHF iter SAD: -1571.24366963566672   -1.57124e+03   0.00000e+00 
   @DF-RHF iter   1: -1571.32856079009412   -8.48912e-02   1.21596e-03 DIIS
   @DF-RHF iter   2: -1572.10171581789314   -7.73155e-01   6.44876e-04 DIIS
   @DF-RHF iter   3: -1572.29841229310478   -1.96696e-01   1.65844e-04 DIIS
   @DF-RHF iter   4: -1572.31595214181493   -1.75398e-02   6.61524e-05 DIIS
   @DF-RHF iter   5: -1572.31862973422085   -2.67759e-03   1.37356e-05 DIIS
   @DF-RHF iter   6: -1572.31879484355977   -1.65109e-04   6.06308e-06 DIIS
   @DF-RHF iter   7: -1572.31883304877442   -3.82052e-05   2.02022e-06 DIIS
   @DF-RHF iter   8: -1572.31883895403280   -5.90526e-06   7.89938e-07 DIIS
   @DF-RHF iter   9: -1572.31883987406354   -9.20031e-07   3.21150e-07 DIIS
   @DF-RHF iter  10: -1572.31884005676443   -1.82701e-07   1.48438e-07 DIIS
   @DF-RHF iter  11: -1572.31884009675355   -3.99891e-08   7.00495e-08 DIIS
   @DF-RHF iter  12: -1572.31884010798422   -1.12307e-08   2.93809e-08 DIIS
   @DF-RHF iter  13: -1572.31884011026636   -2.28215e-09   1.26692e-08 DIIS
   @DF-RHF iter  14: -1572.31884011059560   -3.29237e-10   5.89965e-09 DIIS
  Energy and wave function converged.


  ==> Post-Iterations <==

    Orbital Energies [Eh]
    ---------------------

    Doubly Occupied:                                                      

       1A    -20.523201     2A    -15.603298     3A    -15.596967  
       4A    -15.580204     5A    -15.575590     6A    -15.574182  
       7A    -15.570595     8A    -15.556316     9A    -11.372105  
      10A    -11.366186    11A    -11.332827    12A    -11.315007  
      13A    -11.312824    14A    -11.310003    15A    -11.306300  
      16A    -11.301510    17A    -11.301149    18A    -11.295366  
      19A    -11.295292    20A    -11.293269    21A    -11.285594  
      22A    -11.283384    23A    -11.276530    24A    -11.261971  
      25A    -11.261855    26A    -11.261337    27A    -11.260481  
      28A    -11.253769    29A    -11.253423    30A    -11.252458  
      31A    -11.250009    32A    -11.245790    33A    -11.245306  
      34A    -11.239006    35A    -11.233974    36A    -11.230694  
      37A    -11.223208    38A     -1.389080    39A     -1.344621  
      40A     -1.273165    41A     -1.251252    42A     -1.248724  
      43A     -1.240816    44A     -1.209675    45A     -1.202776  
      46A     -1.166514    47A     -1.139159    48A     -1.112281  
      49A     -1.073404    50A     -1.062551    51A     -1.045668  
      52A     -1.037961    53A     -1.029098    54A     -1.006871  
      55A     -1.002659    56A     -0.980537    57A     -0.946558  
      58A     -0.929606    59A     -0.924156    60A     -0.899480  
      61A     -0.869244    62A     -0.868733    63A     -0.855340  
      64A     -0.851066    65A     -0.842013    66A     -0.835698  
      67A     -0.824487    68A     -0.808087    69A     -0.779281  
      70A     -0.753233    71A     -0.738415    72A     -0.731901  
      73A     -0.719003    74A     -0.708883    75A     -0.701289  
      76A     -0.683413    77A     -0.681152    78A     -0.666244  
      79A     -0.662360    80A     -0.655433    81A     -0.652243  
      82A     -0.650346    83A     -0.637919    84A     -0.634821  
      85A     -0.626177    86A     -0.618593    87A     -0.611606  
      88A     -0.609141    89A     -0.608115    90A     -0.604487  
      91A     -0.599934    92A     -0.598698    93A     -0.595731  
      94A     -0.589319    95A     -0.587593    96A     -0.581420  
      97A     -0.578834    98A     -0.577294    99A     -0.567597  
     100A     -0.556098   101A     -0.547160   102A     -0.541021  
     103A     -0.538754   104A     -0.532964   105A     -0.529649  
     106A     -0.523107   107A     -0.512427   108A     -0.509472  
     109A     -0.508382   110A     -0.507897   111A     -0.500402  
     112A     -0.493545   113A     -0.484295   114A     -0.479602  
     115A     -0.460876   116A     -0.450264   117A     -0.436516  
     118A     -0.430964   119A     -0.425829   120A     -0.422457  
     121A     -0.413678   122A     -0.396799   123A     -0.393019  
     124A     -0.380585   125A     -0.373388   126A     -0.350388  
     127A     -0.346616   128A     -0.342956   129A     -0.315448  
     130A     -0.312345   131A     -0.289340  

    Virtual:                                                              

     132A      0.027076   133A      0.036026   134A      0.040754  
     135A      0.043676   136A      0.044487   137A      0.045317  
     138A      0.049009   139A      0.053739   140A      0.057355  
     141A      0.060714   142A      0.063739   143A      0.066497  
     144A      0.067377   145A      0.070667   146A      0.074197  
     147A      0.074493   148A      0.076323   149A      0.081050  
     150A      0.082693   151A      0.084713   152A      0.086626  
     153A      0.090404   154A      0.093723   155A      0.094924  
     156A      0.095715   157A      0.098603   158A      0.101463  
     159A      0.104955   160A      0.106924   161A      0.109391  
     162A      0.110668   163A      0.114808   164A      0.115386  
     165A      0.119335   166A      0.121729   167A      0.123556  
     168A      0.126615   169A      0.126976   170A      0.131620  
     171A      0.134021   172A      0.136314   173A      0.137662  
     174A      0.145300   175A      0.147416   176A      0.148699  
     177A      0.149760   178A      0.151207   179A      0.152697  
     180A      0.154177   181A      0.155787   182A      0.158819  
     183A      0.162606   184A      0.163793   185A      0.165006  
     186A      0.167338   187A      0.169130   188A      0.170142  
     189A      0.172598   190A      0.174306   191A      0.175285  
     192A      0.178866   193A      0.179968   194A      0.181305  
     195A      0.184160   196A      0.185932   197A      0.187458  
     198A      0.188718   199A      0.190144   200A      0.192956  
     201A      0.195076   202A      0.197164   203A      0.199853  
     204A      0.200019   205A      0.204360   206A      0.205763  
     207A      0.206876   208A      0.206999   209A      0.208528  
     210A      0.211429   211A      0.211980   212A      0.213715  
     213A      0.215132   214A      0.216988   215A      0.220066  
     216A      0.220843   217A      0.220989   218A      0.222770  
     219A      0.224760   220A      0.228784   221A      0.228989  
     222A      0.233878   223A      0.234800   224A      0.236940  
     225A      0.237900   226A      0.241926   227A      0.242273  
     228A      0.244571   229A      0.245263   230A      0.247279  
     231A      0.250023   232A      0.252382   233A      0.254467  
     234A      0.255199   235A      0.258643   236A      0.259143  
     237A      0.262016   238A      0.263069   239A      0.267037  
     240A      0.267370   241A      0.270675   242A      0.273818  
     243A      0.277453   244A      0.279318   245A      0.281370  
     246A      0.284152   247A      0.288338   248A      0.289061  
     249A      0.291503   250A      0.292481   251A      0.294356  
     252A      0.297950   253A      0.298581   254A      0.300950  
     255A      0.302221   256A      0.306571   257A      0.308030  
     258A      0.310597   259A      0.312908   260A      0.317192  
     261A      0.321359   262A      0.322143   263A      0.324100  
     264A      0.325493   265A      0.327664   266A      0.329389  
     267A      0.332869   268A      0.333800   269A      0.334390  
     270A      0.336959   271A      0.339508   272A      0.342215  
     273A      0.343713   274A      0.346756   275A      0.349425  
     276A      0.350161   277A      0.353928   278A      0.355894  
     279A      0.356588   280A      0.360157   281A      0.361535  
     282A      0.363253   283A      0.366775   284A      0.368559  
     285A      0.371145   286A      0.372653   287A      0.372810  
     288A      0.375131   289A      0.376776   290A      0.379188  
     291A      0.380748   292A      0.382744   293A      0.384189  
     294A      0.386340   295A      0.387145   296A      0.389257  
     297A      0.390025   298A      0.392767   299A      0.394062  
     300A      0.397405   301A      0.398570   302A      0.401039  
     303A      0.402847   304A      0.405076   305A      0.405923  
     306A      0.406262   307A      0.409129   308A      0.409853  
     309A      0.411088   310A      0.413030   311A      0.414592  
     312A      0.417379   313A      0.418774   314A      0.420705  
     315A      0.423492   316A      0.423591   317A      0.424182  
     318A      0.429883   319A      0.432045   320A      0.434544  
     321A      0.435176   322A      0.436592   323A      0.438411  
     324A      0.439312   325A      0.442309   326A      0.444065  
     327A      0.445897   328A      0.447473   329A      0.450719  
     330A      0.452170   331A      0.455247   332A      0.457465  
     333A      0.457952   334A      0.461185   335A      0.463307  
     336A      0.465867   337A      0.469983   338A      0.471752  
     339A      0.475397   340A      0.477626   341A      0.482903  
     342A      0.484499   343A      0.487076   344A      0.488089  
     345A      0.489446   346A      0.493040   347A      0.495225  
     348A      0.497605   349A      0.498207   350A      0.500657  
     351A      0.503158   352A      0.509022   353A      0.509890  
     354A      0.514495   355A      0.515079   356A      0.521665  
     357A      0.523402   358A      0.526293   359A      0.528750  
     360A      0.531619   361A      0.534606   362A      0.536912  
     363A      0.538231   364A      0.539490   365A      0.542347  
     366A      0.546152   367A      0.550607   368A      0.553298  
     369A      0.561406   370A      0.564106   371A      0.571396  
     372A      0.579353   373A      0.582017   374A      0.584632  
     375A      0.586997   376A      0.588923   377A      0.599349  
     378A      0.605892   379A      0.608092   380A      0.614567  
     381A      0.619607   382A      0.623542   383A      0.627238  
     384A      0.631563   385A      0.632870   386A      0.646810  
     387A      0.658094   388A      0.667215   389A      0.670871  
     390A      0.684994   391A      0.689559   392A      0.695525  
     393A      0.698432   394A      0.708196   395A      0.709484  
     396A      0.712740   397A      0.718786   398A      0.728335  
     399A      0.737644   400A      0.739387   401A      0.740887  
     402A      0.743024   403A      0.748797   404A      0.755078  
     405A      0.757931   406A      0.760247   407A      0.762937  
     408A      0.766386   409A      0.770182   410A      0.772193  
     411A      0.774175   412A      0.779611   413A      0.784039  
     414A      0.784528   415A      0.786729   416A      0.793224  
     417A      0.797210   418A      0.804596   419A      0.808050  
     420A      0.812461   421A      0.816216   422A      0.816484  
     423A      0.821742   424A      0.822666   425A      0.825508  
     426A      0.830808   427A      0.833717   428A      0.836149  
     429A      0.844567   430A      0.846818   431A      0.848496  
     432A      0.851650   433A      0.854979   434A      0.859100  
     435A      0.863619   436A      0.868605   437A      0.871866  
     438A      0.873885   439A      0.878951   440A      0.882954  
     441A      0.884134   442A      0.891184   443A      0.895424  
     444A      0.898137   445A      0.902618   446A      0.905217  
     447A      0.905476   448A      0.907130   449A      0.910629  
     450A      0.912438   451A      0.917946   452A      0.922260  
     453A      0.923707   454A      0.925587   455A      0.929807  
     456A      0.930869   457A      0.932621   458A      0.938691  
     459A      0.940781   460A      0.946443   461A      0.947524  
     462A      0.949548   463A      0.954126   464A      0.956297  
     465A      0.959037   466A      0.961053   467A      0.964330  
     468A      0.967471   469A      0.972761   470A      0.976069  
     471A      0.979183   472A      0.980169   473A      0.983850  
     474A      0.988381   475A      0.996292   476A      0.999101  
     477A      1.001285   478A      1.003510   479A      1.006076  
     480A      1.008149   481A      1.012022   482A      1.015157  
     483A      1.023514   484A      1.026366   485A      1.028407  
     486A      1.037594   487A      1.040363   488A      1.044798  
     489A      1.047062   490A      1.051062   491A      1.059334  
     492A      1.063333   493A      1.066389   494A      1.068824  
     495A      1.075710   496A      1.078471   497A      1.082193  
     498A      1.085862   499A      1.089839   500A      1.095320  
     501A      1.097981   502A      1.104227   503A      1.107467  
     504A      1.110830   505A      1.113595   506A      1.121812  
     507A      1.126287   508A      1.132434   509A      1.137088  
     510A      1.139028   511A      1.150128   512A      1.151228  
     513A      1.153952   514A      1.157652   515A      1.160416  
     516A      1.165327   517A      1.168050   518A      1.171031  
     519A      1.172512   520A      1.178846   521A      1.182545  
     522A      1.186328   523A      1.193093   524A      1.194660  
     525A      1.198292   526A      1.205191   527A      1.210562  
     528A      1.212227   529A      1.215534   530A      1.218261  
     531A      1.221698   532A      1.223992   533A      1.231111  
     534A      1.234636   535A      1.239452   536A      1.240452  
     537A      1.243789   538A      1.247504   539A      1.251860  
     540A      1.254695   541A      1.256768   542A      1.262733  
     543A      1.265073   544A      1.270397   545A      1.271435  
     546A      1.277148   547A      1.284012   548A      1.287305  
     549A      1.290013   550A      1.291330   551A      1.298574  
     552A      1.302165   553A      1.303865   554A      1.311144  
     555A      1.318137   556A      1.330308   557A      1.333920  
     558A      1.339938   559A      1.344024   560A      1.353088  
     561A      1.356810   562A      1.359534   563A      1.368554  
     564A      1.371960   565A      1.379132   566A      1.385954  
     567A      1.393512   568A      1.399663   569A      1.403437  
     570A      1.413292   571A      1.420940   572A      1.430948  
     573A      1.437638   574A      1.445696   575A      1.449725  
     576A      1.453222   577A      1.454263   578A      1.461037  
     579A      1.470107   580A      1.475949   581A      1.484390  
     582A      1.490179   583A      1.502165   584A      1.524290  
     585A      1.525851   586A      1.532218   587A      1.540363  
     588A      1.550803   589A      1.558665   590A      1.560832  
     591A      1.570421   592A      1.588153   593A      1.592707  
     594A      1.598579   595A      1.604803   596A      1.613319  
     597A      1.624889   598A      1.628695   599A      1.630611  
     600A      1.634130   601A      1.652389   602A      1.657836  
     603A      1.679240   604A      1.684332   605A      1.687965  
     606A      1.703925   607A      1.706754   608A      1.713767  
     609A      1.718698   610A      1.722452   611A      1.734845  
     612A      1.740521   613A      1.751961   614A      1.754585  
     615A      1.756645   616A      1.761256   617A      1.768312  
     618A      1.771170   619A      1.775799   620A      1.784073  
     621A      1.791383   622A      1.792302   623A      1.801583  
     624A      1.806047   625A      1.810965   626A      1.816125  
     627A      1.817791   628A      1.820463   629A      1.821800  
     630A      1.825971   631A      1.829629   632A      1.829715  
     633A      1.838426   634A      1.839635   635A      1.842008  
     636A      1.849779   637A      1.853458   638A      1.857861  
     639A      1.862246   640A      1.866563   641A      1.869137  
     642A      1.871407   643A      1.874373   644A      1.879696  
     645A      1.885547   646A      1.896645   647A      1.904463  
     648A      1.905167   649A      1.918841   650A      1.919508  
     651A      1.925257   652A      1.931599   653A      1.933289  
     654A      1.936444   655A      1.940455   656A      1.948816  
     657A      1.952504   658A      1.958871   659A      1.964606  
     660A      1.969078   661A      1.972461   662A      1.974928  
     663A      1.979716   664A      1.983626   665A      1.986000  
     666A      1.996981   667A      2.001115   668A      2.003107  
     669A      2.005748   670A      2.008854   671A      2.017117  
     672A      2.018775   673A      2.021370   674A      2.030824  
     675A      2.034637   676A      2.038425   677A      2.044116  
     678A      2.048324   679A      2.053856   680A      2.056583  
     681A      2.063231   682A      2.067011   683A      2.076475  
     684A      2.081132   685A      2.083386   686A      2.089755  
     687A      2.091708   688A      2.093905   689A      2.095617  
     690A      2.096845   691A      2.119743   692A      2.124934  
     693A      2.132034   694A      2.141239   695A      2.145897  
     696A      2.153283   697A      2.158582   698A      2.169243  
     699A      2.177850   700A      2.178938   701A      2.180268  
     702A      2.186898   703A      2.195464   704A      2.199149  
     705A      2.207067   706A      2.210031   707A      2.221546  
     708A      2.222911   709A      2.227585   710A      2.234869  
     711A      2.242536   712A      2.250709   713A      2.253955  
     714A      2.257710   715A      2.260182   716A      2.265483  
     717A      2.270050   718A      2.271187   719A      2.275508  
     720A      2.281079   721A      2.288070   722A      2.292710  
     723A      2.300624   724A      2.303535   725A      2.308209  
     726A      2.309450   727A      2.313620   728A      2.319403  
     729A      2.320692   730A      2.328026   731A      2.331132  
     732A      2.342178   733A      2.353903   734A      2.360715  
     735A      2.362852   736A      2.370300   737A      2.372264  
     738A      2.380297   739A      2.393136   740A      2.397143  
     741A      2.399383   742A      2.405863   743A      2.407829  
     744A      2.426757   745A      2.430158   746A      2.437705  
     747A      2.441092   748A      2.444461   749A      2.459637  
     750A      2.462788   751A      2.469936   752A      2.478308  
     753A      2.490953   754A      2.496249   755A      2.513899  
     756A      2.517733   757A      2.523596   758A      2.533099  
     759A      2.537825   760A      2.540554   761A      2.550358  
     762A      2.561106   763A      2.565981   764A      2.577838  
     765A      2.590682   766A      2.593167   767A      2.607487  
     768A      2.631715   769A      2.637135   770A      2.645991  
     771A      2.650940   772A      2.663691   773A      2.679771  
     774A      2.683556   775A      2.703730   776A      2.705022  
     777A      2.717417   778A      2.726731   779A      2.732398  
     780A      2.745390   781A      2.751528   782A      2.757262  
     783A      2.771825   784A      2.775513   785A      2.790632  
     786A      2.802408   787A      2.806871   788A      2.809954  
     789A      2.814046   790A      2.822572   791A      2.831113  
     792A      2.833418   793A      2.845348   794A      2.852155  
     795A      2.856283   796A      2.861674   797A      2.864513  
     798A      2.873203   799A      2.882268   800A      2.894236  
     801A      2.897232   802A      2.902909   803A      2.915850  
     804A      2.921426   805A      2.930319   806A      2.942133  
     807A      2.944703   808A      2.955403   809A      2.960367  
     810A      2.965955   811A      2.970831   812A      2.971371  
     813A      2.980276   814A      2.986138   815A      2.992932  
     816A      2.997024   817A      3.003893   818A      3.009774  
     819A      3.019217   820A      3.022721   821A      3.029241  
     822A      3.033761   823A      3.038872   824A      3.043925  
     825A      3.052918   826A      3.054610   827A      3.061662  
     828A      3.064058   829A      3.068065   830A      3.073502  
     831A      3.077609   832A      3.086692   833A      3.088994  
     834A      3.097849   835A      3.101057   836A      3.105275  
     837A      3.109902   838A      3.116921   839A      3.118984  
     840A      3.120926   841A      3.127564   842A      3.131045  
     843A      3.138425   844A      3.143804   845A      3.149000  
     846A      3.158777   847A      3.163629   848A      3.174738  
     849A      3.177536   850A      3.181145   851A      3.199669  
     852A      3.201185   853A      3.205191   854A      3.214782  
     855A      3.216854   856A      3.222368   857A      3.233343  
     858A      3.239873   859A      3.246036   860A      3.252679  
     861A      3.254565   862A      3.270435   863A      3.273741  
     864A      3.283074   865A      3.285026   866A      3.290599  
     867A      3.294699   868A      3.300831   869A      3.311079  
     870A      3.313397   871A      3.318873   872A      3.321454  
     873A      3.323926   874A      3.329772   875A      3.335987  
     876A      3.338823   877A      3.342990   878A      3.348172  
     879A      3.359916   880A      3.361499   881A      3.364329  
     882A      3.372093   883A      3.382829   884A      3.383760  
     885A      3.395428   886A      3.397904   887A      3.399962  
     888A      3.403455   889A      3.419065   890A      3.443185  
     891A      3.447098   892A      3.463037   893A      3.474877  
     894A      3.510877   895A      3.524903   896A      3.531893  
     897A      3.574038   898A      3.591181   899A      3.600900  
     900A      3.606416   901A      3.609321   902A      3.630786  
     903A      3.634789   904A      3.656229   905A      3.662043  
     906A      3.670000   907A      3.679687   908A      3.691466  
     909A      3.724277   910A      3.762539   911A      3.773375  
     912A      3.776443   913A      3.781243   914A      3.796937  
     915A      3.800887   916A      3.814588   917A      3.827495  
     918A      3.848790   919A      3.874995   920A      3.878866  
     921A      3.903745   922A      3.915873   923A      3.920237  
     924A      3.928315   925A      3.948539   926A      3.956869  
     927A      3.959832   928A      3.968260   929A      3.979229  
     930A      3.982567   931A      4.006693   932A      4.011334  
     933A      4.042964   934A      4.058948   935A      4.068085  
     936A      4.084573   937A      4.100070   938A      4.113091  
     939A      4.118307   940A      4.120693   941A      4.143855  
     942A      4.166555   943A      4.179332   944A      4.190008  
     945A      4.190535   946A      4.203005   947A      4.203479  
     948A      4.221279   949A      4.256004   950A      4.346937  
     951A      4.354112   952A      4.358766   953A      4.361781  
     954A      4.396491   955A      4.421900   956A      4.431238  
     957A      4.431666   958A      4.433427   959A      4.447859  
     960A      4.461485   961A      4.467970   962A      4.484304  
     963A      4.518068   964A      4.546989   965A      4.552386  
     966A      4.576066   967A      4.577891   968A      4.606457  
     969A      4.627609   970A      4.669201   971A      4.716312  
     972A      4.768879   973A      4.773849   974A      4.788491  
     975A      4.904302   976A      4.931749   977A      5.000828  
     978A      5.044812   979A      5.242500   980A      5.251560  
     981A      5.263157   982A      5.279180   983A      5.293927  
     984A      5.341198   985A      5.351472   986A      5.381823  
     987A      5.424827   988A      5.602218   989A      5.692016  
     990A      5.695685   991A      5.772357   992A      5.836777  
     993A      5.867612   994A      6.392869   995A     24.769164  
     996A     24.816729   997A     24.821499   998A     24.845090  
     999A     24.893128  1000A     24.930424  1001A     24.941187  
    1002A     25.014978  1003A     25.019766  1004A     25.025138  
    1005A     25.037977  1006A     25.072190  1007A     25.074110  
    1008A     25.092928  1009A     25.099716  1010A     25.116400  
    1011A     25.125292  1012A     25.131484  1013A     25.137792  
    1014A     25.145374  1015A     25.174539  1016A     25.201927  
    1017A     25.204383  1018A     25.235420  1019A     25.241021  
    1020A     25.249491  1021A     25.252334  1022A     25.316770  
    1023A     25.329180  1024A     36.947201  1025A     36.987343  
    1026A     37.015347  1027A     37.068210  1028A     37.083562  
    1029A     37.133993  1030A     37.142208  1031A     51.759209  

    Final Occupation by Irrep:
              A 
    DOCC [   131 ]

  @DF-RHF Final Energy: -1572.31884011059560

   => Energetics <=

    Nuclear Repulsion Energy =           3742.3881569857717295
    One-Electron Energy =               -9582.8360627319871128
    Two-Electron Energy =                4268.1290656356204636
    Total Energy =                      -1572.3188401105953744

Computation Completed


Properties will be evaluated at   0.000000,   0.000000,   0.000000 [a0]

Properties computed using the SCF density matrix

  Nuclear Dipole Moment: [e a0]
     X:   -34.9774      Y:     6.1305      Z:     5.2046

  Electronic Dipole Moment: [e a0]
     X:    35.3524      Y:    -3.8105      Z:    -5.7601

  Dipole Moment: [e a0]
     X:     0.3750      Y:     2.3200      Z:    -0.5555     Total:     2.4149

  Dipole Moment: [D]
     X:     0.9533      Y:     5.8969      Z:    -1.4119     Total:     6.1380


*** tstop() called on node36.bme.utexas.edu at Sat Mar  7 11:05:03 2020
Module time:
	user time   =    6598.86 seconds =     109.98 minutes
	system time =     275.52 seconds =       4.59 minutes
	total time  =       1380 seconds =      23.00 minutes
Total time:
	user time   =    6598.86 seconds =     109.98 minutes
	system time =     275.52 seconds =       4.59 minutes
	total time  =       1380 seconds =      23.00 minutes

*** tstart() called on node36.bme.utexas.edu
*** at Sat Mar  7 11:05:03 2020


  //>>>>>>>>>>>>>>>>>>>>>>>>>>>>>>>>>>>//
  //               DFMP2               //
  //<<<<<<<<<<<<<<<<<<<<<<<<<<<<<<<<<<<//

   => Loading Basis Set <=

    Name: (6-311++G** AUX)
    Role: RIFIT
    Keyword: DF_BASIS_MP2
    atoms 1-4, 6-9, 11, 14-19, 21-28, 30-31, 33-35, 37 entry C          line   148 file /home/bdw2292/miniconda3/envs/p4env/share/psi4/basis/aug-cc-pvtz-ri.gbs 
    atoms 5, 10, 12-13, 20, 29, 32                     entry N          line   206 file /home/bdw2292/miniconda3/envs/p4env/share/psi4/basis/aug-cc-pvtz-ri.gbs 
    atoms 36                                           entry O          line   264 file /home/bdw2292/miniconda3/envs/p4env/share/psi4/basis/aug-cc-pvtz-ri.gbs 
    atoms 38-68                                        entry H          line    30 file /home/bdw2292/miniconda3/envs/p4env/share/psi4/basis/aug-cc-pvtz-ri.gbs 

	 --------------------------------------------------------
	                          DF-MP2                         
	      2nd-Order Density-Fitted Moller-Plesset Theory     
	              RMP2 Wavefunction,   6 Threads             
	                                                         
	        Rob Parrish, Justin Turney, Andy Simmonett,      
	           Ed Hohenstein, and C. David Sherrill          
	 --------------------------------------------------------

   => Auxiliary Basis Set <=

  Basis Set: (6-311++G** AUX)
    Blend: AUG-CC-PVTZ-RI
    Number of shells: 1470
    Number of basis function: 5348
    Number of Cartesian functions: 6737
    Spherical Harmonics?: true
    Max angular momentum: 4

	 --------------------------------------------------------
	                 NBF =  1031, NAUX =  5348
	 --------------------------------------------------------
	   CLASS    FOCC     OCC    AOCC    AVIR     VIR    FVIR
	   PAIRS      37     131      94     900     900       0
	 --------------------------------------------------------

	-----------------------------------------------------------
	 ==================> DF-MP2 Energies <==================== 
	-----------------------------------------------------------
	 Reference Energy          =   -1572.3188401105956018 [Eh]
	 Singles Energy            =      -0.0000000000000000 [Eh]
	 Same-Spin Energy          =      -1.4707976895734163 [Eh]
	 Opposite-Spin Energy      =      -4.0481896869045144 [Eh]
	 Correlation Energy        =      -5.5189873764779307 [Eh]
	 Total Energy              =   -1577.8378274870735822 [Eh]
	-----------------------------------------------------------
	 ================> DF-SCS-MP2 Energies <================== 
	-----------------------------------------------------------
	 SCS Same-Spin Scale       =       0.3333333333333333 [-]
	 SCS Opposite-Spin Scale   =       1.2000000000000000 [-]
	 SCS Same-Spin Energy      =      -0.4902658965244721 [Eh]
	 SCS Opposite-Spin Energy  =      -4.8578276242854175 [Eh]
	 SCS Correlation Energy    =      -5.3480935208098899 [Eh]
	 SCS Total Energy          =   -1577.6669336314055272 [Eh]
	-----------------------------------------------------------


*** tstop() called on node36.bme.utexas.edu at Sat Mar  7 11:16:17 2020
Module time:
	user time   =    3696.62 seconds =      61.61 minutes
	system time =      79.05 seconds =       1.32 minutes
	total time  =        674 seconds =      11.23 minutes
Total time:
	user time   =   10295.49 seconds =     171.59 minutes
	system time =     354.57 seconds =       5.91 minutes
	total time  =       2054 seconds =      34.23 minutes


Properties will be evaluated at   0.000000,   0.000000,   0.000000 [a0]
OEProp: No title given, name of density matrix used for the following properties is 'SCF density'


  Wiberg Bond Indices using Orthogonal Lowdin Orbitals:

  Irrep: 1 Size: 68 x 68

                 1                   2                   3                   4                   5

    1     0.00000000000000     1.46627603629310     0.12506250166233     0.14050059826325     0.12446575100766
    2     1.46627603629310     0.00000000000000     1.40005155179280     0.12786899287722     0.12213055755071
    3     0.12506250166233     1.40005155179280     0.00000000000000     1.36101567873491     0.12010157678114
    4     0.14050059826325     0.12786899287722     1.36101567873491     0.00000000000000     1.67002275923318
    5     0.12446575100766     0.12213055755071     0.12010157678114     1.67002275923318     0.00000000000000
    6     1.46331945489178     0.13848243764326     0.13582489011543     0.15417366307856     1.63227067693949
    7     0.01469870715761     0.10341686672820     1.02253470390893     0.10367141795762     0.01407628971118
    8     0.00357988484933     0.04177962327805     0.09813944465366     0.02370546676420     0.00220653653196
    9     0.00036640104239     0.00474190008949     0.01483676286593     0.00409083055752     0.00070127577940
   10     0.00042990755457     0.00552120280385     0.00585631865603     0.00612248469378     0.00032459925111
   11     0.00091599035574     0.00339996052887     0.01827191855856     0.00704167802277     0.00044433283389
   12     0.00280949709898     0.02209946468388     0.12003588466439     0.06342000021857     0.00417623778928
   13     0.00015280068509     0.00046058762123     0.00167260380130     0.00086974204328     0.00008015793661
   14     0.00003341739945     0.00009420688603     0.00055418028965     0.00099155655400     0.00008754615450
   15     0.00001167128421     0.00002407917455     0.00007064053405     0.00013235617856     0.00001456226320
   16     0.00000203931594     0.00000532827419     0.00003457986578     0.00014092155317     0.00000756896969
   17     0.00001181613510     0.00001639176877     0.00005058128834     0.00020584564687     0.00002661543013
   18     0.00002618556459     0.00004026436255     0.00022453016265     0.00103554326674     0.00014793949142
   19     0.00019112605597     0.00022644260194     0.00191368824738     0.00853106169094     0.00046846270959
   20     0.00005496648474     0.00003902456439     0.00015775369160     0.00141264886370     0.00021393533306
   21     0.00001181112254     0.00000703099737     0.00002174638226     0.00017269583167     0.00006061741590
   22     0.00002816846464     0.00001774944305     0.00002250452834     0.00018717862710     0.00019417642999
   23     0.00019587667350     0.00017465518975     0.00005094346767     0.00102071489540     0.00148916454454
   24     0.00005160539444     0.00011666430086     0.00004878170042     0.00028490937441     0.00074990485828
   25     0.00000578546187     0.00000482448424     0.00000686504827     0.00004287011041     0.00008875976129
   26     0.00000292827156     0.00000197753796     0.00000838431714     0.00019902143357     0.00018934717779
   27     0.00000317591146     0.00000210927227     0.00000731674546     0.00008817580323     0.00007971552903
   28     0.00000303031360     0.00000103138334     0.00000106098123     0.00000528206962     0.00001459311172
   29     0.00002274489472     0.00000344698722     0.00000302513268     0.00000873240544     0.00007375972886
   30     0.00008189929778     0.00002121628101     0.00002363336113     0.00007371556237     0.00057514750253
   31     0.00059374928901     0.00024186841144     0.00033607942180     0.00048753588140     0.00497268990218
   32     0.00008224921789     0.00002577439414     0.00003745873539     0.00007499492871     0.00046833041850
   33     0.00005232736945     0.00002327050164     0.00002007610563     0.00002330943838     0.00013171835388
   34     0.00002123944683     0.00000693409190     0.00001075928271     0.00004317729994     0.00025706346930
   35     0.00000613361929     0.00000093780488     0.00000118010663     0.00000814565079     0.00004177561293
   36     0.00000179295561     0.00000158078026     0.00000739201446     0.00010197506312     0.00002513690290
   37     0.00000218015823     0.00000758251229     0.00003375390765     0.00003278618390     0.00000331263989
   38     0.88637615324969     0.07936741681897     0.01179795851274     0.00633630913665     0.01076236608147
   39     0.07783287140057     0.87071930679996     0.07276061087802     0.01167660733939     0.00395425251755
   40     0.00576473142999     0.01072173307027     0.06980018740945     0.85293973167472     0.08720417324108
   41     0.07709487646445     0.01165566244474     0.00597792216756     0.01575295112343     0.08831164079114
   42     0.00109750354301     0.01429019893647     0.01428379856671     0.00136023542746     0.00029644588611
   43     0.00004500410481     0.00028496469126     0.00145049705593     0.00031510294839     0.00008005755424
   44     0.00002597477752     0.00008447275393     0.00034625111803     0.00009260007235     0.00000892807272
   45     0.00000033606004     0.00000105938229     0.00000717154613     0.00001607145708     0.00000124234811
   46     0.00000076831974     0.00000128653507     0.00000573861951     0.00002039819193     0.00000542283006
   47     0.00013619865780     0.00020696233150     0.00204375116976     0.00728173633991     0.00053916620457
   48     0.00012488827256     0.00006086487335     0.00015996717352     0.00157668762629     0.00040887844205
   49     0.00008401794962     0.00004738685827     0.00002799853916     0.00043950466454     0.00039457391971
   50     0.00000962308175     0.00002626973043     0.00001759505558     0.00003912799874     0.00014890522898
   51     0.00000029522007     0.00000021114398     0.00000084114298     0.00000589927249     0.00000425377748
   52     0.00000040013737     0.00000029131922     0.00000050990737     0.00000285790048     0.00000242034636
   53     0.00000038231113     0.00000011281863     0.00000014357679     0.00000085774864     0.00000351308651
   54     0.00000105755852     0.00000010801506     0.00000011141181     0.00000082416179     0.00000211859749
   55     0.00001169288856     0.00000325337143     0.00000569048023     0.00000761563322     0.00003347175086
   56     0.00001174524311     0.00000195727782     0.00000221335278     0.00005183152293     0.00031590725313
   57     0.00051375666029     0.00008172190848     0.00009839250035     0.00012873279782     0.00089769723203
   58     0.00009053240093     0.00008334461458     0.00011242470124     0.00034626687348     0.00324777894634
   59     0.00000351250637     0.00000068877461     0.00000078440748     0.00000435005656     0.00001627780983
   60     0.00003018829704     0.00001190600882     0.00001313345565     0.00000971628278     0.00005799087125
   61     0.00000169529376     0.00000129198275     0.00000150180411     0.00000212422775     0.00000976834103
   62     0.00000173611280     0.00000040484451     0.00000048083725     0.00000319110617     0.00000626676185
   63     0.00000664069951     0.00000307936159     0.00000379569885     0.00002879325430     0.00020460132110
   64     0.00000416496278     0.00000031589887     0.00000031244167     0.00000160726298     0.00001006718405
   65     0.00000148596504     0.00000013979518     0.00000023406231     0.00000124241592     0.00000447525289
   66     0.00000071877461     0.00000180571471     0.00000863986816     0.00000846536211     0.00000041754484
   67     0.00000111894635     0.00000262844340     0.00001447851006     0.00000927594133     0.00000059778027
   68     0.00000023117688     0.00000085828535     0.00000444601454     0.00000638877833     0.00000060076063

                 6                   7                   8                   9                  10

    1     1.46331945489178     0.01469870715761     0.00357988484933     0.00036640104239     0.00042990755457
    2     0.13848243764326     0.10341686672820     0.04177962327805     0.00474190008949     0.00552120280385
    3     0.13582489011543     1.02253470390893     0.09813944465366     0.01483676286593     0.00585631865603
    4     0.15417366307856     0.10367141795762     0.02370546676420     0.00409083055752     0.00612248469378
    5     1.63227067693949     0.01407628971118     0.00220653653196     0.00070127577940     0.00032459925111
    6     0.00000000000000     0.00994416251326     0.00692039057239     0.00122977907181     0.00346146241675
    7     0.00994416251326     0.00000000000000     1.38828886984982     0.14672965664408     0.11344337441993
    8     0.00692039057239     1.38828886984982     0.00000000000000     1.43602823821827     0.12986858705557
    9     0.00122977907181     0.14672965664408     1.43602823821827     0.00000000000000     1.65958018362512
   10     0.00346146241675     0.11344337441993     0.12986858705557     1.65958018362512     0.00000000000000
   11     0.00087733283281     0.14258719563185     0.11702610203559     0.15354925919196     1.51535451630741
   12     0.00608590133370     1.52751296070407     0.12402527269246     0.11234733854401     0.11087003032859
   13     0.00006921241438     0.01916833020252     0.01860217117910     0.02348631370672     0.15949292553536
   14     0.00003774764908     0.00284595627006     0.00296230501383     0.00321686720536     0.01854801462762
   15     0.00000506503951     0.00051821030648     0.00130236743903     0.00085529411673     0.00316660694542
   16     0.00000265992470     0.00015713558961     0.00020542723387     0.00015358722218     0.00050505273805
   17     0.00000745319222     0.00024760474143     0.00111625488295     0.00039431127630     0.00118300419175
   18     0.00002823468427     0.00051255280711     0.00024292048037     0.00016204344323     0.00036801407874
   19     0.00017826678883     0.00568716609775     0.00287118207799     0.00149253607570     0.00426958150217
   20     0.00003335371611     0.00011146962785     0.00002921510108     0.00001772232454     0.00005558294116
   21     0.00000992744958     0.00001804635164     0.00000874986670     0.00000496065045     0.00001525398366
   22     0.00003578244748     0.00000461904527     0.00000133195531     0.00000094771697     0.00000268811097
   23     0.00018637858660     0.00001578259656     0.00001126200474     0.00000177321377     0.00000684735267
   24     0.00015514732678     0.00000657360275     0.00000229039322     0.00000082303451     0.00000093840275
   25     0.00003677543614     0.00000116568628     0.00000044173072     0.00000016312626     0.00000021505152
   26     0.00005905646397     0.00000074813086     0.00000033889880     0.00000013682559     0.00000029202910
   27     0.00002609050214     0.00000169439757     0.00000142215852     0.00000045079823     0.00000147381325
   28     0.00002660035905     0.00000035824096     0.00000009981830     0.00000004168097     0.00000005901050
   29     0.00027165242772     0.00000073780342     0.00000038876596     0.00000006613601     0.00000012850864
   30     0.00094552418995     0.00000241468773     0.00000258338746     0.00000043532247     0.00000092530408
   31     0.00911480692242     0.00002537382190     0.00002885685081     0.00000417017789     0.00001026961304
   32     0.00069509623446     0.00000519936438     0.00000240572306     0.00000034397390     0.00000045445692
   33     0.00033746068736     0.00000296989119     0.00000167467647     0.00000021740627     0.00000068359608
   34     0.00022869304915     0.00000168775934     0.00000102988653     0.00000011568273     0.00000018489723
   35     0.00007412591541     0.00000035205608     0.00000015623602     0.00000005330477     0.00000003693431
   36     0.00000565716699     0.00000835089037     0.00000718483571     0.00000380887919     0.00001092909039
   37     0.00000273604652     0.00015724075291     0.00013878694184     0.00015497212721     0.00098639835833
   38     0.08244139063970     0.00129712835974     0.00025153831645     0.00003952503658     0.00002703529737
   39     0.01173191737641     0.01619712514342     0.01495571762836     0.00116066627180     0.00040082925935
   40     0.01492499781883     0.01596984997463     0.00168723007844     0.00041504000158     0.00062969484058
   41     0.87643458633813     0.00054507669519     0.00026966211416     0.00005223306415     0.00010640767876
   42     0.00049374686653     0.07558794712212     0.87586035431680     0.08044029631998     0.01039330116239
   43     0.00004393938297     0.01182951765998     0.07638621587744     0.87543606294570     0.08911373367963
   44     0.00001555266497     0.00208070593309     0.00216145233460     0.00338206100215     0.02906856746108
   45     0.00000043460048     0.00001979823775     0.00001347757094     0.00002171353952     0.00005376901769
   46     0.00000100502086     0.00002324013297     0.00003583066617     0.00001648010439     0.00005052400348
   47     0.00019781242939     0.00428377674813     0.00094055117116     0.00047857713162     0.00076540839773
   48     0.00005986866288     0.00007269288339     0.00002281506992     0.00001206934446     0.00001483743248
   49     0.00003229759131     0.00000892811832     0.00001678087137     0.00000284915099     0.00000328366603
   50     0.00003384487487     0.00000187324493     0.00000061398838     0.00000017153330     0.00000015821351
   51     0.00000179413808     0.00000013207302     0.00000002100593     0.00000002637676     0.00000004461384
   52     0.00000084042787     0.00000021171672     0.00000007591614     0.00000005437157     0.00000016518324
   53     0.00000175541701     0.00000008798171     0.00000000999510     0.00000000389789     0.00000000559284
   54     0.00001675867701     0.00000003485963     0.00000000678882     0.00000000307979     0.00000000381470
   55     0.00008227587058     0.00000030118698     0.00000057341643     0.00000008875961     0.00000016642617
   56     0.00013903059673     0.00000030755033     0.00000013871919     0.00000007171411     0.00000003048854
   57     0.00691771707810     0.00001082518051     0.00000730868325     0.00000111661917     0.00000280471745
   58     0.00164290712491     0.00001077315401     0.00000818879566     0.00000151282302     0.00000303779021
   59     0.00004469447650     0.00000013211665     0.00000007817984     0.00000001547900     0.00000003330086
   60     0.00016989106614     0.00000187405379     0.00000128773679     0.00000018518827     0.00000052074117
   61     0.00002902292456     0.00000016930773     0.00000016010950     0.00000002248784     0.00000006027402
   62     0.00001291885011     0.00000010177977     0.00000005016532     0.00000001451283     0.00000001690349
   63     0.00004503387007     0.00000087847954     0.00000066907929     0.00000007669299     0.00000017027023
   64     0.00004089807725     0.00000012070733     0.00000004692984     0.00000001620924     0.00000001125707
   65     0.00001217939503     0.00000005413726     0.00000003730653     0.00000001709344     0.00000000571890
   66     0.00000041034456     0.00003649282174     0.00006953516639     0.00003524565270     0.00025768916766
   67     0.00000088784174     0.00005587147568     0.00010941031318     0.00007026205605     0.00059262731595
   68     0.00000024931026     0.00001598192516     0.00000416843496     0.00000465715473     0.00003824372782

                11                  12                  13                  14                  15

    1     0.00091599035574     0.00280949709898     0.00015280068509     0.00003341739945     0.00001167128421
    2     0.00339996052887     0.02209946468388     0.00046058762123     0.00009420688603     0.00002407917455
    3     0.01827191855856     0.12003588466439     0.00167260380130     0.00055418028965     0.00007064053405
    4     0.00704167802277     0.06342000021857     0.00086974204328     0.00099155655400     0.00013235617856
    5     0.00044433283389     0.00417623778928     0.00008015793661     0.00008754615450     0.00001456226320
    6     0.00087733283281     0.00608590133370     0.00006921241438     0.00003774764908     0.00000506503951
    7     0.14258719563185     1.52751296070407     0.01916833020252     0.00284595627006     0.00051821030648
    8     0.11702610203559     0.12402527269246     0.01860217117910     0.00296230501383     0.00130236743903
    9     0.15354925919196     0.11234733854401     0.02348631370672     0.00321686720536     0.00085529411673
   10     1.51535451630741     0.11087003032859     0.15949292553536     0.01854801462762     0.00316660694542
   11     0.00000000000000     1.54451040397981     1.25619372044607     0.08331726464508     0.01771241493507
   12     1.54451040397981     0.00000000000000     0.14259986321309     0.02867702547734     0.00333234505630
   13     1.25619372044607     0.14259986321309     0.00000000000000     1.13034675726618     0.10748696394659
   14     0.08331726464508     0.02867702547734     1.13034675726618     0.00000000000000     1.31424567733824
   15     0.01771241493507     0.00333234505630     0.10748696394659     1.31424567733824     0.00000000000000
   16     0.00242396273772     0.00098945201800     0.01456164372504     0.12598389894913     1.44321251815662
   17     0.00383833911512     0.00210831459208     0.01289526277063     0.11892044240498     0.12486197820414
   18     0.00247248919275     0.00402186283814     0.01344523780389     0.12304198551148     0.12007518439086
   19     0.02805162026287     0.05057575838453     0.11238093897842     1.40280868255831     0.11844309361656
   20     0.00034444328026     0.00098172212937     0.00133450178431     0.01505420025226     0.01120086959896
   21     0.00006215778679     0.00009873352393     0.00031389791022     0.00278770917699     0.00579673041401
   22     0.00001256143827     0.00001958867007     0.00005657465538     0.00035895358479     0.00033636297909
   23     0.00001013668245     0.00005097695715     0.00001696614537     0.00012049402220     0.00034411931648
   24     0.00000107737402     0.00000338330447     0.00000221330197     0.00001296655165     0.00003482670923
   25     0.00000079489669     0.00000185604167     0.00000179786508     0.00002405886632     0.00014433441905
   26     0.00000068387345     0.00000126783014     0.00000244882543     0.00001763866512     0.00003154358440
   27     0.00000326680552     0.00000367974461     0.00001444053274     0.00009827870163     0.00029444041744
   28     0.00000016479949     0.00000048013285     0.00000017935859     0.00000217953924     0.00001044248392
   29     0.00000015093692     0.00000043455645     0.00000012370230     0.00000136162702     0.00000774862484
   30     0.00000031992081     0.00000189646812     0.00000013289069     0.00000037678904     0.00000128849024
   31     0.00000266758313     0.00001961444924     0.00000037184446     0.00000086213075     0.00000048209598
   32     0.00000037150983     0.00000176546823     0.00000009957727     0.00000017119544     0.00000027290674
   33     0.00000018767971     0.00000103553843     0.00000003027758     0.00000010633723     0.00000014170438
   34     0.00000026762960     0.00000153713095     0.00000009107548     0.00000042402243     0.00000068222000
   35     0.00000010954369     0.00000024437538     0.00000006049506     0.00000044140780     0.00000109191479
   36     0.00003992229934     0.00004685060943     0.00016715230358     0.00104607155525     0.00338410613235
   37     0.00372846269748     0.00080097748652     0.03859002756223     0.09616424698214     1.06038061545099
   38     0.00009167327458     0.00031394122351     0.00001613862718     0.00000717502572     0.00000078697943
   39     0.00028933629392     0.00109520953556     0.00006925203708     0.00002326711012     0.00000380342783
   40     0.00285549487077     0.02650802069714     0.00041815540617     0.00084620036406     0.00010346740007
   41     0.00004358038419     0.00025501632083     0.00000527788456     0.00000357952435     0.00000046625432
   42     0.00583697264255     0.01057663226715     0.00094571767132     0.00012697630054     0.00005935805031
   43     0.01576164631189     0.00402570184087     0.00135582146896     0.00037886299243     0.00006438422017
   44     0.07416326702249     0.01211459296497     0.93505077953528     0.05976508468051     0.01523351186220
   45     0.00036926864705     0.00006998522397     0.00114665425166     0.01141483845795     0.07484459896340
   46     0.00014394296654     0.00014134780149     0.00054427432368     0.00522561671662     0.01056228523366
   47     0.00993249026761     0.03574748690158     0.01603919520142     0.07371583397182     0.00974327048585
   48     0.00011511299205     0.00054085481114     0.00017496098266     0.00204718279676     0.00111847175831
   49     0.00000499550391     0.00002383236920     0.00001145866237     0.00004033346335     0.00011570456061
   50     0.00000014155230     0.00000043361610     0.00000025065806     0.00000147573710     0.00000166873789
   51     0.00000010054665     0.00000018948616     0.00000049238349     0.00000279754080     0.00000353324390
   52     0.00000072683976     0.00000080545023     0.00000265764101     0.00001627669538     0.00001928924362
   53     0.00000002611646     0.00000003350439     0.00000005525355     0.00000039360642     0.00000148895542
   54     0.00000001513213     0.00000002806532     0.00000004250985     0.00000031261879     0.00000155596516
   55     0.00000004819026     0.00000037681225     0.00000001576656     0.00000007478341     0.00000011757891
   56     0.00000006418430     0.00000022591379     0.00000003546291     0.00000009520149     0.00000039208258
   57     0.00000075083849     0.00000463411880     0.00000008506856     0.00000012436925     0.00000013213369
   58     0.00000110617831     0.00000677828631     0.00000044553373     0.00000062546501     0.00000051112234
   59     0.00000001193625     0.00000006631978     0.00000000414386     0.00000002209428     0.00000003515033
   60     0.00000011394325     0.00000066652828     0.00000001208464     0.00000001655855     0.00000001845982
   61     0.00000001983499     0.00000009263893     0.00000000416910     0.00000000864547     0.00000001440978
   62     0.00000001694123     0.00000009249895     0.00000001009013     0.00000003452624     0.00000007276156
   63     0.00000023495043     0.00000196033694     0.00000013046060     0.00000056268271     0.00000196934829
   64     0.00000003773233     0.00000002799986     0.00000001190682     0.00000009397488     0.00000046370224
   65     0.00000001324446     0.00000003918623     0.00000001667286     0.00000008283833     0.00000006882683
   66     0.00067665090956     0.00022241484404     0.00861604018399     0.01634941455229     0.05846127446953
   67     0.00110910094833     0.00032416793584     0.01138659100622     0.01665447015176     0.05811406304916
   68     0.00023568545123     0.00006429620058     0.00205655798174     0.00894028887273     0.05936859453210

                16                  17                  18                  19                  20

    1     0.00000203931594     0.00001181613510     0.00002618556459     0.00019112605597     0.00005496648474
    2     0.00000532827419     0.00001639176877     0.00004026436255     0.00022644260194     0.00003902456439
    3     0.00003457986578     0.00005058128834     0.00022453016265     0.00191368824738     0.00015775369160
    4     0.00014092155317     0.00020584564687     0.00103554326674     0.00853106169094     0.00141264886370
    5     0.00000756896969     0.00002661543013     0.00014793949142     0.00046846270959     0.00021393533306
    6     0.00000265992470     0.00000745319222     0.00002823468427     0.00017826678883     0.00003335371611
    7     0.00015713558961     0.00024760474143     0.00051255280711     0.00568716609775     0.00011146962785
    8     0.00020542723387     0.00111625488295     0.00024292048037     0.00287118207799     0.00002921510108
    9     0.00015358722218     0.00039431127630     0.00016204344323     0.00149253607570     0.00001772232454
   10     0.00050505273805     0.00118300419175     0.00036801407874     0.00426958150217     0.00005558294116
   11     0.00242396273772     0.00383833911512     0.00247248919275     0.02805162026287     0.00034444328026
   12     0.00098945201800     0.00210831459208     0.00402186283814     0.05057575838453     0.00098172212937
   13     0.01456164372504     0.01289526277063     0.01344523780389     0.11238093897842     0.00133450178431
   14     0.12598389894913     0.11892044240498     0.12304198551148     1.40280868255831     0.01505420025226
   15     1.44321251815662     0.12486197820414     0.12007518439086     0.11844309361656     0.01120086959896
   16     0.00000000000000     1.44435913883018     0.13286214139093     0.12521535287170     0.01368201992967
   17     1.44435913883018     0.00000000000000     1.39978076080017     0.12123705610383     0.10427963158859
   18     0.13286214139093     1.39978076080017     0.00000000000000     1.36272833857692     1.12507940741987
   19     0.12521535287170     0.12123705610383     1.36272833857692     0.00000000000000     0.12374415286125
   20     0.01368201992967     0.10427963158859     1.12507940741987     0.12374415286125     0.00000000000000
   21     0.00283445665106     0.03178695216168     0.08650617206217     0.02248812148874     1.31572543690461
   22     0.00035882751569     0.00336636884690     0.01442575646927     0.00207636966705     0.10396175822809
   23     0.00015491555443     0.00118583716225     0.00391136996386     0.00125773937441     0.04140689317287
   24     0.00002163674215     0.00015617030987     0.00041774303557     0.00014854609081     0.00356259157343
   25     0.00002572570774     0.00024686438390     0.00045192406976     0.00021602982331     0.00334748275428
   26     0.00002137098589     0.00013648703687     0.00048125541707     0.00010411461950     0.00238994435449
   27     0.00010366925728     0.00089046298953     0.00230273834492     0.00064581630381     0.01763225207548
   28     0.00000247656905     0.00002149599962     0.00004159036635     0.00001769089156     0.00026089652878
   29     0.00000144586002     0.00001173956649     0.00002215595546     0.00001118128264     0.00015436271610
   30     0.00000038009529     0.00000247265535     0.00000450767099     0.00000253884518     0.00002729918245
   31     0.00000028548171     0.00000178304089     0.00000324037464     0.00000203521051     0.00002814438644
   32     0.00000012371315     0.00000084334804     0.00000290359658     0.00000058181048     0.00000769819293
   33     0.00000006195421     0.00000036268358     0.00000052679836     0.00000039103385     0.00000191649388
   34     0.00000046855615     0.00000330951871     0.00000592806574     0.00000267565930     0.00002977819027
   35     0.00000052356336     0.00000345926234     0.00000683565836     0.00000193218894     0.00003361910715
   36     0.00368175286815     0.05123745386230     0.03218187010216     0.00526557925710     0.19257377182005
   37     0.11579143612833     0.01444800346134     0.00735333533135     0.01385976647831     0.00071255677526
   38     0.00000027142608     0.00000050010409     0.00000342229746     0.00002098728319     0.00000309012463
   39     0.00000098749488     0.00000135820529     0.00000472653512     0.00003235932134     0.00000280862217
   40     0.00013181211200     0.00015018825659     0.00090935582189     0.00648245225096     0.00081274645222
   41     0.00000025120956     0.00000040335744     0.00000194818730     0.00001156972096     0.00000255621715
   42     0.00000906242244     0.00004150893322     0.00002440985506     0.00017812933356     0.00000595590423
   43     0.00001495777512     0.00001359955088     0.00001313007493     0.00010259143756     0.00000151375055
   44     0.00155201008607     0.00112532872511     0.00130558257591     0.01061244633646     0.00024896787785
   45     0.87127241423377     0.07901204571212     0.01173471971494     0.00563549265600     0.00102918822071
   46     0.07730702881705     0.85866258872705     0.07529223988876     0.01122328148231     0.01467806064613
   47     0.00564558014482     0.01024326385215     0.07149801554612     0.83867562491798     0.02379117401891
   48     0.00137294467977     0.01011598909147     0.06222664714350     0.02137157676559     0.93726759124668
   49     0.00006415693820     0.00037988920597     0.00152540807185     0.00064429193211     0.01497671141287
   50     0.00000227832388     0.00001347576619     0.00003334077776     0.00001167543794     0.00020565120483
   51     0.00000284023116     0.00001846581144     0.00006444771939     0.00001871664561     0.00028212993605
   52     0.00002715065533     0.00017259276873     0.00025176339135     0.00007287812324     0.00166749415735
   53     0.00000053813706     0.00000384049756     0.00000835495441     0.00000283001707     0.00003792871596
   54     0.00000044682549     0.00000375579909     0.00000733377611     0.00000328413416     0.00004742520012
   55     0.00000006520774     0.00000033789636     0.00000073353808     0.00000036464949     0.00000428526713
   56     0.00000007862412     0.00000056943962     0.00000088111407     0.00000060077613     0.00000641337488
   57     0.00000003473435     0.00000016620856     0.00000026592887     0.00000047601724     0.00000209487504
   58     0.00000044463964     0.00000270578769     0.00000390486759     0.00000142381081     0.00002587113757
   59     0.00000001704821     0.00000008028370     0.00000011927525     0.00000009014044     0.00000048777434
   60     0.00000000702414     0.00000002933013     0.00000004316548     0.00000007023765     0.00000028864052
   61     0.00000001120961     0.00000006146283     0.00000006665762     0.00000002733552     0.00000025055379
   62     0.00000003517535     0.00000022610306     0.00000029389877     0.00000018274287     0.00000170903043
   63     0.00000076260710     0.00000640960371     0.00000899093447     0.00000578161013     0.00004498267007
   64     0.00000017247646     0.00000129917382     0.00000099693242     0.00000077086408     0.00000767346310
   65     0.00000010662016     0.00000056117779     0.00000175150800     0.00000041932172     0.00000847741758
   66     0.01574155208325     0.00129442273319     0.00311282251724     0.00119451329336     0.00037938208451
   67     0.01447536344247     0.00125455915319     0.00262777892017     0.00126041073373     0.00030658564626
   68     0.02380068242316     0.00189863198422     0.00056803735159     0.00107805933733     0.00008605501206

                21                  22                  23                  24                  25

    1     0.00001181112254     0.00002816846464     0.00019587667350     0.00005160539444     0.00000578546187
    2     0.00000703099737     0.00001774944305     0.00017465518975     0.00011666430086     0.00000482448424
    3     0.00002174638226     0.00002250452834     0.00005094346767     0.00004878170042     0.00000686504827
    4     0.00017269583167     0.00018717862710     0.00102071489540     0.00028490937441     0.00004287011041
    5     0.00006061741590     0.00019417642999     0.00148916454454     0.00074990485828     0.00008875976129
    6     0.00000992744958     0.00003578244748     0.00018637858660     0.00015514732678     0.00003677543614
    7     0.00001804635164     0.00000461904527     0.00001578259656     0.00000657360275     0.00000116568628
    8     0.00000874986670     0.00000133195531     0.00001126200474     0.00000229039322     0.00000044173072
    9     0.00000496065045     0.00000094771697     0.00000177321377     0.00000082303451     0.00000016312626
   10     0.00001525398366     0.00000268811097     0.00000684735267     0.00000093840275     0.00000021505152
   11     0.00006215778679     0.00001256143827     0.00001013668245     0.00000107737402     0.00000079489669
   12     0.00009873352393     0.00001958867007     0.00005097695715     0.00000338330447     0.00000185604167
   13     0.00031389791022     0.00005657465538     0.00001696614537     0.00000221330197     0.00000179786508
   14     0.00278770917699     0.00035895358479     0.00012049402220     0.00001296655165     0.00002405886632
   15     0.00579673041401     0.00033636297909     0.00034411931648     0.00003482670923     0.00014433441905
   16     0.00283445665106     0.00035882751569     0.00015491555443     0.00002163674215     0.00002572570774
   17     0.03178695216168     0.00336636884690     0.00118583716225     0.00015617030987     0.00024686438390
   18     0.08650617206217     0.01442575646927     0.00391136996386     0.00041774303557     0.00045192406976
   19     0.02248812148874     0.00207636966705     0.00125773937441     0.00014854609081     0.00021602982331
   20     1.31572543690461     0.10396175822809     0.04140689317287     0.00356259157343     0.00334748275428
   21     0.00000000000000     0.97234435262119     0.10528689600954     0.01451844978329     0.01108591475666
   22     0.97234435262119     0.00000000000000     1.40148155001638     0.12771012328646     0.12413537517633
   23     0.10528689600954     1.40148155001638     0.00000000000000     1.46070376368056     0.12609135287776
   24     0.01451844978329     0.12771012328646     1.46070376368056     0.00000000000000     1.40155027881033
   25     0.01108591475666     0.12413537517633     0.12609135287776     1.40155027881033     0.00000000000000
   26     0.01473657189161     0.12715463998625     0.12968687527635     0.12532766921992     1.39771301564436
   27     0.11120896379545     1.38630132918225     0.12366798661044     0.13130139396572     0.12713974763736
   28     0.00073328807136     0.00916306573222     0.01457968443007     0.10806428286060     1.01723157014359
   29     0.00038768155943     0.00438596188300     0.00205967367297     0.02222994461433     0.08689032032177
   30     0.00008132779928     0.00090029478653     0.00173650137742     0.01458595010802     0.01882349195331
   31     0.00006371882093     0.00101027435911     0.00752579559287     0.02290224711822     0.01460258514639
   32     0.00006772838637     0.00070095072269     0.00094807141173     0.00283994257947     0.00384393473234
   33     0.00000879709451     0.00011659074434     0.00022788587994     0.00069137885031     0.00103973956313
   34     0.00013792416722     0.00279630819386     0.00277899160811     0.00860186529957     0.02246278017430
   35     0.00011311345430     0.00114879262303     0.00113493511808     0.00539186942106     0.02273012898186
   36     2.17598839286790     0.13795171768492     0.02560123703479     0.00316489258678     0.00623408531294
[...]
   15     0.00000039208258     0.00000013213369     0.00000051112234     0.00000003515033     0.00000001845982
   16     0.00000007862412     0.00000003473435     0.00000044463964     0.00000001704821     0.00000000702414
   17     0.00000056943962     0.00000016620856     0.00000270578769     0.00000008028370     0.00000002933013
   18     0.00000088111407     0.00000026592887     0.00000390486759     0.00000011927525     0.00000004316548
   19     0.00000060077613     0.00000047601724     0.00000142381081     0.00000009014044     0.00000007023765
   20     0.00000641337488     0.00000209487504     0.00002587113757     0.00000048777434     0.00000028864052
   21     0.00002438136995     0.00000465428455     0.00005573627040     0.00000200300784     0.00000059239543
   22     0.00022997760792     0.00007378374747     0.00092057165550     0.00001336998947     0.00000980811929
   23     0.00028733351367     0.00021905921865     0.00633834256626     0.00002438034390     0.00002467596435
   24     0.00074707927739     0.00072551907376     0.01848510629988     0.00008814874298     0.00007475711949
   25     0.00152305916973     0.00052267940844     0.00827725138556     0.00017810749388     0.00009116368124
   26     0.00050135732388     0.00014096324653     0.00193334827772     0.00008459198034     0.00003498769975
   27     0.00012632778659     0.00010096205574     0.00157072158154     0.00002461510607     0.00002229431945
   28     0.01259721506461     0.00100066506311     0.00500498031636     0.00070201520938     0.00012070524755
   29     0.06684416235191     0.01313396397117     0.01160430659349     0.00334483359531     0.00072094403381
   30     0.76858049579960     0.05834016864909     0.04733895152244     0.01338778230197     0.00422629105613
   31     0.05353222036190     0.81711584335465     0.83580370304976     0.01645710531495     0.02182686294975
   32     0.01451798579730     0.05118146406472     0.05978250276916     0.06764822072183     0.06283820113233
   33     0.01689930559891     0.02469955967132     0.01119308616382     0.91073274913113     0.91905267064361
   34     0.00824663366767     0.01535503647927     0.01964437340113     0.01605912758937     0.01234151393074
   35     0.02322237429539     0.00181419191814     0.00699631863649     0.01258252169831     0.00173709016420
   36     0.00001679622886     0.00000379888548     0.00002802849637     0.00000099968742     0.00000037935687
   37     0.00000002103013     0.00000001613488     0.00000007629529     0.00000000303230     0.00000000485455
   38     0.00000201487517     0.00003398427350     0.00000835269664     0.00000022333761     0.00000306935479
   39     0.00000033015663     0.00000773748878     0.00000539742791     0.00000006888122     0.00000079525241
   40     0.00000497968242     0.00001118188159     0.00001868485407     0.00000045139826     0.00000086864696
   41     0.00001600111496     0.00534623520386     0.00056198341996     0.00003479092356     0.00021592727499
   42     0.00000001143029     0.00000064956324     0.00000099683050     0.00000000430145     0.00000005075858
   43     0.00000000424026     0.00000009421568     0.00000037945829     0.00000000071126     0.00000001265842
   44     0.00000000134299     0.00000002389115     0.00000005720652     0.00000000075044     0.00000000497148
   45     0.00000000728979     0.00000000240334     0.00000006010058     0.00000000168512     0.00000000066166
   46     0.00000006011348     0.00000005099824     0.00000123523546     0.00000000733317     0.00000000452012
   47     0.00000016064168     0.00000019428531     0.00000099684942     0.00000002625994     0.00000008142656
   48     0.00000872267317     0.00000215910189     0.00002118686323     0.00000031747103     0.00000031039413
   49     0.00003638978377     0.00002040748880     0.00055066031722     0.00000205617043     0.00000193690438
   50     0.00009626945249     0.00027719113314     0.00438586434204     0.00004320563368     0.00002347656738
   51     0.00012417664802     0.00001610337572     0.00009856940690     0.00002899969757     0.00000484272006
   52     0.00001393271612     0.00000332751372     0.00004304278328     0.00000252810977     0.00000129131244
   53     0.00124107087982     0.00008599984190     0.00078482109515     0.00006522829428     0.00001877295113
   54     0.00046009198905     0.00041028137471     0.00028535853348     0.00006780199412     0.00002224342616
   55     0.02531376295850     0.00598403327487     0.00756608370193     0.00063886482482     0.00017566369309
   56     0.00000000000000     0.01070232973970     0.01638298180607     0.00879120362457     0.00174702503427
   57     0.01070232973970     0.00000000000000     0.02107800596290     0.00340589777868     0.00825053140804
   58     0.01638298180607     0.02107800596290     0.00000000000000     0.00093905091432     0.00107429006602
   59     0.00879120362457     0.00340589777868     0.00093905091432     0.00000000000000     0.03478935424675
   60     0.00174702503427     0.00825053140804     0.00107429006602     0.03478935424675     0.00000000000000
   61     0.00076143151427     0.00126387095518     0.00071589300076     0.03504592004598     0.03775852914683
   62     0.00053257867294     0.00127755774367     0.00094467771566     0.00273691785613     0.00114633460302
   63     0.00078778692626     0.00121479344578     0.00536020703579     0.00104434040799     0.00064050637518
   64     0.00609603135927     0.00039753407126     0.00102190813541     0.00795881554632     0.00062703755179
   65     0.00089840681284     0.00041857510397     0.00039935249617     0.00050934504892     0.00022493130910
   66     0.00000001745609     0.00000000611205     0.00000002226146     0.00000000180758     0.00000000058284
   67     0.00000001567059     0.00000000516509     0.00000001346059     0.00000000180487     0.00000000043135
   68     0.00000000085588     0.00000000338025     0.00000000812274     0.00000000046483     0.00000000035981

                61                  62                  63                  64                  65

    1     0.00000169529376     0.00000173611280     0.00000664069951     0.00000416496278     0.00000148596504
    2     0.00000129198275     0.00000040484451     0.00000307936159     0.00000031589887     0.00000013979518
    3     0.00000150180411     0.00000048083725     0.00000379569885     0.00000031244167     0.00000023406231
    4     0.00000212422775     0.00000319110617     0.00002879325430     0.00000160726298     0.00000124241592
    5     0.00000976834103     0.00000626676185     0.00020460132110     0.00001006718405     0.00000447525289
    6     0.00002902292456     0.00001291885011     0.00004503387007     0.00004089807725     0.00001217939503
    7     0.00000016930773     0.00000010177977     0.00000087847954     0.00000012070733     0.00000005413726
    8     0.00000016010950     0.00000005016532     0.00000066907929     0.00000004692984     0.00000003730653
    9     0.00000002248784     0.00000001451283     0.00000007669299     0.00000001620924     0.00000001709344
   10     0.00000006027402     0.00000001690349     0.00000017027023     0.00000001125707     0.00000000571890
   11     0.00000001983499     0.00000001694123     0.00000023495043     0.00000003773233     0.00000001324446
   12     0.00000009263893     0.00000009249895     0.00000196033694     0.00000002799986     0.00000003918623
   13     0.00000000416910     0.00000001009013     0.00000013046060     0.00000001190682     0.00000001667286
   14     0.00000000864547     0.00000003452624     0.00000056268271     0.00000009397488     0.00000008283833
   15     0.00000001440978     0.00000007276156     0.00000196934829     0.00000046370224     0.00000006882683
   16     0.00000001120961     0.00000003517535     0.00000076260710     0.00000017247646     0.00000010662016
   17     0.00000006146283     0.00000022610306     0.00000640960371     0.00000129917382     0.00000056117779
   18     0.00000006665762     0.00000029389877     0.00000899093447     0.00000099693242     0.00000175150800
   19     0.00000002733552     0.00000018274287     0.00000578161013     0.00000077086408     0.00000041932172
   20     0.00000025055379     0.00000170903043     0.00004498267007     0.00000767346310     0.00000847741758
   21     0.00000120110549     0.00001242281370     0.00018759109290     0.00004635953663     0.00002301711885
   22     0.00001353112135     0.00013852814617     0.00350450556738     0.00032911532840     0.00022232615326
   23     0.00002304645377     0.00014413081692     0.00324704881395     0.00032151680383     0.00027660637788
   24     0.00004752483843     0.00034166228185     0.00700561005059     0.00066250037338     0.00068503286897
   25     0.00009659127501     0.00096584056296     0.01643865969412     0.00151118549022     0.00654075101359
   26     0.00006070646907     0.00085585366852     0.01938185792814     0.00094148331352     0.00650662720989
   27     0.00003327526421     0.00029464543629     0.00892576033127     0.00040038197266     0.00056767920314
   28     0.00011980555478     0.00119831362781     0.00701950962498     0.01197782254862     0.01985667060243
   29     0.00063091976558     0.00984895204245     0.01220650266100     0.06511580787410     0.05660908768841
   30     0.00186291527487     0.00260967140665     0.00762619756427     0.02300895391778     0.01221725994865
   31     0.01290166359189     0.01299882382178     0.01942002682344     0.00832628768998     0.00253815747619
   32     0.06322469675799     0.05988408263592     0.05933711942040     0.01406499895300     0.01040387893418
   33     0.91926253226710     0.01943626153162     0.01275029729236     0.01592940445995     0.00156773198869
   34     0.01809470322354     0.89506809512270     0.75386916487718     0.04874317727624     0.05882535568404
   35     0.00386285576259     0.06181766398345     0.04369292971592     0.77116094387053     0.88188738027681
   36     0.00000056929315     0.00000386041945     0.00010590791528     0.00001332976789     0.00000744819050
   37     0.00000000304054     0.00000000656009     0.00000018785997     0.00000003531351     0.00000001378700
   38     0.00000014930663     0.00000013065216     0.00000112167198     0.00000041867808     0.00000020944573
   39     0.00000010214285     0.00000009612552     0.00000092918842     0.00000011681744     0.00000005123701
   40     0.00000019234090     0.00000076427456     0.00000475155772     0.00000068382398     0.00000010463591
   41     0.00001260794533     0.00000781871131     0.00001826548435     0.00004253661944     0.00000898757184
   42     0.00000000633106     0.00000000256984     0.00000003880634     0.00000000489490     0.00000000286753
   43     0.00000000181459     0.00000000126891     0.00000004174770     0.00000000139628     0.00000000044650
   44     0.00000000036756     0.00000000157853     0.00000002043881     0.00000000110395     0.00000000278790
   45     0.00000000068713     0.00000000201931     0.00000009457981     0.00000000554777     0.00000001939327
   46     0.00000000952635     0.00000003814601     0.00000163341209     0.00000008756120     0.00000023325803
   47     0.00000000826448     0.00000006082116     0.00000110726929     0.00000034402984     0.00000011431273
   48     0.00000013825658     0.00000339430836     0.00001292011976     0.00000668888561     0.00000189779905
   49     0.00000106009867     0.00000772194738     0.00013241888006     0.00002163359081     0.00002507689460
   50     0.00001360590833     0.00002954169305     0.00074001549862     0.00015949270088     0.00007783764279
   51     0.00001307898854     0.00012002146985     0.00305518863022     0.00011386050558     0.00261438020386
   52     0.00000325530661     0.00002499856797     0.00070187512948     0.00004638914893     0.00003080930044
   53     0.00001878692837     0.00025349993978     0.00044307658224     0.00057338331083     0.00109288358738
   54     0.00002191555488     0.00012338727163     0.00091525831767     0.00120660620485     0.00553423163210
   55     0.00022241359642     0.00029157779663     0.00052731763292     0.00090288652309     0.00113396547705
   56     0.00076143151427     0.00053257867294     0.00078778692626     0.00609603135927     0.00089840681284
   57     0.00126387095518     0.00127755774367     0.00121479344578     0.00039753407126     0.00041857510397
   58     0.00071589300076     0.00094467771566     0.00536020703579     0.00102190813541     0.00039935249617
   59     0.03504592004598     0.00273691785613     0.00104434040799     0.00795881554632     0.00050934504892
   60     0.03775852914683     0.00114633460302     0.00064050637518     0.00062703755179     0.00022493130910
   61     0.00000000000000     0.00597541205059     0.00105306525504     0.00180002375336     0.00013217017037
   62     0.00597541205059     0.00000000000000     0.02318916709370     0.00994093996225     0.00575998337461
   63     0.00105306525504     0.02318916709370     0.00000000000000     0.02562631882625     0.00892764776294
   64     0.00180002375336     0.00994093996225     0.02562631882625     0.00000000000000     0.02244659204284
   65     0.00013217017037     0.00575998337461     0.00892764776294     0.02244659204284     0.00000000000000
   66     0.00000000046188     0.00000000395706     0.00000008102067     0.00000002861132     0.00000000280188
   67     0.00000000107416     0.00000000339493     0.00000012294365     0.00000002128227     0.00000000369639
   68     0.00000000013235     0.00000000051691     0.00000001401145     0.00000000223819     0.00000000209661

                66                  67                  68

    1     0.00000071877461     0.00000111894635     0.00000023117688
    2     0.00000180571471     0.00000262844340     0.00000085828535
    3     0.00000863986816     0.00001447851006     0.00000444601454
    4     0.00000846536211     0.00000927594133     0.00000638877833
    5     0.00000041754484     0.00000059778027     0.00000060076063
    6     0.00000041034456     0.00000088784174     0.00000024931026
    7     0.00003649282174     0.00005587147568     0.00001598192516
    8     0.00006953516639     0.00010941031318     0.00000416843496
    9     0.00003524565270     0.00007026205605     0.00000465715473
   10     0.00025768916766     0.00059262731595     0.00003824372782
   11     0.00067665090956     0.00110910094833     0.00023568545123
   12     0.00022241484404     0.00032416793584     0.00006429620058
   13     0.00861604018399     0.01138659100622     0.00205655798174
   14     0.01634941455229     0.01665447015176     0.00894028887273
   15     0.05846127446953     0.05811406304916     0.05936859453210
   16     0.01574155208325     0.01447536344247     0.02380068242316
   17     0.00129442273319     0.00125455915319     0.00189863198422
   18     0.00311282251724     0.00262777892017     0.00056803735159
   19     0.00119451329336     0.00126041073373     0.00107805933733
   20     0.00037938208451     0.00030658564626     0.00008605501206
   21     0.00022409454834     0.00019412206390     0.00003196390534
   22     0.00001222420674     0.00001373309722     0.00000716427345
   23     0.00001471419506     0.00001252093534     0.00000296081319
   24     0.00000150306957     0.00000139165052     0.00000033785820
   25     0.00000643043464     0.00000526548530     0.00000031369540
   26     0.00000116955173     0.00000118281188     0.00000029544214
   27     0.00001124531169     0.00001098275536     0.00000161929228
   28     0.00000049227779     0.00000033141486     0.00000003865134
   29     0.00000034109974     0.00000030073192     0.00000002251004
   30     0.00000004622129     0.00000005681560     0.00000000686574
   31     0.00000001626161     0.00000001745462     0.00000001540941
   32     0.00000000721320     0.00000001763797     0.00000001133222
   33     0.00000000484661     0.00000000621513     0.00000000219810
   34     0.00000003380767     0.00000003001657     0.00000000830727
   35     0.00000003115029     0.00000003743514     0.00000000652561
   36     0.00013052862967     0.00011723830060     0.00001781754892
   37     0.91940214546987     0.91823145454721     0.92020572364780
   38     0.00000007872089     0.00000011303390     0.00000004400848
   39     0.00000020713773     0.00000034365408     0.00000009282963
   40     0.00000631178369     0.00000623140005     0.00000533075445
   41     0.00000003334967     0.00000008547546     0.00000002996562
   42     0.00000291542238     0.00000488930229     0.00000039543770
   43     0.00000292794181     0.00000467336221     0.00000063152349
   44     0.00455751106243     0.00475343244640     0.00105423642002
   45     0.00131239822577     0.00118593992160     0.00763642785353
   46     0.00020269876681     0.00022545210626     0.00012763322920
   47     0.00018130845700     0.00019189323734     0.00035323984018
   48     0.00003921868213     0.00004098270399     0.00003921898944
   49     0.00000480788349     0.00000377193228     0.00000110432978
   50     0.00000006594828     0.00000010268976     0.00000005545907
   51     0.00000022550698     0.00000012276299     0.00000008130453
   52     0.00000094328645     0.00000072961472     0.00000047430325
   53     0.00000006206869     0.00000006526748     0.00000001527546
   54     0.00000006664755     0.00000006671398     0.00000001115726
   55     0.00000000378482     0.00000000768608     0.00000000140265
   56     0.00000001745609     0.00000001567059     0.00000000085588
   57     0.00000000611205     0.00000000516509     0.00000000338025
   58     0.00000002226146     0.00000001346059     0.00000000812274
   59     0.00000000180758     0.00000000180487     0.00000000046483
   60     0.00000000058284     0.00000000043135     0.00000000035981
   61     0.00000000046188     0.00000000107416     0.00000000013235
   62     0.00000000395706     0.00000000339493     0.00000000051691
   63     0.00000008102067     0.00000012294365     0.00000001401145
   64     0.00000002861132     0.00000002128227     0.00000000223819
   65     0.00000000280188     0.00000000369639     0.00000000209661
   66     0.00000000000000     0.03490161640858     0.03828121520516
   67     0.03490161640858     0.00000000000000     0.03860533431928
   68     0.03828121520516     0.03860533431928     0.00000000000000



  Atomic Valences: 

 #  #
 Irrep: 1
      1:  4.3933498
      2:  4.4249953
      3:  4.6059983
      4:  4.5762756
      5:  3.8983169
      6:  4.5607343
      7:  4.7444580
      8:  4.3719133
      9:  4.5257249
     10:  3.8709824
     11:  5.0138289
     12:  3.9642736
     13:  4.0323075
     14:  4.6679662
     15:  4.6252665
     16:  4.4389281
     17:  4.4034597
     18:  4.6656470
     19:  4.4157590
     20:  4.0756186
     21:  5.0032828
     22:  4.6210562
     23:  4.4444681
     24:  4.4764783
     25:  4.7157352
     26:  4.4723827
     27:  4.4371459
     28:  4.4949165
     29:  4.2523226
     30:  4.5610420
     31:  4.5900065
     32:  4.2167364
     33:  4.2887862
     34:  4.5520847
     35:  4.5456561
     36:  2.7667717
     37:  4.1514347
     38:  1.0985524
     39:  1.1023558
     40:  1.1093929
     41:  1.1015456
     42:  1.1092178
     43:  1.0864002
     44:  1.1763030
     45:  1.0997316
     46:  1.1080050
     47:  1.1332115
     48:  1.1822409
     49:  1.1053480
     50:  1.1076838
     51:  1.1055208
     52:  1.0975760
     53:  1.1064334
     54:  1.1077485
     55:  1.1389150
     56:  1.0424471
     57:  1.0533099
     58:  1.1028181
     59:  1.1375075
     60:  1.1101488
     61:  1.1050966
     62:  1.1180133
     63:  1.0494845
     64:  1.0416128
     65:  1.1090043
     66:  1.1057677
     67:  1.1068850
     68:  1.1045466


    Psi4 stopped on: Saturday, 07 March 2020 11:16AM
    Psi4 wall time for execution: 0:34:16.58

*** Psi4 exiting successfully. Buy a developer a beer!
