 Entering Gaussian System, Link 0=g09
 Input=MOLECULE0-opt-23-22-21-36-035.com
 Output=MOLECULE0-opt-23-22-21-36-035.log
 Initial command:
 /opt/g09gh/gaussian/g09/l1.exe /scratch/bdw2292/Gau-MOLECULE0/Gau-17315.inp -scrdir=/scratch/bdw2292/Gau-MOLECULE0/
 Entering Link 1 = /opt/g09gh/gaussian/g09/l1.exe PID=     17316.
  
 Copyright (c) 1988,1990,1992,1993,1995,1998,2003,2009, Gaussian, Inc.
                  All Rights Reserved.
  
 This is part of the Gaussian(R) 09 program.  It is based on
 the Gaussian(R) 03 system (copyright 2003, Gaussian, Inc.),
 the Gaussian(R) 98 system (copyright 1998, Gaussian, Inc.),
 the Gaussian(R) 94 system (copyright 1995, Gaussian, Inc.),
 the Gaussian 92(TM) system (copyright 1992, Gaussian, Inc.),
 the Gaussian 90(TM) system (copyright 1990, Gaussian, Inc.),
 the Gaussian 88(TM) system (copyright 1988, Gaussian, Inc.),
 the Gaussian 86(TM) system (copyright 1986, Carnegie Mellon
 University), and the Gaussian 82(TM) system (copyright 1983,
 Carnegie Mellon University). Gaussian is a federally registered
 trademark of Gaussian, Inc.
  
 This software contains proprietary and confidential information,
 including trade secrets, belonging to Gaussian, Inc.
  
 This software is provided under written license and may be
 used, copied, transmitted, or stored only in accord with that
 written license.
  
 The following legend is applicable only to US Government
 contracts under FAR:
  
                    RESTRICTED RIGHTS LEGEND
  
 Use, reproduction and disclosure by the US Government is
 subject to restrictions as set forth in subparagraphs (a)
 and (c) of the Commercial Computer Software - Restricted
 Rights clause in FAR 52.227-19.
  
 Gaussian, Inc.
 340 Quinnipiac St., Bldg. 40, Wallingford CT 06492
  
  
 ---------------------------------------------------------------
 Warning -- This program may not be used in any manner that
 competes with the business of Gaussian, Inc. or will provide
 assistance to any competitor of Gaussian, Inc.  The licensee
 of this program is prohibited from giving any competitor of
 Gaussian, Inc. access to this program.  By using this program,
 the user acknowledges that Gaussian, Inc. is engaged in the
 business of creating and licensing software in the field of
 computational chemistry and represents and warrants to the
 licensee that it is not a competitor of Gaussian, Inc. and that
 it will not use this program in any manner prohibited above.
 ---------------------------------------------------------------
  

 Cite this work as:
 Gaussian 09, Revision A.02,
 M. J. Frisch, G. W. Trucks, H. B. Schlegel, G. E. Scuseria, 
 M. A. Robb, J. R. Cheeseman, G. Scalmani, V. Barone, B. Mennucci, 
 G. A. Petersson, H. Nakatsuji, M. Caricato, X. Li, H. P. Hratchian, 
 A. F. Izmaylov, J. Bloino, G. Zheng, J. L. Sonnenberg, M. Hada, 
 M. Ehara, K. Toyota, R. Fukuda, J. Hasegawa, M. Ishida, T. Nakajima, 
 Y. Honda, O. Kitao, H. Nakai, T. Vreven, J. A. Montgomery, Jr., 
 J. E. Peralta, F. Ogliaro, M. Bearpark, J. J. Heyd, E. Brothers, 
 K. N. Kudin, V. N. Staroverov, R. Kobayashi, J. Normand, 
 K. Raghavachari, A. Rendell, J. C. Burant, S. S. Iyengar, J. Tomasi, 
 M. Cossi, N. Rega, J. M. Millam, M. Klene, J. E. Knox, J. B. Cross, 
 V. Bakken, C. Adamo, J. Jaramillo, R. Gomperts, R. E. Stratmann, 
 O. Yazyev, A. J. Austin, R. Cammi, C. Pomelli, J. W. Ochterski, 
 R. L. Martin, K. Morokuma, V. G. Zakrzewski, G. A. Voth, 
 P. Salvador, J. J. Dannenberg, S. Dapprich, A. D. Daniels, 
 O. Farkas, J. B. Foresman, J. V. Ortiz, J. Cioslowski, 
 and D. J. Fox, Gaussian, Inc., Wallingford CT, 2009.
 
 ******************************************
 Gaussian 09:  EM64L-G09RevA.02 11-Jun-2009
                 8-Apr-2020 
 ******************************************
 %RWF=/scratch/bdw2292/Gau-MOLECULE0/,100GB
 %Nosave
 %Chk=MOLECULE0-opt-23-22-21-36-035.chk
 %Mem=20GB
 %Nproc=6
 Will use up to    6 processors via shared memory.
 --------------------------------------------------
 #P opt=(,maxcycle=400) wB97XD/6-31G* MaxDisk=100GB
 --------------------------------------------------
 1/6=400,14=-1,18=20,19=15,26=3,38=1/1,3;
 2/9=110,12=2,17=6,18=5,40=1/2;
 3/5=1,6=6,7=1,11=2,16=1,25=1,30=1,71=1,74=-58/1,2,3;
 4//1;
 5/5=2,38=5/2;
 6/7=2,8=2,9=2,10=2,28=1/1;
 7//1,2,3,16;
 1/6=400,14=-1,18=20,19=15/3(2);
 2/9=110/2;
 99//99;
 2/9=110/2;
 3/5=1,6=6,7=1,11=2,16=1,25=1,30=1,71=1,74=-58/1,2,3;
 4/5=5,16=3/1;
 5/5=2,38=5/2;
 7//1,2,3,16;
 1/6=400,14=-1,18=20,19=15/3(-5);
 2/9=110/2;
 6/7=2,8=2,9=2,10=2,19=2,28=1/1;
 99/9=1/99;
 Leave Link    1 at Wed Apr  8 22:23:48 2020, MaxMem= 2684354560 cpu:       0.5
 (Enter /opt/g09gh/gaussian/g09/l101.exe)
 --------------------------------------------------------------
 MOLECULE0 Rotatable Bond Optimization on node37.bme.utexas.edu
 --------------------------------------------------------------
 Symbolic Z-matrix:
 Charge =  0 Multiplicity = 1
 C                    -5.68171  -9.00567  -0.43292 
 C                    -4.56144  -9.84541  -0.37521 
 C                    -3.2865   -9.29915  -0.12988 
 C                    -3.24355  -7.89792   0.07443 
 N                    -4.30252  -7.0795    0.0272 
 C                    -5.49766  -7.63307  -0.23032 
 C                    -2.0211   -10.11678  -0.06621 
 C                    -1.95981  -11.52006  -0.09098 
 C                    -0.67936  -12.07679   0.01155 
 N                     0.44172  -11.36632   0.1155 
 C                     0.29076  -10.02625   0.11316 
 N                    -0.88459  -9.40187   0.0265 
 N                     1.4632   -9.29815   0.20756 
 C                     1.75237  -7.88887   0.30823 
 C                     3.04257  -7.47047   0.75588 
 C                     3.27079  -6.08872   0.86321 
 C                     2.31662  -5.11295   0.55461 
 C                     1.06707  -5.531     0.08422 
 C                     0.8109   -6.90719  -0.03103 
 N                    -0.01417  -4.66312  -0.28155 
 C                    -0.17623  -3.30408  -0.13537 
 C                    -1.5596   -2.73402  -0.38401 
 C                    -1.64622  -1.46955  -0.98978 
 C                    -2.89088  -0.90644  -1.28001 
 C                    -4.09042  -1.57342  -0.96667 
 C                    -3.98866  -2.8364   -0.35223 
 C                    -2.74852  -3.40831  -0.0578 
 C                    -5.45142  -0.92917  -1.23568 
 N                    -6.024     0.01736  -0.26468 
 C                    -5.47411   1.38907  -0.17465 
 C                    -4.38288   1.57733   0.91125 
 N                    -4.79356   1.12048   2.26092 
 C                    -5.60343   2.05372   3.05311 
 C                    -5.29155  -0.27365   2.16231 
 C                    -6.38578  -0.479     1.08254 
 O                     0.74655  -2.56231   0.16348 
 C                     4.14968  -8.43901   1.13719 
 H                    -6.67252  -9.40316  -0.63263 
 H                    -4.70128  -10.91056  -0.543 
 H                    -2.30458  -7.40764   0.31136 
 H                    -6.33633  -6.93953  -0.26522 
 H                    -2.82241  -12.1716  -0.15976 
 H                    -0.52054  -13.15483   0.01497 
 H                     2.24043  -9.93391   0.30429 
 H                     4.24012  -5.7366    1.21362 
 H                     2.5304   -4.05718   0.66505 
 H                    -0.14509  -7.2332   -0.40638 
 H                    -0.82399  -5.14178  -0.65033 
 H                    -0.72822  -0.93909  -1.23019 
 H                    -2.92564   0.07571  -1.75062 
 H                    -4.89067  -3.38692  -0.08582 
 H                    -2.70194  -4.38409   0.42061 
 H                    -5.39634  -0.40905  -2.20225 
 H                    -6.19168  -1.73162  -1.36403 
 H                    -5.09004   1.74887  -1.22713 
 H                    -6.61299   2.28734   0.18386 
 H                    -4.03526   2.87453   0.98133 
 H                    -3.32599   0.92074   0.59544 
 H                    -6.58254   2.21583   2.58835 
 H                    -5.09019   3.01818   3.14224 
 H                    -5.75324   1.65952   4.06498 
 H                    -5.68246  -0.63275   3.24125 
 H                    -4.13688  -1.10668   1.82472 
 H                    -7.57543   0.26002   1.50945 
 H                    -6.71151  -1.65874   1.02534 
 H                     4.45838  -9.08027   0.29944 
 H                     3.83208  -9.09895   1.94926 
 H                     5.05356  -7.93151   1.48392 
 
 NAtoms=     68 NQM=     68 NQMF=      0 NMic=      0 NMicF=      0 NTot=     68.
                    Isotopes and Nuclear Properties:
 (Nuclear quadrupole moments (NQMom) in fm**2, nuclear magnetic moments (NMagM)
  in nuclear magnetons)

  Atom         1           2           3           4           5           6           7           8           9          10
 IAtWgt=          12          12          12          12          14          12          12          12          12          14
 AtmWgt=  12.0000000  12.0000000  12.0000000  12.0000000  14.0030740  12.0000000  12.0000000  12.0000000  12.0000000  14.0030740
 NucSpn=           0           0           0           0           2           0           0           0           0           2
 AtZEff=   0.0000000   0.0000000   0.0000000   0.0000000   0.0000000   0.0000000   0.0000000   0.0000000   0.0000000   0.0000000
 NQMom=    0.0000000   0.0000000   0.0000000   0.0000000   2.0440000   0.0000000   0.0000000   0.0000000   0.0000000   2.0440000
 NMagM=    0.0000000   0.0000000   0.0000000   0.0000000   0.4037610   0.0000000   0.0000000   0.0000000   0.0000000   0.4037610

  Atom        11          12          13          14          15          16          17          18          19          20
 IAtWgt=          12          14          14          12          12          12          12          12          12          14
 AtmWgt=  12.0000000  14.0030740  14.0030740  12.0000000  12.0000000  12.0000000  12.0000000  12.0000000  12.0000000  14.0030740
 NucSpn=           0           2           2           0           0           0           0           0           0           2
 AtZEff=   0.0000000   0.0000000   0.0000000   0.0000000   0.0000000   0.0000000   0.0000000   0.0000000   0.0000000   0.0000000
 NQMom=    0.0000000   2.0440000   2.0440000   0.0000000   0.0000000   0.0000000   0.0000000   0.0000000   0.0000000   2.0440000
 NMagM=    0.0000000   0.4037610   0.4037610   0.0000000   0.0000000   0.0000000   0.0000000   0.0000000   0.0000000   0.4037610

  Atom        21          22          23          24          25          26          27          28          29          30
 IAtWgt=          12          12          12          12          12          12          12          12          14          12
 AtmWgt=  12.0000000  12.0000000  12.0000000  12.0000000  12.0000000  12.0000000  12.0000000  12.0000000  14.0030740  12.0000000
 NucSpn=           0           0           0           0           0           0           0           0           2           0
 AtZEff=   0.0000000   0.0000000   0.0000000   0.0000000   0.0000000   0.0000000   0.0000000   0.0000000   0.0000000   0.0000000
 NQMom=    0.0000000   0.0000000   0.0000000   0.0000000   0.0000000   0.0000000   0.0000000   0.0000000   2.0440000   0.0000000
 NMagM=    0.0000000   0.0000000   0.0000000   0.0000000   0.0000000   0.0000000   0.0000000   0.0000000   0.4037610   0.0000000

  Atom        31          32          33          34          35          36          37          38          39          40
 IAtWgt=          12          14          12          12          12          16          12           1           1           1
 AtmWgt=  12.0000000  14.0030740  12.0000000  12.0000000  12.0000000  15.9949146  12.0000000   1.0078250   1.0078250   1.0078250
 NucSpn=           0           2           0           0           0           0           0           1           1           1
 AtZEff=   0.0000000   0.0000000   0.0000000   0.0000000   0.0000000   0.0000000   0.0000000   0.0000000   0.0000000   0.0000000
 NQMom=    0.0000000   2.0440000   0.0000000   0.0000000   0.0000000   0.0000000   0.0000000   0.0000000   0.0000000   0.0000000
 NMagM=    0.0000000   0.4037610   0.0000000   0.0000000   0.0000000   0.0000000   0.0000000   2.7928460   2.7928460   2.7928460

  Atom        41          42          43          44          45          46          47          48          49          50
 IAtWgt=           1           1           1           1           1           1           1           1           1           1
 AtmWgt=   1.0078250   1.0078250   1.0078250   1.0078250   1.0078250   1.0078250   1.0078250   1.0078250   1.0078250   1.0078250
 NucSpn=           1           1           1           1           1           1           1           1           1           1
 AtZEff=   0.0000000   0.0000000   0.0000000   0.0000000   0.0000000   0.0000000   0.0000000   0.0000000   0.0000000   0.0000000
 NQMom=    0.0000000   0.0000000   0.0000000   0.0000000   0.0000000   0.0000000   0.0000000   0.0000000   0.0000000   0.0000000
 NMagM=    2.7928460   2.7928460   2.7928460   2.7928460   2.7928460   2.7928460   2.7928460   2.7928460   2.7928460   2.7928460

  Atom        51          52          53          54          55          56          57          58          59          60
 IAtWgt=           1           1           1           1           1           1           1           1           1           1
 AtmWgt=   1.0078250   1.0078250   1.0078250   1.0078250   1.0078250   1.0078250   1.0078250   1.0078250   1.0078250   1.0078250
 NucSpn=           1           1           1           1           1           1           1           1           1           1
 AtZEff=   0.0000000   0.0000000   0.0000000   0.0000000   0.0000000   0.0000000   0.0000000   0.0000000   0.0000000   0.0000000
 NQMom=    0.0000000   0.0000000   0.0000000   0.0000000   0.0000000   0.0000000   0.0000000   0.0000000   0.0000000   0.0000000
 NMagM=    2.7928460   2.7928460   2.7928460   2.7928460   2.7928460   2.7928460   2.7928460   2.7928460   2.7928460   2.7928460

  Atom        61          62          63          64          65          66          67          68
 IAtWgt=           1           1           1           1           1           1           1           1
 AtmWgt=   1.0078250   1.0078250   1.0078250   1.0078250   1.0078250   1.0078250   1.0078250   1.0078250
 NucSpn=           1           1           1           1           1           1           1           1
 AtZEff=   0.0000000   0.0000000   0.0000000   0.0000000   0.0000000   0.0000000   0.0000000   0.0000000
 NQMom=    0.0000000   0.0000000   0.0000000   0.0000000   0.0000000   0.0000000   0.0000000   0.0000000
 NMagM=    2.7928460   2.7928460   2.7928460   2.7928460   2.7928460   2.7928460   2.7928460   2.7928460
 Leave Link  101 at Wed Apr  8 22:23:48 2020, MaxMem= 2684354560 cpu:       0.2
 (Enter /opt/g09gh/gaussian/g09/l103.exe)

 GradGradGradGradGradGradGradGradGradGradGradGradGradGradGradGradGradGrad
 Berny optimization.
 Initialization pass.
                           ----------------------------
                           !    Initial Parameters    !
                           ! (Angstroms and Degrees)  !
 --------------------------                            --------------------------
 ! Name  Definition              Value          Derivative Info.                !
 --------------------------------------------------------------------------------
 ! R1    R(1,2)                  1.4013         estimate D2E/DX2                !
 ! R2    R(1,6)                  1.3996         estimate D2E/DX2                !
 ! R3    R(1,38)                 1.0861         estimate D2E/DX2                !
 ! R4    R(2,3)                  1.4086         estimate D2E/DX2                !
 ! R5    R(2,39)                 1.0873         estimate D2E/DX2                !
 ! R6    R(3,4)                  1.4167         estimate D2E/DX2                !
 ! R7    R(3,7)                  1.5079         estimate D2E/DX2                !
 ! R8    R(4,5)                  1.3392         estimate D2E/DX2                !
 ! R9    R(4,40)                 1.0854         estimate D2E/DX2                !
 ! R10   R(5,6)                  1.3421         estimate D2E/DX2                !
 ! R11   R(6,41)                 1.0888         estimate D2E/DX2                !
 ! R12   R(7,8)                  1.4048         estimate D2E/DX2                !
 ! R13   R(7,12)                 1.3459         estimate D2E/DX2                !
 ! R14   R(8,9)                  1.4            estimate D2E/DX2                !
 ! R15   R(8,42)                 1.0832         estimate D2E/DX2                !
 ! R16   R(9,10)                 1.3313         estimate D2E/DX2                !
 ! R17   R(9,43)                 1.0897         estimate D2E/DX2                !
 ! R18   R(10,11)                1.3485         estimate D2E/DX2                !
 ! R19   R(11,12)                1.3337         estimate D2E/DX2                !
 ! R20   R(11,13)                1.3833         estimate D2E/DX2                !
 ! R21   R(13,14)                1.4422         estimate D2E/DX2                !
 ! R22   R(13,44)                1.0088         estimate D2E/DX2                !
 ! R23   R(14,15)                1.4283         estimate D2E/DX2                !
 ! R24   R(14,19)                1.4018         estimate D2E/DX2                !
 ! R25   R(15,16)                1.4046         estimate D2E/DX2                !
 ! R26   R(15,37)                1.5196         estimate D2E/DX2                !
 ! R27   R(16,17)                1.3992         estimate D2E/DX2                !
 ! R28   R(16,45)                1.0892         estimate D2E/DX2                !
 ! R29   R(17,18)                1.3991         estimate D2E/DX2                !
 ! R30   R(17,46)                1.0828         estimate D2E/DX2                !
 ! R31   R(18,19)                1.4046         estimate D2E/DX2                !
 ! R32   R(18,20)                1.4339         estimate D2E/DX2                !
 ! R33   R(19,47)                1.0775         estimate D2E/DX2                !
 ! R34   R(20,21)                1.3765         estimate D2E/DX2                !
 ! R35   R(20,48)                1.0104         estimate D2E/DX2                !
 ! R36   R(21,22)                1.5167         estimate D2E/DX2                !
 ! R37   R(21,36)                1.2211         estimate D2E/DX2                !
 ! R38   R(22,23)                1.4048         estimate D2E/DX2                !
 ! R39   R(22,27)                1.4052         estimate D2E/DX2                !
 ! R40   R(23,24)                1.3966         estimate D2E/DX2                !
 ! R41   R(23,49)                1.0872         estimate D2E/DX2                !
 ! R42   R(24,25)                1.4078         estimate D2E/DX2                !
 ! R43   R(24,50)                1.0896         estimate D2E/DX2                !
 ! R44   R(25,26)                1.4082         estimate D2E/DX2                !
 ! R45   R(25,28)                1.5296         estimate D2E/DX2                !
 ! R46   R(26,27)                1.397          estimate D2E/DX2                !
 ! R47   R(26,51)                1.0898         estimate D2E/DX2                !
 ! R48   R(27,52)                1.0877         estimate D2E/DX2                !
 ! R49   R(28,29)                1.4719         estimate D2E/DX2                !
 ! R50   R(28,53)                1.099          estimate D2E/DX2                !
 ! R51   R(28,54)                1.0993         estimate D2E/DX2                !
 ! R52   R(29,30)                1.4806         estimate D2E/DX2                !
 ! R53   R(29,35)                1.4806         estimate D2E/DX2                !
 ! R54   R(30,31)                1.5509         estimate D2E/DX2                !
 ! R55   R(30,55)                1.1767         estimate D2E/DX2                !
 ! R56   R(30,56)                1.4941         estimate D2E/DX2                !
 ! R57   R(31,32)                1.4829         estimate D2E/DX2                !
 ! R58   R(31,57)                1.3448         estimate D2E/DX2                !
 ! R59   R(31,58)                1.2837         estimate D2E/DX2                !
 ! R60   R(32,33)                1.4678         estimate D2E/DX2                !
 ! R61   R(32,34)                1.4837         estimate D2E/DX2                !
 ! R62   R(33,59)                1.0959         estimate D2E/DX2                !
 ! R63   R(33,60)                1.0962         estimate D2E/DX2                !
 ! R64   R(33,61)                1.0962         estimate D2E/DX2                !
 ! R65   R(34,35)                1.5509         estimate D2E/DX2                !
 ! R66   R(34,62)                1.2024         estimate D2E/DX2                !
 ! R67   R(34,63)                1.4633         estimate D2E/DX2                !
 ! R68   R(35,64)                1.4641         estimate D2E/DX2                !
 ! R69   R(35,65)                1.2252         estimate D2E/DX2                !
 ! R70   R(37,66)                1.0992         estimate D2E/DX2                !
 ! R71   R(37,67)                1.0935         estimate D2E/DX2                !
 ! R72   R(37,68)                1.0931         estimate D2E/DX2                !
 ! A1    A(2,1,6)              118.4645         estimate D2E/DX2                !
 ! A2    A(2,1,38)             121.1706         estimate D2E/DX2                !
 ! A3    A(6,1,38)             120.3647         estimate D2E/DX2                !
 ! A4    A(1,2,3)              119.8943         estimate D2E/DX2                !
 ! A5    A(1,2,39)             118.5474         estimate D2E/DX2                !
 ! A6    A(3,2,39)             121.5467         estimate D2E/DX2                !
 ! A7    A(2,3,4)              115.8576         estimate D2E/DX2                !
 ! A8    A(2,3,7)              123.8234         estimate D2E/DX2                !
 ! A9    A(4,3,7)              120.3165         estimate D2E/DX2                !
 ! A10   A(3,4,5)              125.1273         estimate D2E/DX2                !
 ! A11   A(3,4,40)             120.2953         estimate D2E/DX2                !
 ! A12   A(5,4,40)             114.5641         estimate D2E/DX2                !
 ! A13   A(4,5,6)              117.3145         estimate D2E/DX2                !
 ! A14   A(1,6,5)              123.3255         estimate D2E/DX2                !
 ! A15   A(1,6,41)             121.2471         estimate D2E/DX2                !
 ! A16   A(5,6,41)             115.4254         estimate D2E/DX2                !
 ! A17   A(3,7,8)              125.2742         estimate D2E/DX2                !
 ! A18   A(3,7,12)             115.0571         estimate D2E/DX2                !
 ! A19   A(8,7,12)             119.6681         estimate D2E/DX2                !
 ! A20   A(7,8,9)              115.8382         estimate D2E/DX2                !
 ! A21   A(7,8,42)             124.5559         estimate D2E/DX2                !
 ! A22   A(9,8,42)             119.5906         estimate D2E/DX2                !
 ! A23   A(8,9,10)             124.3103         estimate D2E/DX2                !
 ! A24   A(8,9,43)             121.7991         estimate D2E/DX2                !
 ! A25   A(10,9,43)            113.8905         estimate D2E/DX2                !
 ! A26   A(9,10,11)            115.8433         estimate D2E/DX2                !
 ! A27   A(10,11,12)           124.3306         estimate D2E/DX2                !
 ! A28   A(10,11,13)           115.3426         estimate D2E/DX2                !
 ! A29   A(12,11,13)           120.3267         estimate D2E/DX2                !
 ! A30   A(7,12,11)            119.9984         estimate D2E/DX2                !
 ! A31   A(11,13,14)           133.5539         estimate D2E/DX2                !
 ! A32   A(11,13,44)           109.1375         estimate D2E/DX2                !
 ! A33   A(14,13,44)           117.044          estimate D2E/DX2                !
 ! A34   A(13,14,15)           119.2916         estimate D2E/DX2                !
 ! A35   A(13,14,19)           122.1922         estimate D2E/DX2                !
 ! A36   A(15,14,19)           118.5136         estimate D2E/DX2                !
 ! A37   A(14,15,16)           117.3155         estimate D2E/DX2                !
 ! A38   A(14,15,37)           123.3703         estimate D2E/DX2                !
 ! A39   A(16,15,37)           119.3052         estimate D2E/DX2                !
 ! A40   A(15,16,17)           123.9442         estimate D2E/DX2                !
 ! A41   A(15,16,45)           119.1572         estimate D2E/DX2                !
 ! A42   A(17,16,45)           116.8967         estimate D2E/DX2                !
 ! A43   A(16,17,18)           118.3481         estimate D2E/DX2                !
 ! A44   A(16,17,46)           121.5211         estimate D2E/DX2                !
 ! A45   A(18,17,46)           120.1289         estimate D2E/DX2                !
 ! A46   A(17,18,19)           118.8975         estimate D2E/DX2                !
 ! A47   A(17,18,20)           125.3368         estimate D2E/DX2                !
 ! A48   A(19,18,20)           115.7578         estimate D2E/DX2                !
 ! A49   A(14,19,18)           122.9421         estimate D2E/DX2                !
 ! A50   A(14,19,47)           117.922          estimate D2E/DX2                !
 ! A51   A(18,19,47)           119.1323         estimate D2E/DX2                !
 ! A52   A(18,20,21)           131.2452         estimate D2E/DX2                !
 ! A53   A(18,20,48)           114.2514         estimate D2E/DX2                !
 ! A54   A(21,20,48)           114.3388         estimate D2E/DX2                !
 ! A55   A(20,21,22)           117.4556         estimate D2E/DX2                !
 ! A56   A(20,21,36)           122.4666         estimate D2E/DX2                !
 ! A57   A(22,21,36)           120.0697         estimate D2E/DX2                !
 ! A58   A(21,22,23)           117.7257         estimate D2E/DX2                !
 ! A59   A(21,22,27)           123.5924         estimate D2E/DX2                !
 ! A60   A(23,22,27)           118.6767         estimate D2E/DX2                !
 ! A61   A(22,23,24)           120.4975         estimate D2E/DX2                !
 ! A62   A(22,23,49)           118.8492         estimate D2E/DX2                !
 ! A63   A(24,23,49)           120.6532         estimate D2E/DX2                !
 ! A64   A(23,24,25)           121.4718         estimate D2E/DX2                !
 ! A65   A(23,24,50)           118.7905         estimate D2E/DX2                !
 ! A66   A(25,24,50)           119.735          estimate D2E/DX2                !
 ! A67   A(24,25,26)           117.4169         estimate D2E/DX2                !
 ! A68   A(24,25,28)           121.295          estimate D2E/DX2                !
 ! A69   A(26,25,28)           121.2503         estimate D2E/DX2                !
 ! A70   A(25,26,27)           121.5512         estimate D2E/DX2                !
 ! A71   A(25,26,51)           119.9949         estimate D2E/DX2                !
 ! A72   A(27,26,51)           118.4511         estimate D2E/DX2                !
 ! A73   A(22,27,26)           120.3777         estimate D2E/DX2                !
 ! A74   A(22,27,52)           119.757          estimate D2E/DX2                !
 ! A75   A(26,27,52)           119.864          estimate D2E/DX2                !
 ! A76   A(25,28,29)           120.0619         estimate D2E/DX2                !
 ! A77   A(25,28,53)           108.0237         estimate D2E/DX2                !
 ! A78   A(25,28,54)           108.1954         estimate D2E/DX2                !
 ! A79   A(29,28,53)           107.1783         estimate D2E/DX2                !
 ! A80   A(29,28,54)           106.5282         estimate D2E/DX2                !
 ! A81   A(53,28,54)           106.0535         estimate D2E/DX2                !
 ! A82   A(28,29,30)           119.4332         estimate D2E/DX2                !
 ! A83   A(28,29,35)           118.6668         estimate D2E/DX2                !
 ! A84   A(30,29,35)           110.2433         estimate D2E/DX2                !
 ! A85   A(29,30,31)           114.6044         estimate D2E/DX2                !
 ! A86   A(29,30,55)           110.4944         estimate D2E/DX2                !
 ! A87   A(29,30,56)           106.7677         estimate D2E/DX2                !
 ! A88   A(31,30,55)           111.0678         estimate D2E/DX2                !
 ! A89   A(31,30,56)           107.1769         estimate D2E/DX2                !
 ! A90   A(55,30,56)           106.2347         estimate D2E/DX2                !
 ! A91   A(30,31,32)           113.8914         estimate D2E/DX2                !
 ! A92   A(30,31,57)           109.6002         estimate D2E/DX2                !
 ! A93   A(30,31,58)           110.1785         estimate D2E/DX2                !
 ! A94   A(32,31,57)           108.7436         estimate D2E/DX2                !
 ! A95   A(32,31,58)           107.1181         estimate D2E/DX2                !
 ! A96   A(57,31,58)           107.0604         estimate D2E/DX2                !
 ! A97   A(31,32,33)           116.625          estimate D2E/DX2                !
 ! A98   A(31,32,34)           108.7811         estimate D2E/DX2                !
 ! A99   A(33,32,34)           116.6226         estimate D2E/DX2                !
 ! A100  A(32,33,59)           110.9857         estimate D2E/DX2                !
 ! A101  A(32,33,60)           110.1803         estimate D2E/DX2                !
 ! A102  A(32,33,61)           110.1792         estimate D2E/DX2                !
 ! A103  A(59,33,60)           108.8239         estimate D2E/DX2                !
 ! A104  A(59,33,61)           108.8172         estimate D2E/DX2                !
 ! A105  A(60,33,61)           107.7776         estimate D2E/DX2                !
 ! A106  A(32,34,35)           114.0472         estimate D2E/DX2                !
 ! A107  A(32,34,62)           109.2751         estimate D2E/DX2                !
 ! A108  A(32,34,63)           106.583          estimate D2E/DX2                !
 ! A109  A(35,34,62)           110.8422         estimate D2E/DX2                !
 ! A110  A(35,34,63)           108.707          estimate D2E/DX2                !
 ! A111  A(62,34,63)           107.0693         estimate D2E/DX2                !
 ! A112  A(29,35,34)           114.6267         estimate D2E/DX2                !
 ! A113  A(29,35,64)           107.1359         estimate D2E/DX2                !
 ! A114  A(29,35,65)           110.1983         estimate D2E/DX2                !
 ! A115  A(34,35,64)           107.6638         estimate D2E/DX2                !
 ! A116  A(34,35,65)           110.3379         estimate D2E/DX2                !
 ! A117  A(64,35,65)           106.4756         estimate D2E/DX2                !
 ! A118  A(15,37,66)           112.6552         estimate D2E/DX2                !
 ! A119  A(15,37,67)           111.0627         estimate D2E/DX2                !
 ! A120  A(15,37,68)           112.7139         estimate D2E/DX2                !
 ! A121  A(66,37,67)           107.1852         estimate D2E/DX2                !
 ! A122  A(66,37,68)           106.2827         estimate D2E/DX2                !
 ! A123  A(67,37,68)           106.5467         estimate D2E/DX2                !
 ! D1    D(6,1,2,3)             -0.5693         estimate D2E/DX2                !
 ! D2    D(6,1,2,39)          -179.3511         estimate D2E/DX2                !
 ! D3    D(38,1,2,3)           179.2546         estimate D2E/DX2                !
 ! D4    D(38,1,2,39)            0.4728         estimate D2E/DX2                !
 ! D5    D(2,1,6,5)             -0.5346         estimate D2E/DX2                !
 ! D6    D(2,1,6,41)          -179.9991         estimate D2E/DX2                !
 ! D7    D(38,1,6,5)           179.6401         estimate D2E/DX2                !
 ! D8    D(38,1,6,41)            0.1755         estimate D2E/DX2                !
 ! D9    D(1,2,3,4)              1.3546         estimate D2E/DX2                !
 ! D10   D(1,2,3,7)           -179.2279         estimate D2E/DX2                !
 ! D11   D(39,2,3,4)          -179.9011         estimate D2E/DX2                !
 ! D12   D(39,2,3,7)            -0.4836         estimate D2E/DX2                !
 ! D13   D(2,3,4,5)             -1.2236         estimate D2E/DX2                !
 ! D14   D(2,3,4,40)           177.3716         estimate D2E/DX2                !
 ! D15   D(7,3,4,5)            179.337          estimate D2E/DX2                !
 ! D16   D(7,3,4,40)            -2.0678         estimate D2E/DX2                !
 ! D17   D(2,3,7,8)             -7.5048         estimate D2E/DX2                !
 ! D18   D(2,3,7,12)           172.7722         estimate D2E/DX2                !
 ! D19   D(4,3,7,8)            171.8879         estimate D2E/DX2                !
 ! D20   D(4,3,7,12)            -7.835          estimate D2E/DX2                !
 ! D21   D(3,4,5,6)              0.1985         estimate D2E/DX2                !
 ! D22   D(40,4,5,6)          -178.4678         estimate D2E/DX2                !
 ! D23   D(4,5,6,1)              0.7215         estimate D2E/DX2                !
 ! D24   D(4,5,6,41)          -179.7853         estimate D2E/DX2                !
 ! D25   D(3,7,8,9)           -178.5219         estimate D2E/DX2                !
 ! D26   D(3,7,8,42)             0.0428         estimate D2E/DX2                !
 ! D27   D(12,7,8,9)             1.1893         estimate D2E/DX2                !
 ! D28   D(12,7,8,42)          179.754          estimate D2E/DX2                !
 ! D29   D(3,7,12,11)          178.8026         estimate D2E/DX2                !
 ! D30   D(8,7,12,11)           -0.9371         estimate D2E/DX2                !
 ! D31   D(7,8,9,10)            -0.6053         estimate D2E/DX2                !
 ! D32   D(7,8,9,43)           179.2327         estimate D2E/DX2                !
 ! D33   D(42,8,9,10)         -179.2459         estimate D2E/DX2                !
 ! D34   D(42,8,9,43)            0.592          estimate D2E/DX2                !
 ! D35   D(8,9,10,11)           -0.2503         estimate D2E/DX2                !
 ! D36   D(43,9,10,11)         179.9003         estimate D2E/DX2                !
 ! D37   D(9,10,11,12)           0.5807         estimate D2E/DX2                !
 ! D38   D(9,10,11,13)        -179.3528         estimate D2E/DX2                !
 ! D39   D(10,11,12,7)           0.0136         estimate D2E/DX2                !
 ! D40   D(13,11,12,7)         179.9439         estimate D2E/DX2                !
 ! D41   D(10,11,13,14)       -176.2275         estimate D2E/DX2                !
 ! D42   D(10,11,13,44)         -2.5064         estimate D2E/DX2                !
 ! D43   D(12,11,13,14)          3.8362         estimate D2E/DX2                !
 ! D44   D(12,11,13,44)        177.5573         estimate D2E/DX2                !
 ! D45   D(11,13,14,15)        162.8742         estimate D2E/DX2                !
 ! D46   D(11,13,14,19)        -17.7161         estimate D2E/DX2                !
 ! D47   D(44,13,14,15)        -10.464          estimate D2E/DX2                !
 ! D48   D(44,13,14,19)        168.9457         estimate D2E/DX2                !
 ! D49   D(13,14,15,16)       -178.7936         estimate D2E/DX2                !
 ! D50   D(13,14,15,37)          0.1056         estimate D2E/DX2                !
 ! D51   D(19,14,15,16)          1.7749         estimate D2E/DX2                !
 ! D52   D(19,14,15,37)       -179.3259         estimate D2E/DX2                !
 ! D53   D(13,14,19,18)        178.795          estimate D2E/DX2                !
 ! D54   D(13,14,19,47)         -1.9034         estimate D2E/DX2                !
 ! D55   D(15,14,19,18)         -1.7909         estimate D2E/DX2                !
 ! D56   D(15,14,19,47)        177.5106         estimate D2E/DX2                !
 ! D57   D(14,15,16,17)         -0.2431         estimate D2E/DX2                !
 ! D58   D(14,15,16,45)        179.2432         estimate D2E/DX2                !
 ! D59   D(37,15,16,17)       -179.1889         estimate D2E/DX2                !
 ! D60   D(37,15,16,45)          0.2974         estimate D2E/DX2                !
 ! D61   D(14,15,37,66)         61.4837         estimate D2E/DX2                !
 ! D62   D(14,15,37,67)        -58.7703         estimate D2E/DX2                !
 ! D63   D(14,15,37,68)       -178.246          estimate D2E/DX2                !
 ! D64   D(16,15,37,66)       -119.6379         estimate D2E/DX2                !
 ! D65   D(16,15,37,67)        120.1081         estimate D2E/DX2                !
 ! D66   D(16,15,37,68)          0.6324         estimate D2E/DX2                !
 ! D67   D(15,16,17,18)         -1.3663         estimate D2E/DX2                !
 ! D68   D(15,16,17,46)        179.1285         estimate D2E/DX2                !
 ! D69   D(45,16,17,18)        179.1367         estimate D2E/DX2                !
 ! D70   D(45,16,17,46)         -0.3685         estimate D2E/DX2                !
 ! D71   D(16,17,18,19)          1.3831         estimate D2E/DX2                !
 ! D72   D(16,17,18,20)       -179.6881         estimate D2E/DX2                !
 ! D73   D(46,17,18,19)       -179.1045         estimate D2E/DX2                !
 ! D74   D(46,17,18,20)         -0.1757         estimate D2E/DX2                !
 ! D75   D(17,18,19,14)          0.1712         estimate D2E/DX2                !
 ! D76   D(17,18,19,47)       -179.1223         estimate D2E/DX2                !
 ! D77   D(20,18,19,14)       -178.8585         estimate D2E/DX2                !
 ! D78   D(20,18,19,47)          1.848          estimate D2E/DX2                !
 ! D79   D(17,18,20,21)         -8.3333         estimate D2E/DX2                !
 ! D80   D(17,18,20,48)        176.6728         estimate D2E/DX2                !
 ! D81   D(19,18,20,21)        170.6254         estimate D2E/DX2                !
 ! D82   D(19,18,20,48)         -4.3685         estimate D2E/DX2                !
 ! D83   D(18,20,21,22)       -168.1869         estimate D2E/DX2                !
 ! D84   D(18,20,21,36)         12.8441         estimate D2E/DX2                !
 ! D85   D(48,20,21,22)          6.8036         estimate D2E/DX2                !
 ! D86   D(48,20,21,36)       -172.1654         estimate D2E/DX2                !
 ! D87   D(20,21,22,23)       -144.0293         estimate D2E/DX2                !
 ! D88   D(20,21,22,27)         35.1193         estimate D2E/DX2                !
 ! D89   D(36,21,22,23)         34.9656         estimate D2E/DX2                !
 ! D90   D(36,21,22,27)       -145.8858         estimate D2E/DX2                !
 ! D91   D(21,22,23,24)        178.1797         estimate D2E/DX2                !
 ! D92   D(21,22,23,49)         -1.6858         estimate D2E/DX2                !
 ! D93   D(27,22,23,24)         -1.012          estimate D2E/DX2                !
 ! D94   D(27,22,23,49)        179.1226         estimate D2E/DX2                !
 ! D95   D(21,22,27,26)       -178.1323         estimate D2E/DX2                !
 ! D96   D(21,22,27,52)          1.4555         estimate D2E/DX2                !
 ! D97   D(23,22,27,26)          1.0087         estimate D2E/DX2                !
 ! D98   D(23,22,27,52)       -179.4035         estimate D2E/DX2                !
 ! D99   D(22,23,24,25)          0.6436         estimate D2E/DX2                !
 ! D100  D(22,23,24,50)       -179.9651         estimate D2E/DX2                !
 ! D101  D(49,23,24,25)       -179.4933         estimate D2E/DX2                !
 ! D102  D(49,23,24,50)         -0.1021         estimate D2E/DX2                !
 ! D103  D(23,24,25,26)         -0.2435         estimate D2E/DX2                !
 ! D104  D(23,24,25,28)        177.5465         estimate D2E/DX2                !
 ! D105  D(50,24,25,26)       -179.6291         estimate D2E/DX2                !
 ! D106  D(50,24,25,28)         -1.8391         estimate D2E/DX2                !
 ! D107  D(24,25,26,27)          0.2416         estimate D2E/DX2                !
 ! D108  D(24,25,26,51)        179.6182         estimate D2E/DX2                !
 ! D109  D(28,25,26,27)       -177.5494         estimate D2E/DX2                !
 ! D110  D(28,25,26,51)          1.8272         estimate D2E/DX2                !
 ! D111  D(24,25,28,29)        -83.2764         estimate D2E/DX2                !
 ! D112  D(24,25,28,53)         39.8977         estimate D2E/DX2                !
 ! D113  D(24,25,28,54)        154.295          estimate D2E/DX2                !
 ! D114  D(26,25,28,29)         94.4288         estimate D2E/DX2                !
 ! D115  D(26,25,28,53)       -142.3971         estimate D2E/DX2                !
 ! D116  D(26,25,28,54)        -27.9998         estimate D2E/DX2                !
 ! D117  D(25,26,27,22)         -0.6387         estimate D2E/DX2                !
 ! D118  D(25,26,27,52)        179.7739         estimate D2E/DX2                !
 ! D119  D(51,26,27,22)        179.9753         estimate D2E/DX2                !
 ! D120  D(51,26,27,52)          0.388          estimate D2E/DX2                !
 ! D121  D(25,28,29,30)         74.8415         estimate D2E/DX2                !
 ! D122  D(25,28,29,35)        -64.7348         estimate D2E/DX2                !
 ! D123  D(53,28,29,30)        -48.7397         estimate D2E/DX2                !
 ! D124  D(53,28,29,35)        171.684          estimate D2E/DX2                !
 ! D125  D(54,28,29,30)       -161.9221         estimate D2E/DX2                !
 ! D126  D(54,28,29,35)         58.5016         estimate D2E/DX2                !
 ! D127  D(28,29,30,31)        -94.4645         estimate D2E/DX2                !
 ! D128  D(28,29,30,55)         31.9233         estimate D2E/DX2                !
 ! D129  D(28,29,30,56)        147.0319         estimate D2E/DX2                !
 ! D130  D(35,29,30,31)         48.2052         estimate D2E/DX2                !
 ! D131  D(35,29,30,55)        174.5929         estimate D2E/DX2                !
 ! D132  D(35,29,30,56)        -70.2984         estimate D2E/DX2                !
 ! D133  D(28,29,35,34)         95.0396         estimate D2E/DX2                !
 ! D134  D(28,29,35,64)       -145.5781         estimate D2E/DX2                !
 ! D135  D(28,29,35,65)        -30.1321         estimate D2E/DX2                !
 ! D136  D(30,29,35,34)        -47.9528         estimate D2E/DX2                !
 ! D137  D(30,29,35,64)         71.4295         estimate D2E/DX2                !
 ! D138  D(30,29,35,65)       -173.1245         estimate D2E/DX2                !
 ! D139  D(29,30,31,32)        -52.8893         estimate D2E/DX2                !
 ! D140  D(29,30,31,57)       -174.9486         estimate D2E/DX2                !
 ! D141  D(29,30,31,58)         67.493          estimate D2E/DX2                !
 ! D142  D(55,30,31,32)       -178.9802         estimate D2E/DX2                !
 ! D143  D(55,30,31,57)         58.9604         estimate D2E/DX2                !
 ! D144  D(55,30,31,58)        -58.598          estimate D2E/DX2                !
 ! D145  D(56,30,31,32)         65.3832         estimate D2E/DX2                !
 ! D146  D(56,30,31,57)        -56.6762         estimate D2E/DX2                !
 ! D147  D(56,30,31,58)       -174.2346         estimate D2E/DX2                !
 ! D148  D(30,31,32,33)        -81.9364         estimate D2E/DX2                !
 ! D149  D(30,31,32,34)         52.4851         estimate D2E/DX2                !
 ! D150  D(57,31,32,33)         40.5941         estimate D2E/DX2                !
 ! D151  D(57,31,32,34)        175.0157         estimate D2E/DX2                !
 ! D152  D(58,31,32,33)        155.9779         estimate D2E/DX2                !
 ! D153  D(58,31,32,34)        -69.6005         estimate D2E/DX2                !
 ! D154  D(31,32,33,59)         65.6128         estimate D2E/DX2                !
 ! D155  D(31,32,33,60)        -54.9954         estimate D2E/DX2                !
 ! D156  D(31,32,33,61)       -173.7881         estimate D2E/DX2                !
 ! D157  D(34,32,33,59)        -65.2416         estimate D2E/DX2                !
 ! D158  D(34,32,33,60)        174.1502         estimate D2E/DX2                !
 ! D159  D(34,32,33,61)         55.3575         estimate D2E/DX2                !
 ! D160  D(31,32,34,35)        -52.3039         estimate D2E/DX2                !
 ! D161  D(31,32,34,62)       -176.9698         estimate D2E/DX2                !
 ! D162  D(31,32,34,63)         67.6518         estimate D2E/DX2                !
 ! D163  D(33,32,34,35)         82.1189         estimate D2E/DX2                !
 ! D164  D(33,32,34,62)        -42.5471         estimate D2E/DX2                !
 ! D165  D(33,32,34,63)       -157.9254         estimate D2E/DX2                !
 ! D166  D(32,34,35,29)         52.4148         estimate D2E/DX2                !
 ! D167  D(32,34,35,64)        -66.6719         estimate D2E/DX2                !
 ! D168  D(32,34,35,65)        177.5132         estimate D2E/DX2                !
 ! D169  D(62,34,35,29)        176.2402         estimate D2E/DX2                !
 ! D170  D(62,34,35,64)         57.1535         estimate D2E/DX2                !
 ! D171  D(62,34,35,65)        -58.6613         estimate D2E/DX2                !
 ! D172  D(63,34,35,29)        -66.3396         estimate D2E/DX2                !
 ! D173  D(63,34,35,64)        174.5737         estimate D2E/DX2                !
 ! D174  D(63,34,35,65)         58.7589         estimate D2E/DX2                !
 --------------------------------------------------------------------------------
 Trust Radius=3.00D-01 FncErr=1.00D-07 GrdErr=1.00D-06
 Number of steps in this run= 400 maximum allowed number of steps= 408.
 GradGradGradGradGradGradGradGradGradGradGradGradGradGradGradGradGradGrad

 Leave Link  103 at Wed Apr  8 22:23:48 2020, MaxMem= 2684354560 cpu:       0.0
 (Enter /opt/g09gh/gaussian/g09/l202.exe)
 Stoichiometry    C29H31N7O
 Framework group  C1[X(C29H31N7O)]
 Deg. of freedom   198
 Full point group                 C1      NOp   1
 Largest Abelian subgroup         C1      NOp   1
 Largest concise Abelian subgroup C1      NOp   1
                         Standard orientation:                         
 ---------------------------------------------------------------------
 Center     Atomic      Atomic             Coordinates (Angstroms)
 Number     Number       Type             X           Y           Z
 ---------------------------------------------------------------------
      1          6           0       -1.896865    5.103814   -0.129945
      2          6           0       -3.156466    4.492916   -0.068933
      3          6           0       -3.252516    3.093724    0.061809
      4          6           0       -2.023019    2.395847    0.153166
      5          7           0       -0.810220    2.961398    0.100852
      6          6           0       -0.758130    4.294393   -0.045886
      7          6           0       -4.559479    2.343805    0.118979
      8          6           0       -5.831200    2.935098    0.200710
      9          6           0       -6.912476    2.048923    0.275316
     10          7           0       -6.798099    0.722612    0.261012
     11          6           0       -5.542006    0.241937    0.162208
     12          7           0       -4.448815    1.002768    0.092292
     13          7           0       -5.436226   -1.137071    0.134184
     14          6           0       -4.318159   -2.047600    0.108089
     15          6           0       -4.525608   -3.418937    0.449386
     16          6           0       -3.403391   -4.263496    0.435455
     17          6           0       -2.111275   -3.840500    0.104852
     18          6           0       -1.923333   -2.503344   -0.261361
     19          6           0       -3.028029   -1.635933   -0.254197
     20          7           0       -0.670391   -1.913589   -0.633382
     21          6           0        0.614138   -2.405819   -0.585217
     22          6           0        1.748474   -1.422248   -0.800584
     23          6           0        2.881430   -1.873687   -1.497686
     24          6           0        3.943566   -1.006083   -1.761611
     25          6           0        3.922296    0.334085   -1.330995
     26          6           0        2.784022    0.770712   -0.626216
     27          6           0        1.716377   -0.089214   -0.357184
     28          6           0        5.111051    1.265591   -1.573691
     29          7           0        6.256610    1.255262   -0.649465
     30          6           0        7.220234    0.132232   -0.697675
     31          6           0        6.929135   -1.012033    0.307967
     32          7           0        6.773961   -0.554452    1.709941
     33          6           0        8.009803   -0.333529    2.470376
     34          6           0        5.766096    0.533677    1.748487
     35          6           0        6.043723    1.687906    0.750443
     36          8           0        0.856584   -3.587694   -0.396955
     37          6           0       -5.878963   -3.986744    0.843311
     38          1           0       -1.798694    6.179564   -0.242685
     39          1           0       -4.041984    5.119298   -0.144861
     40          1           0       -2.013426    1.320231    0.298560
     41          1           0        0.242649    4.721267   -0.088367
     42          1           0       -6.011555    4.002735    0.231071
     43          1           0       -7.940196    2.402416    0.354253
     44          1           0       -6.354698   -1.541371    0.237098
     45          1           0       -3.525190   -5.312306    0.702936
     46          1           0       -1.270816   -4.523090    0.120325
     47          1           0       -2.890383   -0.608772   -0.549291
     48          1           0       -0.735272   -0.946303   -0.918092
     49          1           0        2.915416   -2.908444   -1.829410
     50          1           0        4.808499   -1.385491   -2.304966
     51          1           0        2.726017    1.798294   -0.267934
     52          1           0        0.851951    0.276140    0.192786
     53          1           0        5.503661    1.060871   -2.579557
     54          1           0        4.737844    2.299287   -1.597610
     55          1           0        7.314816   -0.282671   -1.794755
     56          1           0        8.558482    0.697232   -0.347934
     57          1           0        7.919577   -1.920278    0.256954
     58          1           0        5.844659   -1.618962   -0.013631
     59          1           0        8.586347    0.497923    2.049379
     60          1           0        8.629842   -1.237342    2.455172
     61          1           0        7.774517   -0.106607    3.516740
     62          1           0        5.676447    0.952052    2.872223
     63          1           0        4.479201   -0.076992    1.413583
     64          1           0        7.267498    2.365006    1.183548
     65          1           0        5.147685    2.521828    0.803879
     66          1           0       -6.626256   -3.894326    0.042477
     67          1           0       -6.280553   -3.472520    1.720886
     68          1           0       -5.833061   -5.048590    1.098603
 ---------------------------------------------------------------------
 Rotational constants (GHZ):      0.1491102      0.0465660      0.0375610
 Leave Link  202 at Wed Apr  8 22:23:48 2020, MaxMem= 2684354560 cpu:       0.0
 (Enter /opt/g09gh/gaussian/g09/l301.exe)
 Standard basis: 6-31G(d) (6D, 7F)
 Ernie: Thresh=  0.10000D-02 Tol=  0.10000D-05 Strict=F.
 There are   617 symmetry adapted basis functions of A   symmetry.
 Integral buffers will be    131072 words long.
 Raffenetti 2 integral format.
 Two-electron integral symmetry is turned on.
   617 basis functions,  1160 primitive gaussians,   617 cartesian basis functions
   131 alpha electrons      131 beta electrons
       nuclear repulsion energy      3675.6038702913 Hartrees.
 IExCor= 4639 DFT=T Ex+Corr=wB97XD ExCW=0 ScaHFX=  1.000000
 ScaDFX=  1.000000  1.000000  1.000000  1.000000 ScalE2=  1.000000  1.000000
 IRadAn=      0 IRanWt=     -1 IRanGd=            0 ICorTp=0
  HFx wShort=  0.000000 wLong=  0.200000 cFull=  0.222036 cShort=  0.000000 cLong=  0.777964
  DFx wShort=  0.000000 wLong=  0.200000 cFull=  0.000000 cShort=  0.000000 cLong=  1.000000
 NAtoms=   68 NActive=   68 NUniq=   68 SFac= 7.50D-01 NAtFMM=   80 NAOKFM=F Big=T
 R6Disp: Dispersion energy =        -0.0566517698 Hartrees.
 Nuclear repulsion after empirical dispersion term =     3675.5472185214 Hartrees.
 Leave Link  301 at Wed Apr  8 22:23:48 2020, MaxMem= 2684354560 cpu:       0.1
 (Enter /opt/g09gh/gaussian/g09/l302.exe)
 NPDir=0 NMtPBC=     1 NCelOv=     1 NCel=       1 NClECP=     1 NCelD=      1
         NCelK=      1 NCelE2=     1 NClLst=     1 CellRange=     0.0.
 One-electron integrals computed using PRISM.
 NBasis=   617 RedAO= T  NBF=   617
 NBsUse=   617 1.00D-06 NBFU=   617
 Precomputing XC quadrature grid using
 IXCGrd= 2 IRadAn=           0 IRanWt=          -1 IRanGd=           0 AccXCQ= 1.00D-10.
 NRdTot=    4401 NPtTot=      562590 NUsed=      594294 NTot=      594326
 NSgBfM=   604   604   604   604   604 NAtAll=    68    68.
 Leave Link  302 at Wed Apr  8 22:23:50 2020, MaxMem= 2684354560 cpu:       8.6
 (Enter /opt/g09gh/gaussian/g09/l303.exe)
 DipDrv:  MaxL=1.
 Leave Link  303 at Wed Apr  8 22:23:50 2020, MaxMem= 2684354560 cpu:       0.4
 (Enter /opt/g09gh/gaussian/g09/l401.exe)
 Harris functional with IExCor= 4639 diagonalized for initial guess.
 ExpMin= 1.61D-01 ExpMax= 5.48D+03 ExpMxC= 8.25D+02 IAcc=1 IRadAn=         1 AccDes= 0.00D+00
 HarFok:  IExCor= 4639 AccDes= 0.00D+00 IRadAn=         1 IDoV= 1
 ScaDFX=  1.000000  1.000000  1.000000  1.000000
 FoFCou: FMM=F IPFlag=           0 FMFlag=      100000 FMFlg1=           1
         NFxFlg=           0 DoJE=T BraDBF=F KetDBF=T FulRan=T
         Omega=  0.000000  0.000000  1.000000  0.000000  0.000000 ICntrl=     500 IOpCl=  0
         NMat0=    1 NMatS0=    1 NMatT0=    0 NMatD0=    1 NMtDS0=    0 NMtDT0=    0
         I1Cent=           4 NGrid=           0.
 Petite list used in FoFCou.
 Harris En= -1512.43796690607    
 Initial guess orbital symmetries:
       Occupied  (A) (A) (A) (A) (A) (A) (A) (A) (A) (A) (A) (A)
                 (A) (A) (A) (A) (A) (A) (A) (A) (A) (A) (A) (A)
                 (A) (A) (A) (A) (A) (A) (A) (A) (A) (A) (A) (A)
                 (A) (A) (A) (A) (A) (A) (A) (A) (A) (A) (A) (A)
                 (A) (A) (A) (A) (A) (A) (A) (A) (A) (A) (A) (A)
                 (A) (A) (A) (A) (A) (A) (A) (A) (A) (A) (A) (A)
                 (A) (A) (A) (A) (A) (A) (A) (A) (A) (A) (A) (A)
                 (A) (A) (A) (A) (A) (A) (A) (A) (A) (A) (A) (A)
                 (A) (A) (A) (A) (A) (A) (A) (A) (A) (A) (A) (A)
                 (A) (A) (A) (A) (A) (A) (A) (A) (A) (A) (A) (A)
                 (A) (A) (A) (A) (A) (A) (A) (A) (A) (A) (A)
       Virtual   (A) (A) (A) (A) (A) (A) (A) (A) (A) (A) (A) (A)
                 (A) (A) (A) (A) (A) (A) (A) (A) (A) (A) (A) (A)
                 (A) (A) (A) (A) (A) (A) (A) (A) (A) (A) (A) (A)
                 (A) (A) (A) (A) (A) (A) (A) (A) (A) (A) (A) (A)
                 (A) (A) (A) (A) (A) (A) (A) (A) (A) (A) (A) (A)
                 (A) (A) (A) (A) (A) (A) (A) (A) (A) (A) (A) (A)
                 (A) (A) (A) (A) (A) (A) (A) (A) (A) (A) (A) (A)
                 (A) (A) (A) (A) (A) (A) (A) (A) (A) (A) (A) (A)
                 (A) (A) (A) (A) (A) (A) (A) (A) (A) (A) (A) (A)
                 (A) (A) (A) (A) (A) (A) (A) (A) (A) (A) (A) (A)
                 (A) (A) (A) (A) (A) (A) (A) (A) (A) (A) (A) (A)
                 (A) (A) (A) (A) (A) (A) (A) (A) (A) (A) (A) (A)
                 (A) (A) (A) (A) (A) (A) (A) (A) (A) (A) (A) (A)
                 (A) (A) (A) (A) (A) (A) (A) (A) (A) (A) (A) (A)
                 (A) (A) (A) (A) (A) (A) (A) (A) (A) (A) (A) (A)
                 (A) (A) (A) (A) (A) (A) (A) (A) (A) (A) (A) (A)
                 (A) (A) (A) (A) (A) (A) (A) (A) (A) (A) (A) (A)
                 (A) (A) (A) (A) (A) (A) (A) (A) (A) (A) (A) (A)
                 (A) (A) (A) (A) (A) (A) (A) (A) (A) (A) (A) (A)
                 (A) (A) (A) (A) (A) (A) (A) (A) (A) (A) (A) (A)
                 (A) (A) (A) (A) (A) (A) (A) (A) (A) (A) (A) (A)
                 (A) (A) (A) (A) (A) (A) (A) (A) (A) (A) (A) (A)
                 (A) (A) (A) (A) (A) (A) (A) (A) (A) (A) (A) (A)
                 (A) (A) (A) (A) (A) (A) (A) (A) (A) (A) (A) (A)
                 (A) (A) (A) (A) (A) (A) (A) (A) (A) (A) (A) (A)
                 (A) (A) (A) (A) (A) (A) (A) (A) (A) (A) (A) (A)
                 (A) (A) (A) (A) (A) (A) (A) (A) (A) (A) (A) (A)
                 (A) (A) (A) (A) (A) (A) (A) (A) (A) (A) (A) (A)
                 (A) (A) (A) (A) (A) (A) (A) (A) (A) (A) (A) (A)
                 (A) (A) (A) (A) (A) (A) (A) (A) (A) (A) (A) (A)
                 (A) (A) (A) (A) (A) (A) (A) (A) (A) (A) (A) (A)
                 (A) (A) (A) (A) (A) (A) (A) (A) (A) (A) (A) (A)
                 (A) (A) (A) (A) (A) (A) (A) (A) (A) (A) (A) (A)
                 (A) (A) (A) (A) (A) (A) (A) (A) (A) (A) (A) (A)
                 (A) (A) (A) (A) (A) (A) (A) (A) (A) (A) (A) (A)
                 (A) (A) (A) (A) (A) (A) (A) (A) (A) (A) (A) (A)
                 (A) (A) (A) (A) (A) (A) (A) (A) (A) (A) (A) (A)
                 (A) (A) (A) (A) (A) (A) (A) (A) (A) (A) (A) (A)
                 (A) (A) (A) (A) (A) (A) (A) (A) (A) (A) (A) (A)
                 (A) (A) (A) (A) (A) (A) (A) (A) (A) (A) (A) (A)
                 (A) (A) (A) (A) (A) (A)
 The electronic state of the initial guess is 1-A.
 Leave Link  401 at Wed Apr  8 22:23:53 2020, MaxMem= 2684354560 cpu:      15.8
 (Enter /opt/g09gh/gaussian/g09/l502.exe)
 Closed shell SCF:
 Requested convergence on RMS density matrix=1.00D-08 within 128 cycles.
 Requested convergence on MAX density matrix=1.00D-06.
 Requested convergence on             energy=1.00D-06.
 No special actions if energy rises.
 Using DIIS extrapolation, IDIIS=  1040.
 Integral symmetry usage will be decided dynamically.
       593669 words used for storage of precomputed grid.
 IEnd=     1762249 IEndB=     1762249 NGot=  2684354560 MDV=  2682990258
 LenX=  2682990258 LenY=  2682608952
 Fock matrices will be formed incrementally for  20 cycles.
 Integral accuracy reduced to 1.0D-05 until final iterations.

 Cycle   1  Pass 0  IDiag  1:
 FoFJK:  IHMeth= 1 ICntrl=     0 DoSepK=T KAlg= 1 I1Cent= 0 FoldK=F
 FoFCou: FMM=T IPFlag=           0 FMFlag=      100000 FMFlg1=           1
         NFxFlg=           0 DoJE=T BraDBF=F KetDBF=F FulRan=T
         Omega=  0.000000  0.000000  1.000000  0.000000  0.000000 ICntrl=     500 IOpCl=  0
         NMat0=    1 NMatS0=    1 NMatT0=    0 NMatD0=    1 NMtDS0=    0 NMtDT0=    0
         I1Cent=           0 NGrid=           0.
 Symmetry not used in FoFCou.
 FMM levels:  10  Number of levels for PrismC:   9
 E= -1581.19593756325    
 DIIS: error= 5.14D-02 at cycle   1 NSaved=   1.
 NSaved= 1 IEnMin= 1 EnMin= -1581.19593756325     IErMin= 1 ErrMin= 5.14D-02
 ErrMax= 5.14D-02 EMaxC= 1.00D-01 BMatC= 1.46D+00 BMatP= 1.46D+00
 IDIUse=3 WtCom= 4.86D-01 WtEn= 5.14D-01
 Coeff-Com:  0.100D+01
 Coeff-En:   0.100D+01
 Coeff:      0.100D+01
 Gap=     0.265 Goal=   None    Shift=    0.000
 GapD=    0.265 DampG=1.000 DampE=0.500 DampFc=0.5000 IDamp=-1.
 Damping current iteration by 5.00D-01
 RMSDP=1.88D-03 MaxDP=8.92D-02              OVMax= 1.72D-01

 Cycle   2  Pass 0  IDiag  1:
 RMSU=  6.63D-04    CP:  1.00D+00
 FoFJK:  IHMeth= 1 ICntrl=     0 DoSepK=T KAlg= 1 I1Cent= 0 FoldK=F
 E= -1581.37119123533     Delta-E=       -0.175253672076 Rises=F Damp=T
 DIIS: error= 2.65D-02 at cycle   2 NSaved=   2.
 NSaved= 2 IEnMin= 2 EnMin= -1581.37119123533     IErMin= 2 ErrMin= 2.65D-02
 ErrMax= 2.65D-02 EMaxC= 1.00D-01 BMatC= 3.22D-01 BMatP= 1.46D+00
 IDIUse=3 WtCom= 7.35D-01 WtEn= 2.65D-01
 Coeff-Com: -0.657D+00 0.166D+01
 Coeff-En:   0.000D+00 0.100D+01
 Coeff:     -0.483D+00 0.148D+01
 Gap=     0.282 Goal=   None    Shift=    0.000
 RMSDP=8.80D-04 MaxDP=3.87D-02 DE=-1.75D-01 OVMax= 1.23D-01

 Cycle   3  Pass 0  IDiag  1:
 RMSU=  5.70D-04    CP:  1.00D+00  1.37D+00
 FoFJK:  IHMeth= 1 ICntrl=     0 DoSepK=T KAlg= 1 I1Cent= 0 FoldK=F
 E= -1581.49699251435     Delta-E=       -0.125801279024 Rises=F Damp=F
 DIIS: error= 9.59D-03 at cycle   3 NSaved=   3.
 NSaved= 3 IEnMin= 3 EnMin= -1581.49699251435     IErMin= 3 ErrMin= 9.59D-03
 ErrMax= 9.59D-03 EMaxC= 1.00D-01 BMatC= 6.52D-02 BMatP= 3.22D-01
 IDIUse=3 WtCom= 9.04D-01 WtEn= 9.59D-02
 Coeff-Com: -0.371D+00 0.767D+00 0.605D+00
 Coeff-En:   0.000D+00 0.000D+00 0.100D+01
 Coeff:     -0.336D+00 0.693D+00 0.643D+00
 Gap=     0.258 Goal=   None    Shift=    0.000
 RMSDP=4.87D-04 MaxDP=3.39D-02 DE=-1.26D-01 OVMax= 6.55D-02

 Cycle   4  Pass 0  IDiag  1:
 RMSU=  1.43D-04    CP:  1.00D+00  1.68D+00  5.78D-01
 FoFJK:  IHMeth= 1 ICntrl=     0 DoSepK=T KAlg= 1 I1Cent= 0 FoldK=F
 E= -1581.55463126719     Delta-E=       -0.057638752841 Rises=F Damp=F
 DIIS: error= 1.97D-03 at cycle   4 NSaved=   4.
 NSaved= 4 IEnMin= 4 EnMin= -1581.55463126719     IErMin= 4 ErrMin= 1.97D-03
 ErrMax= 1.97D-03 EMaxC= 1.00D-01 BMatC= 4.24D-03 BMatP= 6.52D-02
 IDIUse=3 WtCom= 9.80D-01 WtEn= 1.97D-02
 Coeff-Com: -0.165D+00 0.337D+00 0.349D+00 0.480D+00
 Coeff-En:   0.000D+00 0.000D+00 0.000D+00 0.100D+01
 Coeff:     -0.162D+00 0.330D+00 0.342D+00 0.490D+00
 Gap=     0.252 Goal=   None    Shift=    0.000
 RMSDP=1.08D-04 MaxDP=9.30D-03 DE=-5.76D-02 OVMax= 1.06D-02

 Cycle   5  Pass 0  IDiag  1:
 RMSU=  4.59D-05    CP:  1.00D+00  1.65D+00  6.53D-01  7.14D-01
 FoFJK:  IHMeth= 1 ICntrl=     0 DoSepK=T KAlg= 1 I1Cent= 0 FoldK=F
 E= -1581.55832678529     Delta-E=       -0.003695518095 Rises=F Damp=F
 DIIS: error= 3.98D-04 at cycle   5 NSaved=   5.
 NSaved= 5 IEnMin= 5 EnMin= -1581.55832678529     IErMin= 5 ErrMin= 3.98D-04
 ErrMax= 3.98D-04 EMaxC= 1.00D-01 BMatC= 8.63D-05 BMatP= 4.24D-03
 IDIUse=3 WtCom= 9.96D-01 WtEn= 3.98D-03
 Coeff-Com: -0.140D-01 0.276D-01 0.520D-01 0.152D+00 0.782D+00
 Coeff-En:   0.000D+00 0.000D+00 0.000D+00 0.000D+00 0.100D+01
 Coeff:     -0.139D-01 0.274D-01 0.518D-01 0.152D+00 0.783D+00
 Gap=     0.251 Goal=   None    Shift=    0.000
 RMSDP=2.43D-05 MaxDP=2.55D-03 DE=-3.70D-03 OVMax= 2.91D-03

 Cycle   6  Pass 0  IDiag  1:
 RMSU=  1.31D-05    CP:  1.00D+00  1.66D+00  6.60D-01  7.82D-01  9.93D-01
 FoFJK:  IHMeth= 1 ICntrl=     0 DoSepK=T KAlg= 1 I1Cent= 0 FoldK=F
 E= -1581.55841270494     Delta-E=       -0.000085919653 Rises=F Damp=F
 DIIS: error= 3.01D-04 at cycle   6 NSaved=   6.
 NSaved= 6 IEnMin= 6 EnMin= -1581.55841270494     IErMin= 6 ErrMin= 3.01D-04
 ErrMax= 3.01D-04 EMaxC= 1.00D-01 BMatC= 2.65D-05 BMatP= 8.63D-05
 IDIUse=3 WtCom= 9.97D-01 WtEn= 3.01D-03
 Coeff-Com:  0.236D-01-0.488D-01-0.367D-01-0.156D-01 0.398D+00 0.679D+00
 Coeff-En:   0.000D+00 0.000D+00 0.000D+00 0.000D+00 0.000D+00 0.100D+01
 Coeff:      0.236D-01-0.487D-01-0.366D-01-0.156D-01 0.397D+00 0.680D+00
 Gap=     0.252 Goal=   None    Shift=    0.000
 RMSDP=1.29D-05 MaxDP=7.90D-04 DE=-8.59D-05 OVMax= 1.63D-03

 Cycle   7  Pass 0  IDiag  1:
 RMSU=  5.61D-06    CP:  1.00D+00  1.66D+00  6.63D-01  8.09D-01  1.11D+00
                    CP:  8.88D-01
 FoFJK:  IHMeth= 1 ICntrl=     0 DoSepK=T KAlg= 1 I1Cent= 0 FoldK=F
 E= -1581.55844221244     Delta-E=       -0.000029507502 Rises=F Damp=F
 DIIS: error= 3.89D-05 at cycle   7 NSaved=   7.
 NSaved= 7 IEnMin= 7 EnMin= -1581.55844221244     IErMin= 7 ErrMin= 3.89D-05
 ErrMax= 3.89D-05 EMaxC= 1.00D-01 BMatC= 1.65D-06 BMatP= 2.65D-05
 IDIUse=1 WtCom= 1.00D+00 WtEn= 0.00D+00
 Coeff-Com:  0.964D-02-0.197D-01-0.170D-01-0.199D-01 0.671D-01 0.236D+00
 Coeff-Com:  0.743D+00
 Coeff:      0.964D-02-0.197D-01-0.170D-01-0.199D-01 0.671D-01 0.236D+00
 Coeff:      0.743D+00
 Gap=     0.252 Goal=   None    Shift=    0.000
 RMSDP=4.03D-06 MaxDP=2.53D-04 DE=-2.95D-05 OVMax= 6.33D-04

 Initial convergence to 1.0D-05 achieved.  Increase integral accuracy.
 Cycle   8  Pass 1  IDiag  1:
 FoFJK:  IHMeth= 1 ICntrl=     0 DoSepK=T KAlg= 1 I1Cent= 0 FoldK=F
 E= -1581.55667257373     Delta-E=        0.001769638717 Rises=F Damp=F
 DIIS: error= 9.67D-05 at cycle   1 NSaved=   1.
 NSaved= 1 IEnMin= 1 EnMin= -1581.55667257373     IErMin= 1 ErrMin= 9.67D-05
 ErrMax= 9.67D-05 EMaxC= 1.00D-01 BMatC= 1.42D-05 BMatP= 1.42D-05
 IDIUse=1 WtCom= 1.00D+00 WtEn= 0.00D+00
 Coeff-Com:  0.100D+01
 Coeff:      0.100D+01
 Gap=     0.252 Goal=   None    Shift=    0.000
 RMSDP=4.03D-06 MaxDP=2.53D-04 DE= 1.77D-03 OVMax= 4.30D-04

 Cycle   9  Pass 1  IDiag  1:
 RMSU=  1.74D-05    CP:  1.00D+00
 FoFJK:  IHMeth= 1 ICntrl=     0 DoSepK=T KAlg= 1 I1Cent= 0 FoldK=F
 E= -1581.55668395857     Delta-E=       -0.000011384841 Rises=F Damp=F
 DIIS: error= 2.42D-05 at cycle   2 NSaved=   2.
 NSaved= 2 IEnMin= 2 EnMin= -1581.55668395857     IErMin= 2 ErrMin= 2.42D-05
 ErrMax= 2.42D-05 EMaxC= 1.00D-01 BMatC= 8.74D-07 BMatP= 1.42D-05
 IDIUse=1 WtCom= 1.00D+00 WtEn= 0.00D+00
 Coeff-Com:  0.403D-01 0.960D+00
 Coeff:      0.403D-01 0.960D+00
 Gap=     0.252 Goal=   None    Shift=    0.000
 RMSDP=3.18D-06 MaxDP=2.10D-04 DE=-1.14D-05 OVMax= 3.24D-04

 Cycle  10  Pass 1  IDiag  1:
 RMSU=  2.10D-06    CP:  1.00D+00  1.04D+00
 FoFJK:  IHMeth= 1 ICntrl=     0 DoSepK=T KAlg= 1 I1Cent= 0 FoldK=F
 E= -1581.55668407882     Delta-E=       -0.000000120250 Rises=F Damp=F
 DIIS: error= 3.49D-05 at cycle   3 NSaved=   3.
 NSaved= 3 IEnMin= 3 EnMin= -1581.55668407882     IErMin= 2 ErrMin= 2.42D-05
 ErrMax= 3.49D-05 EMaxC= 1.00D-01 BMatC= 9.75D-07 BMatP= 8.74D-07
 IDIUse=1 WtCom= 1.00D+00 WtEn= 0.00D+00
 Coeff-Com: -0.388D-01 0.528D+00 0.511D+00
 Coeff:     -0.388D-01 0.528D+00 0.511D+00
 Gap=     0.252 Goal=   None    Shift=    0.000
 RMSDP=1.65D-06 MaxDP=1.49D-04 DE=-1.20D-07 OVMax= 1.64D-04

 Cycle  11  Pass 1  IDiag  1:
 RMSU=  6.77D-07    CP:  1.00D+00  1.06D+00  5.59D-01
 FoFJK:  IHMeth= 1 ICntrl=     0 DoSepK=T KAlg= 1 I1Cent= 0 FoldK=F
 E= -1581.55668491660     Delta-E=       -0.000000837780 Rises=F Damp=F
 DIIS: error= 9.02D-06 at cycle   4 NSaved=   4.
 NSaved= 4 IEnMin= 4 EnMin= -1581.55668491660     IErMin= 4 ErrMin= 9.02D-06
 ErrMax= 9.02D-06 EMaxC= 1.00D-01 BMatC= 2.68D-08 BMatP= 8.74D-07
 IDIUse=1 WtCom= 1.00D+00 WtEn= 0.00D+00
 Coeff-Com: -0.172D-01 0.126D+00 0.185D+00 0.706D+00
 Coeff:     -0.172D-01 0.126D+00 0.185D+00 0.706D+00
 Gap=     0.252 Goal=   None    Shift=    0.000
 RMSDP=3.54D-07 MaxDP=3.75D-05 DE=-8.38D-07 OVMax= 4.19D-05

 Cycle  12  Pass 1  IDiag  1:
 RMSU=  2.28D-07    CP:  1.00D+00  1.06D+00  6.07D-01  1.02D+00
 FoFJK:  IHMeth= 1 ICntrl=     0 DoSepK=T KAlg= 1 I1Cent= 0 FoldK=F
 E= -1581.55668494204     Delta-E=       -0.000000025447 Rises=F Damp=F
 DIIS: error= 3.28D-06 at cycle   5 NSaved=   5.
 NSaved= 5 IEnMin= 5 EnMin= -1581.55668494204     IErMin= 5 ErrMin= 3.28D-06
 ErrMax= 3.28D-06 EMaxC= 1.00D-01 BMatC= 5.36D-09 BMatP= 2.68D-08
 IDIUse=1 WtCom= 1.00D+00 WtEn= 0.00D+00
 Coeff-Com: -0.716D-03-0.319D-01-0.355D-02 0.311D+00 0.725D+00
 Coeff:     -0.716D-03-0.319D-01-0.355D-02 0.311D+00 0.725D+00
 Gap=     0.252 Goal=   None    Shift=    0.000
 RMSDP=1.91D-07 MaxDP=1.39D-05 DE=-2.54D-08 OVMax= 2.45D-05

 Cycle  13  Pass 1  IDiag  1:
 RMSU=  8.85D-08    CP:  1.00D+00  1.06D+00  6.23D-01  1.16D+00  9.34D-01
 FoFJK:  IHMeth= 1 ICntrl=     0 DoSepK=T KAlg= 1 I1Cent= 0 FoldK=F
 E= -1581.55668494900     Delta-E=       -0.000000006952 Rises=F Damp=F
 DIIS: error= 7.58D-07 at cycle   6 NSaved=   6.
 NSaved= 6 IEnMin= 6 EnMin= -1581.55668494900     IErMin= 6 ErrMin= 7.58D-07
 ErrMax= 7.58D-07 EMaxC= 1.00D-01 BMatC= 6.31D-10 BMatP= 5.36D-09
 IDIUse=1 WtCom= 1.00D+00 WtEn= 0.00D+00
 Coeff-Com:  0.183D-02-0.279D-01-0.249D-01 0.314D-01 0.279D+00 0.741D+00
 Coeff:      0.183D-02-0.279D-01-0.249D-01 0.314D-01 0.279D+00 0.741D+00
 Gap=     0.252 Goal=   None    Shift=    0.000
 RMSDP=8.10D-08 MaxDP=4.43D-06 DE=-6.95D-09 OVMax= 1.73D-05

 Cycle  14  Pass 1  IDiag  1:
 RMSU=  3.72D-08    CP:  1.00D+00  1.06D+00  6.25D-01  1.21D+00  1.06D+00
                    CP:  1.03D+00
 FoFJK:  IHMeth= 1 ICntrl=     0 DoSepK=T KAlg= 1 I1Cent= 0 FoldK=F
 E= -1581.55668495016     Delta-E=       -0.000000001161 Rises=F Damp=F
 DIIS: error= 3.67D-07 at cycle   7 NSaved=   7.
 NSaved= 7 IEnMin= 7 EnMin= -1581.55668495016     IErMin= 7 ErrMin= 3.67D-07
 ErrMax= 3.67D-07 EMaxC= 1.00D-01 BMatC= 1.16D-10 BMatP= 6.31D-10
 IDIUse=1 WtCom= 1.00D+00 WtEn= 0.00D+00
 Coeff-Com:  0.823D-03-0.457D-02-0.934D-02-0.508D-01-0.317D-01 0.285D+00
 Coeff-Com:  0.810D+00
 Coeff:      0.823D-03-0.457D-02-0.934D-02-0.508D-01-0.317D-01 0.285D+00
 Coeff:      0.810D+00
 Gap=     0.252 Goal=   None    Shift=    0.000
 RMSDP=4.33D-08 MaxDP=1.83D-06 DE=-1.16D-09 OVMax= 8.95D-06

 Cycle  15  Pass 1  IDiag  1:
 RMSU=  1.57D-08    CP:  1.00D+00  1.06D+00  6.29D-01  1.23D+00  1.11D+00
                    CP:  1.22D+00  1.09D+00
 FoFJK:  IHMeth= 1 ICntrl=     0 DoSepK=T KAlg= 1 I1Cent= 0 FoldK=F
 E= -1581.55668495050     Delta-E=       -0.000000000341 Rises=F Damp=F
 DIIS: error= 1.37D-07 at cycle   8 NSaved=   8.
 NSaved= 8 IEnMin= 8 EnMin= -1581.55668495050     IErMin= 8 ErrMin= 1.37D-07
 ErrMax= 1.37D-07 EMaxC= 1.00D-01 BMatC= 1.81D-11 BMatP= 1.16D-10
 IDIUse=1 WtCom= 1.00D+00 WtEn= 0.00D+00
 Coeff-Com: -0.257D-04 0.319D-02 0.109D-02-0.222D-01-0.553D-01-0.284D-01
 Coeff-Com:  0.275D+00 0.826D+00
 Coeff:     -0.257D-04 0.319D-02 0.109D-02-0.222D-01-0.553D-01-0.284D-01
 Coeff:      0.275D+00 0.826D+00
 Gap=     0.252 Goal=   None    Shift=    0.000
 RMSDP=1.85D-08 MaxDP=9.60D-07 DE=-3.41D-10 OVMax= 5.02D-06

 Cycle  16  Pass 1  IDiag  1:
 RMSU=  6.47D-09    CP:  1.00D+00  1.06D+00  6.29D-01  1.23D+00  1.13D+00
                    CP:  1.28D+00  1.29D+00  1.09D+00
 FoFJK:  IHMeth= 1 ICntrl=     0 DoSepK=T KAlg= 1 I1Cent= 0 FoldK=F
 E= -1581.55668495055     Delta-E=       -0.000000000057 Rises=F Damp=F
 DIIS: error= 6.30D-08 at cycle   9 NSaved=   9.
 NSaved= 9 IEnMin= 9 EnMin= -1581.55668495055     IErMin= 9 ErrMin= 6.30D-08
 ErrMax= 6.30D-08 EMaxC= 1.00D-01 BMatC= 3.69D-12 BMatP= 1.81D-11
 IDIUse=1 WtCom= 1.00D+00 WtEn= 0.00D+00
 Coeff-Com: -0.176D-03 0.221D-02 0.236D-02 0.116D-02-0.170D-01-0.703D-01
 Coeff-Com: -0.559D-01 0.313D+00 0.824D+00
 Coeff:     -0.176D-03 0.221D-02 0.236D-02 0.116D-02-0.170D-01-0.703D-01
 Coeff:     -0.559D-01 0.313D+00 0.824D+00
 Gap=     0.252 Goal=   None    Shift=    0.000
 RMSDP=8.53D-09 MaxDP=4.64D-07 DE=-5.73D-11 OVMax= 2.24D-06

 SCF Done:  E(RwB97XD) =  -1581.55668495     A.U. after   16 cycles
             Convg  =    0.8535D-08             -V/T =  2.0112
 KE= 1.564112193658D+03 PE=-1.101968774826D+04 EE= 4.198471651133D+03
 Leave Link  502 at Wed Apr  8 22:26:35 2020, MaxMem= 2684354560 cpu:     975.9
 (Enter /opt/g09gh/gaussian/g09/l601.exe)
 Copying SCF densities to generalized density rwf, IOpCl= 0 IROHF=0.

 **********************************************************************

            Population analysis using the SCF density.

 **********************************************************************

 Orbital symmetries:
       Occupied  (A) (A) (A) (A) (A) (A) (A) (A) (A) (A) (A) (A)
                 (A) (A) (A) (A) (A) (A) (A) (A) (A) (A) (A) (A)
                 (A) (A) (A) (A) (A) (A) (A) (A) (A) (A) (A) (A)
                 (A) (A) (A) (A) (A) (A) (A) (A) (A) (A) (A) (A)
                 (A) (A) (A) (A) (A) (A) (A) (A) (A) (A) (A) (A)
                 (A) (A) (A) (A) (A) (A) (A) (A) (A) (A) (A) (A)
                 (A) (A) (A) (A) (A) (A) (A) (A) (A) (A) (A) (A)
                 (A) (A) (A) (A) (A) (A) (A) (A) (A) (A) (A) (A)
                 (A) (A) (A) (A) (A) (A) (A) (A) (A) (A) (A) (A)
                 (A) (A) (A) (A) (A) (A) (A) (A) (A) (A) (A) (A)
                 (A) (A) (A) (A) (A) (A) (A) (A) (A) (A) (A)
       Virtual   (A) (A) (A) (A) (A) (A) (A) (A) (A) (A) (A) (A)
                 (A) (A) (A) (A) (A) (A) (A) (A) (A) (A) (A) (A)
                 (A) (A) (A) (A) (A) (A) (A) (A) (A) (A) (A) (A)
                 (A) (A) (A) (A) (A) (A) (A) (A) (A) (A) (A) (A)
                 (A) (A) (A) (A) (A) (A) (A) (A) (A) (A) (A) (A)
                 (A) (A) (A) (A) (A) (A) (A) (A) (A) (A) (A) (A)
                 (A) (A) (A) (A) (A) (A) (A) (A) (A) (A) (A) (A)
                 (A) (A) (A) (A) (A) (A) (A) (A) (A) (A) (A) (A)
                 (A) (A) (A) (A) (A) (A) (A) (A) (A) (A) (A) (A)
                 (A) (A) (A) (A) (A) (A) (A) (A) (A) (A) (A) (A)
                 (A) (A) (A) (A) (A) (A) (A) (A) (A) (A) (A) (A)
                 (A) (A) (A) (A) (A) (A) (A) (A) (A) (A) (A) (A)
                 (A) (A) (A) (A) (A) (A) (A) (A) (A) (A) (A) (A)
                 (A) (A) (A) (A) (A) (A) (A) (A) (A) (A) (A) (A)
                 (A) (A) (A) (A) (A) (A) (A) (A) (A) (A) (A) (A)
                 (A) (A) (A) (A) (A) (A) (A) (A) (A) (A) (A) (A)
                 (A) (A) (A) (A) (A) (A) (A) (A) (A) (A) (A) (A)
                 (A) (A) (A) (A) (A) (A) (A) (A) (A) (A) (A) (A)
                 (A) (A) (A) (A) (A) (A) (A) (A) (A) (A) (A) (A)
                 (A) (A) (A) (A) (A) (A) (A) (A) (A) (A) (A) (A)
                 (A) (A) (A) (A) (A) (A) (A) (A) (A) (A) (A) (A)
                 (A) (A) (A) (A) (A) (A) (A) (A) (A) (A) (A) (A)
                 (A) (A) (A) (A) (A) (A) (A) (A) (A) (A) (A) (A)
                 (A) (A) (A) (A) (A) (A) (A) (A) (A) (A) (A) (A)
                 (A) (A) (A) (A) (A) (A) (A) (A) (A) (A) (A) (A)
                 (A) (A) (A) (A) (A) (A) (A) (A) (A) (A) (A) (A)
                 (A) (A) (A) (A) (A) (A) (A) (A) (A) (A) (A) (A)
                 (A) (A) (A) (A) (A) (A) (A) (A) (A) (A) (A) (A)
                 (A) (A) (A) (A) (A) (A) (A) (A) (A) (A) (A) (A)
                 (A) (A) (A) (A) (A) (A) (A) (A) (A) (A) (A) (A)
                 (A) (A) (A) (A) (A) (A) (A) (A) (A) (A) (A) (A)
                 (A) (A) (A) (A) (A) (A) (A) (A) (A) (A) (A) (A)
                 (A) (A) (A) (A) (A) (A) (A) (A) (A) (A) (A) (A)
                 (A) (A) (A) (A) (A) (A) (A) (A) (A) (A) (A) (A)
                 (A) (A) (A) (A) (A) (A) (A) (A) (A) (A) (A) (A)
                 (A) (A) (A) (A) (A) (A) (A) (A) (A) (A) (A) (A)
                 (A) (A) (A) (A) (A) (A) (A) (A) (A) (A) (A) (A)
                 (A) (A) (A) (A) (A) (A) (A) (A) (A) (A) (A) (A)
                 (A) (A) (A) (A) (A) (A) (A) (A) (A) (A) (A) (A)
                 (A) (A) (A) (A) (A) (A) (A) (A) (A) (A) (A) (A)
                 (A) (A) (A) (A) (A) (A)
 The electronic state is 1-A.
 Alpha  occ. eigenvalues --  -19.23490 -14.49494 -14.49003 -14.46567 -14.46092
 Alpha  occ. eigenvalues --  -14.45982 -14.45773 -14.44320 -10.42006 -10.40632
 Alpha  occ. eigenvalues --  -10.38262 -10.36663 -10.36423 -10.36369 -10.35859
 Alpha  occ. eigenvalues --  -10.35721 -10.35581 -10.35303 -10.35114 -10.35072
 Alpha  occ. eigenvalues --  -10.34368 -10.34192 -10.33746 -10.32962 -10.32253
 Alpha  occ. eigenvalues --  -10.31762 -10.31645 -10.31406 -10.31258 -10.30894
 Alpha  occ. eigenvalues --  -10.30871 -10.30830 -10.30782 -10.30226 -10.30156
 Alpha  occ. eigenvalues --  -10.29829 -10.29109  -1.13576  -1.11652  -1.05596
 Alpha  occ. eigenvalues --   -1.03740  -1.03043  -1.03018  -1.00126  -0.99087
 Alpha  occ. eigenvalues --   -0.95916  -0.94561  -0.92520  -0.89398  -0.87930
 Alpha  occ. eigenvalues --   -0.87116  -0.86364  -0.84729  -0.83848  -0.82729
 Alpha  occ. eigenvalues --   -0.81594  -0.79452  -0.77946  -0.77670  -0.76004
 Alpha  occ. eigenvalues --   -0.73430  -0.72668  -0.72368  -0.70854  -0.70474
 Alpha  occ. eigenvalues --   -0.69928  -0.69400  -0.67937  -0.66319  -0.64752
 Alpha  occ. eigenvalues --   -0.63246  -0.62323  -0.61656  -0.60307  -0.59784
 Alpha  occ. eigenvalues --   -0.58583  -0.57526  -0.56904  -0.56331  -0.56036
 Alpha  occ. eigenvalues --   -0.55889  -0.55016  -0.54788  -0.54386  -0.53552
 Alpha  occ. eigenvalues --   -0.53383  -0.52283  -0.52107  -0.51848  -0.51402
 Alpha  occ. eigenvalues --   -0.51329  -0.51048  -0.50808  -0.50638  -0.50388
 Alpha  occ. eigenvalues --   -0.50172  -0.49945  -0.49591  -0.49461  -0.48173
 Alpha  occ. eigenvalues --   -0.47465  -0.46506  -0.46150  -0.46068  -0.45491
 Alpha  occ. eigenvalues --   -0.45179  -0.44585  -0.44115  -0.44034  -0.43865
 Alpha  occ. eigenvalues --   -0.43417  -0.43045  -0.41969  -0.41471  -0.40122
 Alpha  occ. eigenvalues --   -0.40102  -0.38469  -0.38002  -0.37352  -0.36427
 Alpha  occ. eigenvalues --   -0.35637  -0.35171  -0.33804  -0.33647  -0.33275
 Alpha  occ. eigenvalues --   -0.32919  -0.31793  -0.30955  -0.29484  -0.27484
 Alpha  occ. eigenvalues --   -0.25818
 Alpha virt. eigenvalues --   -0.00649   0.02785   0.03137   0.04540   0.06024
 Alpha virt. eigenvalues --    0.07266   0.07546   0.09881   0.09936   0.12706
 Alpha virt. eigenvalues --    0.13806   0.13974   0.14242   0.15544   0.16022
 Alpha virt. eigenvalues --    0.16103   0.17156   0.17945   0.18561   0.19196
 Alpha virt. eigenvalues --    0.19572   0.19848   0.20301   0.20909   0.21541
 Alpha virt. eigenvalues --    0.21700   0.22853   0.22947   0.23199   0.23452
 Alpha virt. eigenvalues --    0.24186   0.24298   0.24764   0.25160   0.25183
 Alpha virt. eigenvalues --    0.25401   0.25599   0.26064   0.26614   0.26922
 Alpha virt. eigenvalues --    0.27445   0.27851   0.28074   0.28254   0.28538
 Alpha virt. eigenvalues --    0.29053   0.29415   0.29651   0.30540   0.31032
 Alpha virt. eigenvalues --    0.31753   0.31883   0.32047   0.33140   0.33482
 Alpha virt. eigenvalues --    0.33829   0.34540   0.35707   0.36391   0.37628
 Alpha virt. eigenvalues --    0.38067   0.38236   0.38748   0.39401   0.39784
 Alpha virt. eigenvalues --    0.40178   0.40847   0.40995   0.41190   0.41731
 Alpha virt. eigenvalues --    0.43179   0.44796   0.45245   0.46280   0.46869
 Alpha virt. eigenvalues --    0.47926   0.49479   0.51376   0.52452   0.53510
 Alpha virt. eigenvalues --    0.55343   0.56092   0.56981   0.57233   0.58334
 Alpha virt. eigenvalues --    0.58802   0.59370   0.59513   0.59804   0.60078
 Alpha virt. eigenvalues --    0.60212   0.60881   0.61359   0.61815   0.62198
 Alpha virt. eigenvalues --    0.62455   0.63098   0.63219   0.63747   0.64108
 Alpha virt. eigenvalues --    0.64349   0.64630   0.64907   0.65217   0.65465
 Alpha virt. eigenvalues --    0.65654   0.65915   0.66250   0.66387   0.66679
 Alpha virt. eigenvalues --    0.66854   0.67338   0.67495   0.68319   0.68366
 Alpha virt. eigenvalues --    0.68950   0.69338   0.69508   0.70197   0.70370
 Alpha virt. eigenvalues --    0.70751   0.70850   0.70991   0.71246   0.71731
 Alpha virt. eigenvalues --    0.72125   0.72712   0.72810   0.73061   0.73996
 Alpha virt. eigenvalues --    0.74372   0.74720   0.75301   0.75784   0.76233
 Alpha virt. eigenvalues --    0.77255   0.77825   0.78349   0.79837   0.80529
 Alpha virt. eigenvalues --    0.80910   0.81353   0.81379   0.81784   0.83039
 Alpha virt. eigenvalues --    0.83268   0.83718   0.84655   0.85373   0.85740
 Alpha virt. eigenvalues --    0.86220   0.86352   0.86912   0.87771   0.87911
 Alpha virt. eigenvalues --    0.88873   0.89285   0.89490   0.90165   0.90335
 Alpha virt. eigenvalues --    0.90866   0.91310   0.91585   0.91926   0.92067
 Alpha virt. eigenvalues --    0.92352   0.92598   0.93258   0.93455   0.93649
 Alpha virt. eigenvalues --    0.94013   0.94555   0.94719   0.95185   0.95707
 Alpha virt. eigenvalues --    0.96244   0.96541   0.97479   0.97540   0.97847
 Alpha virt. eigenvalues --    0.98146   0.99073   0.99195   0.99604   0.99845
 Alpha virt. eigenvalues --    1.00355   1.00755   1.01479   1.01634   1.02380
 Alpha virt. eigenvalues --    1.02555   1.03288   1.04168   1.05226   1.06113
 Alpha virt. eigenvalues --    1.06617   1.06790   1.07620   1.07922   1.08586
[...]
                 (A) (A) (A) (A) (A) (A) (A) (A) (A) (A) (A) (A)
                 (A) (A) (A) (A) (A) (A) (A) (A) (A) (A) (A) (A)
                 (A) (A) (A) (A) (A) (A) (A) (A) (A) (A) (A) (A)
                 (A) (A) (A) (A) (A) (A) (A) (A) (A) (A) (A) (A)
                 (A) (A) (A) (A) (A) (A) (A) (A) (A) (A) (A) (A)
                 (A) (A) (A) (A) (A) (A) (A) (A) (A) (A) (A) (A)
                 (A) (A) (A) (A) (A) (A) (A) (A) (A) (A) (A) (A)
                 (A) (A) (A) (A) (A) (A) (A) (A) (A) (A) (A) (A)
                 (A) (A) (A) (A) (A) (A) (A) (A) (A) (A) (A) (A)
                 (A) (A) (A) (A) (A) (A) (A) (A) (A) (A) (A) (A)
                 (A) (A) (A) (A) (A) (A) (A) (A) (A) (A) (A) (A)
                 (A) (A) (A) (A) (A) (A) (A) (A) (A) (A) (A) (A)
                 (A) (A) (A) (A) (A) (A) (A) (A) (A) (A) (A) (A)
                 (A) (A) (A) (A) (A) (A) (A) (A) (A) (A) (A) (A)
                 (A) (A) (A) (A) (A) (A) (A) (A) (A) (A) (A) (A)
                 (A) (A) (A) (A) (A) (A) (A) (A) (A) (A) (A) (A)
                 (A) (A) (A) (A) (A) (A) (A) (A) (A) (A) (A) (A)
                 (A) (A) (A) (A) (A) (A) (A) (A) (A) (A) (A) (A)
                 (A) (A) (A) (A) (A) (A) (A) (A) (A) (A) (A) (A)
                 (A) (A) (A) (A) (A) (A) (A) (A) (A) (A) (A) (A)
                 (A) (A) (A) (A) (A) (A) (A) (A) (A) (A) (A) (A)
                 (A) (A) (A) (A) (A) (A) (A) (A) (A) (A) (A) (A)
                 (A) (A) (A) (A) (A) (A) (A) (A) (A) (A) (A) (A)
                 (A) (A) (A) (A) (A) (A) (A) (A) (A) (A) (A) (A)
                 (A) (A) (A) (A) (A) (A) (A) (A) (A) (A) (A) (A)
                 (A) (A) (A) (A) (A) (A) (A) (A) (A) (A) (A) (A)
                 (A) (A) (A) (A) (A) (A) (A) (A) (A) (A) (A) (A)
                 (A) (A) (A) (A) (A) (A) (A) (A) (A) (A) (A) (A)
                 (A) (A) (A) (A) (A) (A) (A) (A) (A) (A) (A) (A)
                 (A) (A) (A) (A) (A) (A) (A) (A) (A) (A) (A) (A)
                 (A) (A) (A) (A) (A) (A) (A) (A) (A) (A) (A) (A)
                 (A) (A) (A) (A) (A) (A)
 The electronic state is 1-A.
 Alpha  occ. eigenvalues --  -19.23347 -14.49256 -14.48457 -14.46728 -14.46087
 Alpha  occ. eigenvalues --  -14.45740 -14.43379 -14.42722 -10.41748 -10.40127
 Alpha  occ. eigenvalues --  -10.37599 -10.36338 -10.35289 -10.35028 -10.34637
 Alpha  occ. eigenvalues --  -10.34135 -10.34067 -10.33598 -10.32848 -10.32292
 Alpha  occ. eigenvalues --  -10.31856 -10.31038 -10.30996 -10.30955 -10.30710
 Alpha  occ. eigenvalues --  -10.30699 -10.30370 -10.30280 -10.30256 -10.30235
 Alpha  occ. eigenvalues --  -10.30232 -10.30117 -10.30111 -10.30033 -10.29533
 Alpha  occ. eigenvalues --  -10.28846 -10.28335  -1.13492  -1.12301  -1.06306
 Alpha  occ. eigenvalues --   -1.04558  -1.03602  -1.03553  -1.00718  -0.99258
 Alpha  occ. eigenvalues --   -0.96019  -0.94681  -0.93090  -0.89763  -0.88059
 Alpha  occ. eigenvalues --   -0.87362  -0.86237  -0.85108  -0.84471  -0.83761
 Alpha  occ. eigenvalues --   -0.81666  -0.79491  -0.78258  -0.77659  -0.76306
 Alpha  occ. eigenvalues --   -0.73858  -0.72955  -0.72946  -0.72598  -0.70813
 Alpha  occ. eigenvalues --   -0.70268  -0.69518  -0.67961  -0.66409  -0.65193
 Alpha  occ. eigenvalues --   -0.63616  -0.63255  -0.62260  -0.61800  -0.60197
 Alpha  occ. eigenvalues --   -0.58814  -0.57958  -0.57454  -0.56468  -0.56069
 Alpha  occ. eigenvalues --   -0.55802  -0.55145  -0.54950  -0.54630  -0.54225
 Alpha  occ. eigenvalues --   -0.53567  -0.53187  -0.52973  -0.52334  -0.52180
 Alpha  occ. eigenvalues --   -0.51854  -0.51495  -0.51333  -0.50900  -0.50593
 Alpha  occ. eigenvalues --   -0.50458  -0.50178  -0.49951  -0.49426  -0.48310
 Alpha  occ. eigenvalues --   -0.47275  -0.46728  -0.46452  -0.46285  -0.45987
 Alpha  occ. eigenvalues --   -0.45575  -0.44874  -0.44525  -0.43927  -0.43717
 Alpha  occ. eigenvalues --   -0.43438  -0.43047  -0.42064  -0.41690  -0.41204
 Alpha  occ. eigenvalues --   -0.40646  -0.40591  -0.39935  -0.38200  -0.37598
 Alpha  occ. eigenvalues --   -0.35782  -0.35283  -0.33997  -0.33447  -0.33339
 Alpha  occ. eigenvalues --   -0.32836  -0.31833  -0.30556  -0.29157  -0.27089
 Alpha  occ. eigenvalues --   -0.24671
 Alpha virt. eigenvalues --   -0.00297   0.02900   0.03363   0.04521   0.06516
 Alpha virt. eigenvalues --    0.07280   0.08337   0.10417   0.14541   0.14890
 Alpha virt. eigenvalues --    0.15956   0.16292   0.17361   0.17725   0.18683
 Alpha virt. eigenvalues --    0.19361   0.19722   0.20156   0.20582   0.21505
 Alpha virt. eigenvalues --    0.21980   0.22365   0.22423   0.22916   0.23321
 Alpha virt. eigenvalues --    0.23654   0.23831   0.24087   0.24516   0.24669
 Alpha virt. eigenvalues --    0.25002   0.25237   0.25956   0.26193   0.27003
 Alpha virt. eigenvalues --    0.27070   0.27383   0.27956   0.28075   0.28539
 Alpha virt. eigenvalues --    0.28747   0.29090   0.29468   0.29705   0.30182
 Alpha virt. eigenvalues --    0.31182   0.31222   0.32102   0.32260   0.32526
 Alpha virt. eigenvalues --    0.32740   0.33256   0.33638   0.34024   0.34343
 Alpha virt. eigenvalues --    0.34949   0.35070   0.36568   0.37936   0.38516
 Alpha virt. eigenvalues --    0.38573   0.38652   0.39486   0.40165   0.41056
 Alpha virt. eigenvalues --    0.41397   0.41617   0.41976   0.42174   0.42841
 Alpha virt. eigenvalues --    0.43579   0.44974   0.46059   0.47109   0.47484
 Alpha virt. eigenvalues --    0.48314   0.49565   0.52103   0.52919   0.54242
 Alpha virt. eigenvalues --    0.55851   0.56626   0.57566   0.58261   0.58623
 Alpha virt. eigenvalues --    0.59264   0.59419   0.60000   0.60795   0.61111
 Alpha virt. eigenvalues --    0.61378   0.61760   0.62111   0.62413   0.62713
 Alpha virt. eigenvalues --    0.63357   0.63395   0.64118   0.64239   0.64773
 Alpha virt. eigenvalues --    0.65030   0.65311   0.65435   0.65636   0.65835
 Alpha virt. eigenvalues --    0.65949   0.66464   0.66870   0.66957   0.67199
 Alpha virt. eigenvalues --    0.67415   0.67952   0.68577   0.68677   0.69553
 Alpha virt. eigenvalues --    0.69852   0.70553   0.70734   0.70831   0.71089
 Alpha virt. eigenvalues --    0.71452   0.71543   0.72518   0.72850   0.72999
 Alpha virt. eigenvalues --    0.73228   0.73280   0.73560   0.74928   0.75470
 Alpha virt. eigenvalues --    0.75659   0.75862   0.76052   0.76679   0.77315
 Alpha virt. eigenvalues --    0.77631   0.79202   0.80262   0.80548   0.81745
 Alpha virt. eigenvalues --    0.81927   0.82293   0.83166   0.83679   0.84191
 Alpha virt. eigenvalues --    0.84411   0.85427   0.86096   0.86918   0.87592
 Alpha virt. eigenvalues --    0.88180   0.88817   0.89606   0.90401   0.90696
 Alpha virt. eigenvalues --    0.90998   0.91224   0.91610   0.92237   0.92318
 Alpha virt. eigenvalues --    0.92623   0.92763   0.92886   0.93588   0.93937
 Alpha virt. eigenvalues --    0.94070   0.94413   0.94461   0.95021   0.95351
 Alpha virt. eigenvalues --    0.95614   0.96584   0.97178   0.97914   0.98147
 Alpha virt. eigenvalues --    0.98395   0.98535   0.98762   0.99155   0.99538
 Alpha virt. eigenvalues --    0.99933   1.00540   1.01065   1.01317   1.01668
 Alpha virt. eigenvalues --    1.02499   1.02774   1.03313   1.04210   1.04604
 Alpha virt. eigenvalues --    1.05436   1.05628   1.06789   1.06982   1.07421
 Alpha virt. eigenvalues --    1.07706   1.08222   1.08626   1.08867   1.09079
 Alpha virt. eigenvalues --    1.09215   1.09916   1.10383   1.11492   1.11949
 Alpha virt. eigenvalues --    1.12206   1.12492   1.14109   1.14761   1.16010
 Alpha virt. eigenvalues --    1.16479   1.17091   1.17197   1.17665   1.19097
 Alpha virt. eigenvalues --    1.19856   1.21701   1.22479   1.23649   1.24340
 Alpha virt. eigenvalues --    1.24558   1.25417   1.25922   1.27341   1.27613
 Alpha virt. eigenvalues --    1.28781   1.29182   1.29668   1.30351   1.31115
 Alpha virt. eigenvalues --    1.31615   1.32974   1.33716   1.33998   1.34624
 Alpha virt. eigenvalues --    1.35731   1.36884   1.37303   1.37958   1.38186
 Alpha virt. eigenvalues --    1.39342   1.42558   1.43130   1.43538   1.44554
 Alpha virt. eigenvalues --    1.46024   1.47073   1.47629   1.48381   1.48810
 Alpha virt. eigenvalues --    1.48981   1.49019   1.49256   1.50552   1.50979
 Alpha virt. eigenvalues --    1.52359   1.52681   1.53559   1.54128   1.54887
 Alpha virt. eigenvalues --    1.55091   1.55534   1.56262   1.56621   1.56637
 Alpha virt. eigenvalues --    1.57527   1.57692   1.58123   1.59017   1.59598
 Alpha virt. eigenvalues --    1.59845   1.59910   1.61339   1.61644   1.63046
 Alpha virt. eigenvalues --    1.63414   1.64698   1.65262   1.65470   1.67098
 Alpha virt. eigenvalues --    1.68296   1.69665   1.71862   1.74777   1.76088
 Alpha virt. eigenvalues --    1.78526   1.80471   1.81623   1.82640   1.84557
 Alpha virt. eigenvalues --    1.84901   1.85722   1.86499   1.86601   1.87573
 Alpha virt. eigenvalues --    1.87734   1.88756   1.89521   1.90477   1.90787
 Alpha virt. eigenvalues --    1.91317   1.92226   1.92662   1.93530   1.94458
 Alpha virt. eigenvalues --    1.94845   1.95022   1.95519   1.96782   1.97924
 Alpha virt. eigenvalues --    1.99197   1.99881   2.00406   2.00663   2.01002
 Alpha virt. eigenvalues --    2.01301   2.01751   2.01947   2.02952   2.03623
 Alpha virt. eigenvalues --    2.05086   2.06289   2.06993   2.07210   2.08258
 Alpha virt. eigenvalues --    2.08764   2.09001   2.09937   2.10702   2.11438
 Alpha virt. eigenvalues --    2.12250   2.12752   2.13634   2.13919   2.14842
 Alpha virt. eigenvalues --    2.15769   2.16386   2.17838   2.19562   2.20402
 Alpha virt. eigenvalues --    2.20885   2.21343   2.21783   2.22323   2.22680
 Alpha virt. eigenvalues --    2.23203   2.23791   2.24136   2.24438   2.25226
 Alpha virt. eigenvalues --    2.26005   2.26153   2.26833   2.27201   2.27941
 Alpha virt. eigenvalues --    2.28256   2.29279   2.29635   2.31534   2.32538
 Alpha virt. eigenvalues --    2.33945   2.34979   2.35976   2.36982   2.37396
 Alpha virt. eigenvalues --    2.37761   2.37999   2.38520   2.39797   2.39951
 Alpha virt. eigenvalues --    2.40399   2.41080   2.42071   2.42289   2.43354
 Alpha virt. eigenvalues --    2.43794   2.44241   2.44486   2.44896   2.45556
 Alpha virt. eigenvalues --    2.46250   2.47927   2.48842   2.48976   2.49699
 Alpha virt. eigenvalues --    2.50388   2.50580   2.52250   2.53798   2.56551
 Alpha virt. eigenvalues --    2.58596   2.60151   2.61244   2.61820   2.62619
 Alpha virt. eigenvalues --    2.64462   2.64761   2.65798   2.66355   2.67911
 Alpha virt. eigenvalues --    2.69188   2.69977   2.71577   2.72014   2.72460
 Alpha virt. eigenvalues --    2.73964   2.74490   2.75285   2.75929   2.76327
 Alpha virt. eigenvalues --    2.76969   2.77847   2.79371   2.81346   2.81692
 Alpha virt. eigenvalues --    2.82751   2.83163   2.83785   2.84512   2.85877
 Alpha virt. eigenvalues --    2.86145   2.86689   2.87455   2.88625   2.88939
 Alpha virt. eigenvalues --    2.89726   2.91760   2.92839   2.93520   2.94450
 Alpha virt. eigenvalues --    2.94822   2.96229   2.97921   3.01893   3.02914
 Alpha virt. eigenvalues --    3.04390   3.06707   3.08981   3.10050   3.11847
 Alpha virt. eigenvalues --    3.18880   3.27329   3.29291   3.39155   3.41490
 Alpha virt. eigenvalues --    3.44891   3.53692   3.56415   3.57635   4.12860
 Alpha virt. eigenvalues --    4.13478   4.15044   4.17318   4.18142   4.18495
 Alpha virt. eigenvalues --    4.19446   4.20637   4.22064   4.22902   4.25466
 Alpha virt. eigenvalues --    4.26200   4.27343   4.27630   4.30662   4.31818
 Alpha virt. eigenvalues --    4.33509   4.34299   4.36695   4.40194   4.40509
 Alpha virt. eigenvalues --    4.41723   4.44404   4.46302   4.48225   4.49269
 Alpha virt. eigenvalues --    4.49822   4.52907   4.56906   4.60657   4.61894
 Alpha virt. eigenvalues --    4.64068   4.68057   4.68788   4.79006   4.84809
 Alpha virt. eigenvalues --    4.89591
          Condensed to atoms (all electrons):
 Mulliken atomic charges:
              1
     1  C   -0.197805
     2  C   -0.155246
     3  C    0.035191
     4  C    0.006866
     5  N   -0.435289
     6  C    0.031069
     7  C    0.295592
     8  C   -0.255122
     9  C    0.048869
    10  N   -0.492953
    11  C    0.712266
    12  N   -0.567559
    13  N   -0.800039
    14  C    0.290076
    15  C    0.119870
    16  C   -0.240162
    17  C   -0.189958
    18  C    0.357115
    19  C   -0.267477
    20  N   -0.767234
    21  C    0.599422
    22  C    0.016453
    23  C   -0.176853
    24  C   -0.223306
    25  C    0.159707
    26  C   -0.228604
    27  C   -0.208126
    28  C   -0.262968
    29  N   -0.380704
    30  C   -0.186277
    31  C   -0.183431
    32  N   -0.383584
    33  C   -0.349526
    34  C   -0.182817
    35  C   -0.184775
    36  O   -0.516469
    37  C   -0.608197
    38  H    0.186489
    39  H    0.186331
    40  H    0.201313
    41  H    0.181243
    42  H    0.180750
    43  H    0.189377
    44  H    0.369157
    45  H    0.160915
    46  H    0.215609
    47  H    0.195941
    48  H    0.359664
    49  H    0.198334
    50  H    0.163886
    51  H    0.166919
    52  H    0.188287
    53  H    0.168952
    54  H    0.166648
    55  H    0.152158
    56  H    0.159069
    57  H    0.153104
    58  H    0.173785
    59  H    0.133783
    60  H    0.167294
    61  H    0.166559
    62  H    0.152230
    63  H    0.173961
    64  H    0.158552
    65  H    0.149561
    66  H    0.177714
    67  H    0.183641
    68  H    0.190756
 Sum of Mulliken atomic charges =   0.00000
 Mulliken charges with hydrogens summed into heavy atoms:
              1
     1  C   -0.011316
     2  C    0.031086
     3  C    0.035191
     4  C    0.208179
     5  N   -0.435289
     6  C    0.212312
     7  C    0.295592
     8  C   -0.074371
     9  C    0.238246
    10  N   -0.492953
    11  C    0.712266
    12  N   -0.567559
    13  N   -0.430882
    14  C    0.290076
    15  C    0.119870
    16  C   -0.079246
    17  C    0.025652
    18  C    0.357115
    19  C   -0.071537
    20  N   -0.407569
    21  C    0.599422
    22  C    0.016453
    23  C    0.021480
    24  C   -0.059420
    25  C    0.159707
    26  C   -0.061685
    27  C   -0.019839
    28  C    0.072632
    29  N   -0.380704
    30  C    0.124950
    31  C    0.143457
    32  N   -0.383584
    33  C    0.118109
    34  C    0.143374
    35  C    0.123338
    36  O   -0.516469
    37  C   -0.056085
 Sum of Mulliken charges with hydrogens summed into heavy atoms =   0.00000
 Electronic spatial extent (au):  <R**2>=          25097.8218
 Charge=              0.0000 electrons
 Dipole moment (field-independent basis, Debye):
    X=             -2.5381    Y=              6.1216    Z=             -1.0843  Tot=              6.7150
 Quadrupole moment (field-independent basis, Debye-Ang):
   XX=           -189.8159   YY=           -196.2288   ZZ=           -219.0752
   XY=             -6.1419   XZ=             -5.5454   YZ=             -1.6446
 Traceless Quadrupole moment (field-independent basis, Debye-Ang):
   XX=             11.8907   YY=              5.4778   ZZ=            -17.3686
   XY=             -6.1419   XZ=             -5.5454   YZ=             -1.6446
 Octapole moment (field-independent basis, Debye-Ang**2):
  XXX=            -41.8878  YYY=            146.4596  ZZZ=              3.1556  XYY=            -99.6775
  XXY=            -12.1655  XXZ=             27.3552  XZZ=             15.7196  YZZ=              0.4174
  YYZ=             -9.0186  XYZ=             35.9522
 Hexadecapole moment (field-independent basis, Debye-Ang**3):
 XXXX=         -23941.1243 YYYY=          -7062.9100 ZZZZ=          -1498.7633 XXXY=           -370.1816
 XXXZ=             36.2985 YYYX=           -144.7353 YYYZ=           -178.2987 ZZZX=              7.6226
 ZZZY=             26.0121 XXYY=          -4801.3001 XXZZ=          -4420.8660 YYZZ=          -1555.3900
 XXYZ=             90.3757 YYXZ=            -59.2078 ZZXY=             14.1654
 N-N= 3.775531316183D+03 E-N=-1.122284792759D+04  KE= 1.567146747949D+03
 No NMR shielding tensors so no spin-rotation constants.
 Leave Link  601 at Wed Apr  8 23:36:31 2020, MaxMem= 2684354560 cpu:       2.9
 (Enter /opt/g09gh/gaussian/g09/l9999.exe)
 1\1\GINC-NODE60\FOpt\RwB97XD\6-31G(d)\C29H31N7O1\BDW2292\08-Apr-2020\0
 \\#P opt=(,maxcycle=400) wB97XD/6-31G* MaxDisk=100GB\\MOLECULE0 Rotata
 ble Bond Optimization on node37.bme.utexas.edu\\0,1\C,-5.6149428851,-8
 .3942131307,-0.4454364883\C,-4.5683999812,-9.2972273653,-0.3034698322\
 C,-3.3353844433,-8.836503964,0.1548038165\C,-3.228433147,-7.472653764,
 0.4584778227\N,-4.2191273439,-6.5940234126,0.3176359676\C,-5.388959576
 8,-7.0581101321,-0.1324167204\C,-2.1422988876,-9.7093789016,0.28688775
 86\C,-2.2012511265,-11.0897352157,0.4575220379\C,-0.9753319655,-11.749
 9888488,0.5324083145\N,0.198761845,-11.1369945413,0.465591446\C,0.1421
 145373,-9.7971868109,0.322833223\N,-0.9709644361,-9.0721042684,0.22157
 41918\N,1.3584040245,-9.1735205388,0.2795464894\C,1.6739273464,-7.8021
 341817,0.2419481582\C,2.9830495708,-7.4133477112,0.5907544934\C,3.2800
 019161,-6.0539619348,0.5718507571\C,2.3491535772,-5.0713938335,0.24261
 53095\C,1.0641746614,-5.479685924,-0.105408778\C,0.7431965086,-6.83729
 57657,-0.1278850219\N,0.0096368066,-4.6093572523,-0.4349671469\C,-0.05
 12323706,-3.2436326645,-0.3402393304\C,-1.417371386,-2.673383769,-0.60
 27400798\C,-1.4888087781,-1.3673600167,-1.0900876591\C,-2.7200622458,-
 0.7891147411,-1.3663946587\C,-3.9107200367,-1.4849653707,-1.1393874725
 \C,-3.8307239275,-2.7863152881,-0.6432138787\C,-2.6028423979,-3.376925
 4414,-0.3703681923\C,-5.2596496768,-0.8329067813,-1.4071031922\N,-5.89
 35642075,-0.0894482903,-0.3319603304\C,-5.2814618393,1.1734990172,0.06
 45179285\C,-4.2970978832,1.0449770485,1.2396054563\N,-4.8687725429,0.3
 492622063,2.3895211411\C,-5.8176799602,1.1464812881,3.1460101678\C,-5.
 3878659313,-0.9503055914,1.9725009985\C,-6.3888069489,-0.8510936539,0.
 8088245554\O,0.9081695421,-2.5329071529,-0.0873910075\C,4.0249672192,-
 8.4298665919,0.9834114894\H,-6.584878411,-8.7154962512,-0.8095010876\H
 ,-4.7048977315,-10.3402307824,-0.5745657483\H,-2.2868836308,-7.0871927
 676,0.8406403848\H,-6.181560742,-6.3227642971,-0.2496904413\H,-3.13507
 0476,-11.6310579741,0.5458499935\H,-0.9391692699,-12.8303362838,0.6572
 596965\H,2.1253428394,-9.8173788068,0.4036031852\H,4.2863885403,-5.741
 681094,0.8391420893\H,2.6058587809,-4.02182618,0.2588236649\H,-0.25226
 09799,-7.1492641262,-0.4061212897\H,-0.8329926615,-5.0702076305,-0.743
 7571852\H,-0.5647197508,-0.8223124953,-1.2531656269\H,-2.7604165425,0.
 2222469514,-1.7648103147\H,-4.7386489974,-3.3544495852,-0.4548101558\H
 ,-2.6049448487,-4.3791474954,0.0509299248\H,-5.1528860055,-0.145925799
 9,-2.2559859201\H,-5.9667877784,-1.6110218853,-1.7216487389\H,-4.77969
 79179,1.612539319,-0.8053680834\H,-6.088632854,1.8663722115,0.34608708
 72\H,-3.9625899497,2.0393318308,1.5592225754\H,-3.4105554512,0.4847717
 868,0.9202173482\H,-6.7304278919,1.4449678283,2.6005509268\H,-5.321773
 5451,2.0613683219,3.4883085384\H,-6.1303088797,0.5838854232,4.03260474
 11\H,-5.861759926,-1.4355965619,2.8344026341\H,-4.5333062273,-1.568688
 7611,1.6746122753\H,-7.3077551856,-0.3633961432,1.1671588116\H,-6.6758
 469796,-1.8523564064,0.4677487287\H,4.2442869835,-9.1364108109,0.17112
 49412\H,3.7165494196,-9.0153324295,1.8592448426\H,4.9663384404,-7.9361
 828143,1.2375174683\\Version=EM64L-G09RevA.02\State=1-A\HF=-1581.76163
 41\RMSD=8.383e-09\RMSF=4.739e-06\Dipole=-1.5966638,-2.0595479,-0.43419
 91\Quadrupole=1.4116481,11.6946706,-13.1063187,0.1366686,2.8770044,-2.
 5547456\PG=C01 [X(C29H31N7O1)]\\@


 I DON'T PRETEND TO UNDERSTAND THE UNIVERSE --
 IT'S A GREAT DEAL BIGGER THAN I AM.
       -- ATTR. TO WILLIAM ALLINGHAM (1828-89)
 Job cpu time:  0 days  7 hours 13 minutes 56.4 seconds.
 File lengths (MBytes):  RWF=    244 Int=      0 D2E=      0 Chk=     25 Scr=      1
 Normal termination of Gaussian 09 at Wed Apr  8 23:36:32 2020.
