
    -----------------------------------------------------------------------
          Psi4: An Open-Source Ab Initio Electronic Structure Package
                               Psi4 1.3.2 release

                         Git: Rev {HEAD} ecbda83 


    R. M. Parrish, L. A. Burns, D. G. A. Smith, A. C. Simmonett,
    A. E. DePrince III, E. G. Hohenstein, U. Bozkaya, A. Yu. Sokolov,
    R. Di Remigio, R. M. Richard, J. F. Gonthier, A. M. James,
    H. R. McAlexander, A. Kumar, M. Saitow, X. Wang, B. P. Pritchard,
    P. Verma, H. F. Schaefer III, K. Patkowski, R. A. King, E. F. Valeev,
    F. A. Evangelista, J. M. Turney, T. D. Crawford, and C. D. Sherrill,
    J. Chem. Theory Comput. 13(7) pp 3185--3197 (2017).
    (doi: 10.1021/acs.jctc.7b00174)


                         Additional Contributions by
    P. Kraus, H. Kruse, M. H. Lechner, M. C. Schieber, R. A. Shaw,
    A. Alenaizan, R. Galvelis, Z. L. Glick, S. Lehtola, and J. P. Misiewicz

    -----------------------------------------------------------------------


    Psi4 started on: Tuesday, 10 March 2020 10:19AM

    Process ID: 67456
    Host:       node35.bme.utexas.edu
    PSIDATADIR: /home/bdw2292/miniconda3/envs/p4env/share/psi4
    Memory:     500.0 MiB
    Threads:    1
    
  ==> Input File <==

--------------------------------------------------------------------------
molecule { 
0 1
 C   -3.006074    5.364440    0.161227
 C   -4.063691    4.452442    0.052520
 C   -3.809606    3.064427    0.056223
 C   -2.449431    2.689396    0.180445
 N   -1.425795    3.550566    0.291760
 C   -1.708008    4.859877    0.278035
 C   -4.903323    2.025341   -0.033026
 C   -6.274363    2.336918   -0.079962
 C   -7.150632    1.249587   -0.095956
 N   -6.765990   -0.020760   -0.071836
 C   -5.431845   -0.232678   -0.045323
 N   -4.508118    0.732753   -0.032576
 N   -5.087292   -1.577022   -0.023306
 C   -3.855850   -2.310963    0.084953
 C   -3.913985   -3.669987    0.520250
 C   -2.693067   -4.348343    0.646681
 C   -1.450208   -3.780864    0.348422
 C   -1.406894   -2.464254   -0.132054
 C   -2.613683   -1.749348   -0.234772
 N   -0.178078   -1.813478   -0.494061
 C    0.148499   -0.505501   -0.775259
 C    1.603878   -0.173874   -1.029430
 C    2.485880   -1.025233   -1.713464
 C    3.821974   -0.660389   -1.892697
 C    4.317316    0.568368   -1.416420
 C    3.413314    1.425934   -0.760746
 C    2.075408    1.070062   -0.576379
 C    5.790486    0.944119   -1.581718
 N    6.751991    0.526422   -0.545149
 C    7.114879   -0.905213   -0.443180
 C    6.289601   -1.710152    0.593988
 N    6.262658   -1.116154    1.950416
 C    7.418133   -1.389518    2.812148
 C    5.846852    0.301268    1.835725
 C    6.653531    1.131457    0.803520
 O   -0.673403    0.393291   -0.795043
 C   -5.203174   -4.386082    0.887450
 H   -3.181590    6.436078    0.158758
 H   -5.069957    4.854495   -0.034664
 H   -2.185096    1.639553    0.197368
 H   -0.854634    5.530061    0.367558
 H   -6.670553    3.344576   -0.075590
 H   -8.228098    1.411253   -0.117986
 H   -5.933300   -2.125221    0.018038
 H   -2.692938   -5.379094    0.999472
 H   -0.541376   -4.360139    0.464060
 H   -2.600069   -0.725936   -0.578092
 H    0.587946   -2.472348   -0.485801
 H    2.122336   -1.974080   -2.100341
 H    4.487603   -1.349525   -2.412966
 H    3.753337    2.388083   -0.378500
 H    1.379436    1.740820   -0.075745
 H    6.150056    0.535323   -2.537666
 H    5.863219    2.038533   -1.661102
 H    7.116265   -1.369297   -1.414999
 H    8.601621   -0.958817    0.079714
 H    6.859692   -3.042840    0.680480
 H    5.069488   -1.821593    0.193029
 H    8.329208   -0.936341    2.405551
 H    7.572311   -2.470521    2.905283
 H    7.243100   -0.988570    3.817150
 H    5.950198    0.904585    3.075118
 H    4.472908    0.308546    1.451126
 H    8.128687    1.188645    1.384272
 H    6.316014    2.135905    0.741171
 H   -5.868336   -4.484851    0.017893
 H   -5.757011   -3.843630    1.666767
 H   -5.036484   -5.401677    1.272209
}
memory 20GB
set_num_threads(6)
psi4_io.set_default_path("/scratch/bdw2292")
set freeze_core True
E, wfn = energy('mp2/6-311++G**',return_wfn=True)
oeprop(wfn,"WIBERG_LOWDIN_INDICES")
clean()
--------------------------------------------------------------------------

  Memory set to  18.626 GiB by Python driver.
  Threads set to 6 by Python driver.
    SCF Algorithm Type (re)set to DF.

*** tstart() called on node35.bme.utexas.edu
*** at Tue Mar 10 10:19:21 2020

   => Loading Basis Set <=

    Name: 6-311++G**
    Role: ORBITAL
    Keyword: BASIS
    atoms 1-4, 6-9, 11, 14-19, 21-28, 30-31, 33-35, 37 entry C          line   119 file /home/bdw2292/miniconda3/envs/p4env/share/psi4/basis/6-311ppgss.gbs 
    atoms 5, 10, 12-13, 20, 29, 32                     entry N          line   140 file /home/bdw2292/miniconda3/envs/p4env/share/psi4/basis/6-311ppgss.gbs 
    atoms 36                                           entry O          line   161 file /home/bdw2292/miniconda3/envs/p4env/share/psi4/basis/6-311ppgss.gbs 
    atoms 38-68                                        entry H          line    42 file /home/bdw2292/miniconda3/envs/p4env/share/psi4/basis/6-311ppgss.gbs 


         ---------------------------------------------------------
                                   SCF
               by Justin Turney, Rob Parrish, Andy Simmonett
                          and Daniel G. A. Smith
                              RHF Reference
                        6 Threads,  19073 MiB Core
         ---------------------------------------------------------

  ==> Geometry <==

    Molecular point group: c1
    Full point group: C1

    Geometry (in Angstrom), charge = 0, multiplicity = 1:

       Center              X                  Y                   Z               Mass       
    ------------   -----------------  -----------------  -----------------  -----------------
         C           -2.864556342186     5.309745498164     0.173685913897    12.000000000000
         C           -3.922173342186     4.397747498164     0.064978913897    12.000000000000
         C           -3.668088342186     3.009732498164     0.068681913897    12.000000000000
         C           -2.307913342186     2.634701498164     0.192903913897    12.000000000000
         N           -1.284277342186     3.495871498164     0.304218913897    14.003074004430
         C           -1.566490342186     4.805182498164     0.290493913897    12.000000000000
         C           -4.761805342186     1.970646498164    -0.020567086103    12.000000000000
         C           -6.132845342186     2.282223498164    -0.067503086103    12.000000000000
         C           -7.009114342186     1.194892498164    -0.083497086103    12.000000000000
         N           -6.624472342186    -0.075454501836    -0.059377086103    14.003074004430
         C           -5.290327342186    -0.287372501836    -0.032864086103    12.000000000000
         N           -4.366600342186     0.678058498164    -0.020117086103    14.003074004430
         N           -4.945774342186    -1.631716501836    -0.010847086103    14.003074004430
         C           -3.714332342186    -2.365657501836     0.097411913897    12.000000000000
         C           -3.772467342186    -3.724681501836     0.532708913897    12.000000000000
         C           -2.551549342186    -4.403037501836     0.659139913897    12.000000000000
         C           -1.308690342186    -3.835558501836     0.360880913897    12.000000000000
         C           -1.265376342186    -2.518948501836    -0.119595086103    12.000000000000
         C           -2.472165342186    -1.804042501836    -0.222313086103    12.000000000000
         N           -0.036560342186    -1.868172501836    -0.481602086103    14.003074004430
         C            0.290016657814    -0.560195501836    -0.762800086103    12.000000000000
         C            1.745395657814    -0.228568501836    -1.016971086103    12.000000000000
         C            2.627397657814    -1.079927501836    -1.701005086103    12.000000000000
         C            3.963491657814    -0.715083501836    -1.880238086103    12.000000000000
         C            4.458833657814     0.513673498164    -1.403961086103    12.000000000000
         C            3.554831657814     1.371239498164    -0.748287086103    12.000000000000
         C            2.216925657814     1.015367498164    -0.563920086103    12.000000000000
         C            5.932003657814     0.889424498164    -1.569259086103    12.000000000000
         N            6.893508657814     0.471727498164    -0.532690086103    14.003074004430
         C            7.256396657814    -0.959907501836    -0.430721086103    12.000000000000
         C            6.431118657814    -1.764846501836     0.606446913897    12.000000000000
         N            6.404175657814    -1.170848501836     1.962874913897    14.003074004430
         C            7.559650657814    -1.444212501836     2.824606913897    12.000000000000
         C            5.988369657814     0.246573498164     1.848183913897    12.000000000000
         C            6.795048657814     1.076762498164     0.815978913897    12.000000000000
         O           -0.531885342186     0.338596498164    -0.782584086103    15.994914619570
         C           -5.061656342186    -4.440776501836     0.899908913897    12.000000000000
         H           -3.040072342186     6.381383498164     0.171216913897     1.007825032230
         H           -4.928439342186     4.799800498164    -0.022205086103     1.007825032230
         H           -2.043578342186     1.584858498164     0.209826913897     1.007825032230
         H           -0.713116342186     5.475366498164     0.380016913897     1.007825032230
         H           -6.529035342186     3.289881498164    -0.063131086103     1.007825032230
         H           -8.086580342186     1.356558498164    -0.105527086103     1.007825032230
         H           -5.791782342186    -2.179915501836     0.030496913897     1.007825032230
         H           -2.551420342186    -5.433788501836     1.011930913897     1.007825032230
         H           -0.399858342186    -4.414833501836     0.476518913897     1.007825032230
         H           -2.458551342186    -0.780630501836    -0.565633086103     1.007825032230
         H            0.729463657814    -2.527042501836    -0.473342086103     1.007825032230
         H            2.263853657814    -2.028774501836    -2.087882086103     1.007825032230
         H            4.629120657814    -1.404219501836    -2.400507086103     1.007825032230
         H            3.894854657814     2.333388498164    -0.366041086103     1.007825032230
         H            1.520953657814     1.686125498164    -0.063286086103     1.007825032230
         H            6.291573657814     0.480628498164    -2.525207086103     1.007825032230
         H            6.004736657814     1.983838498164    -1.648643086103     1.007825032230
         H            7.257782657814    -1.423991501836    -1.402540086103     1.007825032230
         H            8.743138657814    -1.013511501836     0.092172913897     1.007825032230
         H            7.001209657814    -3.097534501836     0.692938913897     1.007825032230
         H            5.211005657814    -1.876287501836     0.205487913897     1.007825032230
         H            8.470725657814    -0.991035501836     2.418009913897     1.007825032230
         H            7.713828657814    -2.525215501836     2.917741913897     1.007825032230
         H            7.384617657814    -1.043264501836     3.829608913897     1.007825032230
         H            6.091715657814     0.849890498164     3.087576913897     1.007825032230
         H            4.614425657814     0.253851498164     1.463584913897     1.007825032230
         H            8.270204657814     1.133950498164     1.396730913897     1.007825032230
         H            6.457531657814     2.081210498164     0.753629913897     1.007825032230
         H           -5.726818342186    -4.539545501836     0.030351913897     1.007825032230
         H           -5.615493342186    -3.898324501836     1.679225913897     1.007825032230
         H           -4.894966342186    -5.456371501836     1.284667913897     1.007825032230

  Running in c1 symmetry.

  Rotational constants: A =      0.00503  B =      0.00154  C =      0.00126 [cm^-1]
  Rotational constants: A =    150.89639  B =     46.13630  C =     37.80576 [MHz]
  Nuclear repulsion = 3687.529849077979634

  Charge       = 0
  Multiplicity = 1
  Electrons    = 262
  Nalpha       = 131
  Nbeta        = 131

  ==> Algorithm <==

  SCF Algorithm Type is DF.
  DIIS enabled.
  MOM disabled.
  Fractional occupation disabled.
  Guess Type is SAD.
  Energy threshold   = 1.00e-08
  Density threshold  = 1.00e-08
  Integral threshold = 0.00e+00

  ==> Primary Basis <==

  Basis Set: 6-311++G**
    Blend: 6-311++G**
    Number of shells: 525
    Number of basis function: 1031
    Number of Cartesian functions: 1068
    Spherical Harmonics?: true
    Max angular momentum: 2

   => Loading Basis Set <=

    Name: (6-311++G** AUX)
    Role: JKFIT
    Keyword: DF_BASIS_SCF
    atoms 1-4, 6-9, 11, 14-19, 21-28, 30-31, 33-35, 37 entry C          line   162 file /home/bdw2292/miniconda3/envs/p4env/share/psi4/basis/aug-cc-pvtz-jkfit.gbs 
    atoms 5, 10, 12-13, 20, 29, 32                     entry N          line   224 file /home/bdw2292/miniconda3/envs/p4env/share/psi4/basis/aug-cc-pvtz-jkfit.gbs 
    atoms 36                                           entry O          line   286 file /home/bdw2292/miniconda3/envs/p4env/share/psi4/basis/aug-cc-pvtz-jkfit.gbs 
    atoms 38-68                                        entry H          line    70 file /home/bdw2292/miniconda3/envs/p4env/share/psi4/basis/aug-cc-pvtz-jkfit.gbs 

  ==> Pre-Iterations <==

   -------------------------------------------------------
    Irrep   Nso     Nmo     Nalpha   Nbeta   Ndocc  Nsocc
   -------------------------------------------------------
     A       1031    1031       0       0       0       0
   -------------------------------------------------------
    Total    1031    1031     131     131     131       0
   -------------------------------------------------------

  ==> Integral Setup <==

  ==> DiskDFJK: Density-Fitted J/K Matrices <==

    J tasked:                  Yes
    K tasked:                  Yes
    wK tasked:                  No
    OpenMP threads:              6
    Integrals threads:           6
    Memory [MiB]:            14305
    Algorithm:                Core
    Integral Cache:           NONE
    Schwarz Cutoff:          1E-12
    Fitting Condition:       1E-10

   => Auxiliary Basis Set <=

  Basis Set: (6-311++G** AUX)
    Blend: AUG-CC-PVTZ-JKFIT
    Number of shells: 1544
    Number of basis function: 5274
    Number of Cartesian functions: 6552
    Spherical Harmonics?: true
    Max angular momentum: 4

  Minimum eigenvalue in the overlap matrix is 6.1218862900E-08.
  Using Canonical Orthogonalization with cutoff of 1.0000000000E-07.
  Overall, 1 of 1031 possible MOs eliminated.

  SCF Guess: Superposition of Atomic Densities via on-the-fly atomic UHF.

  ==> Iterations <==

                           Total Energy        Delta E     RMS |[F,P]|

   @DF-RHF iter SAD: -1571.14309432717459   -1.57114e+03   0.00000e+00 
   @DF-RHF iter   1: -1571.30170829544659   -1.58614e-01   1.21988e-03 DIIS
   @DF-RHF iter   2: -1572.07163538900249   -7.69927e-01   6.55599e-04 DIIS
   @DF-RHF iter   3: -1572.27560391069096   -2.03969e-01   1.69859e-04 DIIS
   @DF-RHF iter   4: -1572.29367620293237   -1.80723e-02   6.70715e-05 DIIS
   @DF-RHF iter   5: -1572.29642756712133   -2.75136e-03   1.33198e-05 DIIS
   @DF-RHF iter   6: -1572.29658713286744   -1.59566e-04   6.03596e-06 DIIS
   @DF-RHF iter   7: -1572.29662436866488   -3.72358e-05   2.03153e-06 DIIS
   @DF-RHF iter   8: -1572.29663057878565   -6.21012e-06   8.04570e-07 DIIS
   @DF-RHF iter   9: -1572.29663164451290   -1.06573e-06   3.40006e-07 DIIS
   @DF-RHF iter  10: -1572.29663188111977   -2.36607e-07   1.62581e-07 DIIS
   @DF-RHF iter  11: -1572.29663193739407   -5.62743e-08   7.80257e-08 DIIS
   @DF-RHF iter  12: -1572.29663195140211   -1.40080e-08   3.21607e-08 DIIS
   @DF-RHF iter  13: -1572.29663195415833   -2.75622e-09   1.30748e-08 DIIS
   @DF-RHF iter  14: -1572.29663195433318   -1.74850e-10   6.16974e-09 DIIS
  Energy and wave function converged.


  ==> Post-Iterations <==

    Orbital Energies [Eh]
    ---------------------

    Doubly Occupied:                                                      

       1A    -20.525896     2A    -15.608588     3A    -15.594416  
       4A    -15.576124     5A    -15.560985     6A    -15.560219  
       7A    -15.559417     8A    -15.557416     9A    -11.372182  
      10A    -11.364007    11A    -11.320897    12A    -11.320503  
      13A    -11.316314    14A    -11.309336    15A    -11.308841  
      16A    -11.300165    17A    -11.297572    18A    -11.297365  
      19A    -11.284491    20A    -11.279529    21A    -11.270262  
      22A    -11.268967    23A    -11.263799    24A    -11.262869  
      25A    -11.262497    26A    -11.256900    27A    -11.254180  
      28A    -11.253129    29A    -11.250536    30A    -11.247364  
      31A    -11.244898    32A    -11.244016    33A    -11.243518  
      34A    -11.237684    35A    -11.237616    36A    -11.235456  
      37A    -11.222756    38A     -1.395355    39A     -1.331829  
      40A     -1.253851    41A     -1.251823    42A     -1.250186  
      43A     -1.234108    44A     -1.203979    45A     -1.195099  
      46A     -1.167897    47A     -1.139656    48A     -1.096653  
      49A     -1.066463    50A     -1.058513    51A     -1.039188  
      52A     -1.030390    53A     -1.028983    54A     -1.005049  
      55A     -1.000147    56A     -0.981174    57A     -0.947058  
      58A     -0.929774    59A     -0.908451    60A     -0.892922  
      61A     -0.870266    62A     -0.854754    63A     -0.847853  
      64A     -0.842844    65A     -0.834486    66A     -0.832861  
      67A     -0.819036    68A     -0.807756    69A     -0.783824  
      70A     -0.750770    71A     -0.731072    72A     -0.727025  
      73A     -0.707243    74A     -0.706303    75A     -0.690978  
      76A     -0.682828    77A     -0.670884    78A     -0.663946  
      79A     -0.654279    80A     -0.652112    81A     -0.648212  
      82A     -0.642582    83A     -0.638143    84A     -0.630860  
      85A     -0.624294    86A     -0.616771    87A     -0.608361  
      88A     -0.607329    89A     -0.601998    90A     -0.597114  
      91A     -0.592600    92A     -0.588987    93A     -0.584973  
      94A     -0.582904    95A     -0.580644    96A     -0.579588  
      97A     -0.577551    98A     -0.568711    99A     -0.561157  
     100A     -0.549793   101A     -0.542830   102A     -0.539193  
     103A     -0.532999   104A     -0.526358   105A     -0.521083  
     106A     -0.520658   107A     -0.514770   108A     -0.511328  
     109A     -0.508734   110A     -0.503856   111A     -0.502491  
     112A     -0.498808   113A     -0.480646   114A     -0.477276  
     115A     -0.445515   116A     -0.438095   117A     -0.434309  
     118A     -0.427417   119A     -0.426117   120A     -0.418145  
     121A     -0.397287   122A     -0.395035   123A     -0.384375  
     124A     -0.381040   125A     -0.361007   126A     -0.352145  
     127A     -0.347174   128A     -0.328547   129A     -0.315948  
     130A     -0.310988   131A     -0.289285  

    Virtual:                                                              

     132A      0.033012   133A      0.035719   134A      0.039087  
     135A      0.043264   136A      0.044399   137A      0.047737  
     138A      0.050523   139A      0.055954   140A      0.058931  
     141A      0.060314   142A      0.064272   143A      0.066208  
     144A      0.067368   145A      0.067977   146A      0.072207  
     147A      0.073316   148A      0.076990   149A      0.080517  
     150A      0.083934   151A      0.087733   152A      0.088222  
     153A      0.090371   154A      0.092725   155A      0.094966  
     156A      0.095436   157A      0.100844   158A      0.104571  
     159A      0.105778   160A      0.108631   161A      0.109270  
     162A      0.113492   163A      0.114296   164A      0.118752  
     165A      0.119203   166A      0.120793   167A      0.121216  
     168A      0.123635   169A      0.126111   170A      0.129231  
     171A      0.133481   172A      0.134946   173A      0.137737  
     174A      0.141885   175A      0.146199   176A      0.146637  
     177A      0.149102   178A      0.155196   179A      0.156677  
     180A      0.156952   181A      0.159360   182A      0.160515  
     183A      0.161592   184A      0.162634   185A      0.164219  
     186A      0.167830   187A      0.169150   188A      0.170610  
     189A      0.173325   190A      0.173577   191A      0.175941  
     192A      0.177704   193A      0.179042   194A      0.180592  
     195A      0.182287   196A      0.185726   197A      0.187838  
     198A      0.188591   199A      0.189819   200A      0.191742  
     201A      0.191817   202A      0.193992   203A      0.196111  
     204A      0.197858   205A      0.199357   206A      0.203393  
     207A      0.205471   208A      0.205734   209A      0.207341  
     210A      0.208852   211A      0.211154   212A      0.213293  
     213A      0.213957   214A      0.215559   215A      0.216672  
     216A      0.217480   217A      0.220384   218A      0.222434  
     219A      0.223528   220A      0.225884   221A      0.227054  
     222A      0.228984   223A      0.230423   224A      0.231871  
     225A      0.235998   226A      0.236190   227A      0.238631  
     228A      0.242366   229A      0.244742   230A      0.245449  
     231A      0.247791   232A      0.250205   233A      0.252106  
     234A      0.253547   235A      0.256037   236A      0.258383  
     237A      0.260355   238A      0.262432   239A      0.263947  
     240A      0.267299   241A      0.268644   242A      0.271948  
     243A      0.276184   244A      0.277952   245A      0.280714  
     246A      0.283633   247A      0.285174   248A      0.285413  
     249A      0.289039   250A      0.290936   251A      0.295401  
     252A      0.297914   253A      0.299278   254A      0.302342  
     255A      0.304350   256A      0.308195   257A      0.310394  
     258A      0.312624   259A      0.314608   260A      0.316874  
     261A      0.319651   262A      0.322001   263A      0.323494  
     264A      0.324745   265A      0.328804   266A      0.329677  
     267A      0.331516   268A      0.334760   269A      0.336985  
     270A      0.337851   271A      0.339672   272A      0.343472  
     273A      0.344122   274A      0.347202   275A      0.349217  
     276A      0.350545   277A      0.353292   278A      0.355719  
     279A      0.358396   280A      0.359664   281A      0.361322  
     282A      0.361504   283A      0.365180   284A      0.369014  
     285A      0.370855   286A      0.372397   287A      0.373362  
     288A      0.374473   289A      0.376823   290A      0.378552  
     291A      0.381040   292A      0.382712   293A      0.384984  
     294A      0.386218   295A      0.388643   296A      0.389839  
     297A      0.392202   298A      0.393097   299A      0.394006  
     300A      0.396091   301A      0.397112   302A      0.399485  
     303A      0.400490   304A      0.401430   305A      0.404202  
     306A      0.405107   307A      0.408571   308A      0.409195  
     309A      0.410702   310A      0.411825   311A      0.414813  
     312A      0.415602   313A      0.416636   314A      0.421813  
     315A      0.424989   316A      0.425637   317A      0.426657  
     318A      0.429344   319A      0.430083   320A      0.434049  
     321A      0.435429   322A      0.437377   323A      0.439716  
     324A      0.440357   325A      0.442478   326A      0.445260  
     327A      0.447318   328A      0.448405   329A      0.450740  
     330A      0.452336   331A      0.455633   332A      0.456915  
     333A      0.461421   334A      0.463345   335A      0.464558  
     336A      0.467021   337A      0.468083   338A      0.472678  
     339A      0.474472   340A      0.477392   341A      0.478750  
     342A      0.481734   343A      0.485823   344A      0.487685  
     345A      0.488121   346A      0.490337   347A      0.495952  
     348A      0.500566   349A      0.501179   350A      0.506114  
     351A      0.507989   352A      0.510754   353A      0.512016  
     354A      0.516258   355A      0.518789   356A      0.521193  
     357A      0.526348   358A      0.530440   359A      0.532410  
     360A      0.535467   361A      0.536859   362A      0.540812  
     363A      0.543898   364A      0.548584   365A      0.550089  
     366A      0.552026   367A      0.562442   368A      0.566948  
     369A      0.567743   370A      0.576598   371A      0.578833  
     372A      0.582137   373A      0.587331   374A      0.593944  
     375A      0.596369   376A      0.603810   377A      0.607553  
     378A      0.612929   379A      0.614026   380A      0.619029  
     381A      0.626402   382A      0.630440   383A      0.634156  
     384A      0.643611   385A      0.650005   386A      0.656600  
     387A      0.664987   388A      0.678611   389A      0.685478  
     390A      0.695542   391A      0.699734   392A      0.701705  
     393A      0.708826   394A      0.711629   395A      0.718236  
     396A      0.724195   397A      0.731013   398A      0.733268  
     399A      0.737350   400A      0.740936   401A      0.742356  
     402A      0.744931   403A      0.749884   404A      0.755229  
     405A      0.757855   406A      0.760899   407A      0.768469  
     408A      0.771104   409A      0.774423   410A      0.775991  
     411A      0.779519   412A      0.781270   413A      0.782805  
     414A      0.785826   415A      0.789366   416A      0.794937  
     417A      0.798465   418A      0.803883   419A      0.806889  
     420A      0.810713   421A      0.812447   422A      0.818097  
     423A      0.824399   424A      0.830485   425A      0.831527  
     426A      0.834499   427A      0.836247   428A      0.842510  
     429A      0.843590   430A      0.849694   431A      0.852325  
     432A      0.857636   433A      0.862396   434A      0.865701  
     435A      0.866588   436A      0.871294   437A      0.874018  
     438A      0.875240   439A      0.879117   440A      0.881589  
     441A      0.886610   442A      0.888040   443A      0.891147  
     444A      0.895332   445A      0.899830   446A      0.901305  
     447A      0.906208   448A      0.910299   449A      0.913513  
     450A      0.914592   451A      0.919492   452A      0.920051  
     453A      0.922963   454A      0.927122   455A      0.931631  
     456A      0.937061   457A      0.940314   458A      0.941850  
     459A      0.944518   460A      0.947980   461A      0.952846  
     462A      0.954614   463A      0.956355   464A      0.959495  
     465A      0.961169   466A      0.964206   467A      0.967237  
     468A      0.969730   469A      0.974736   470A      0.977823  
     471A      0.981586   472A      0.982996   473A      0.991952  
     474A      0.993423   475A      0.999463   476A      1.001392  
     477A      1.003986   478A      1.007425   479A      1.009546  
     480A      1.012992   481A      1.020186   482A      1.021732  
     483A      1.025813   484A      1.027190   485A      1.036307  
     486A      1.043804   487A      1.047657   488A      1.049377  
     489A      1.053191   490A      1.059476   491A      1.064706  
     492A      1.070575   493A      1.076297   494A      1.081653  
     495A      1.083615   496A      1.085374   497A      1.089751  
     498A      1.091492   499A      1.095089   500A      1.100020  
     501A      1.109656   502A      1.113864   503A      1.118439  
     504A      1.128403   505A      1.131543   506A      1.132770  
     507A      1.138018   508A      1.142695   509A      1.143939  
     510A      1.146747   511A      1.148561   512A      1.155351  
     513A      1.158410   514A      1.163805   515A      1.165910  
     516A      1.169750   517A      1.174634   518A      1.176580  
     519A      1.184468   520A      1.186548   521A      1.192669  
     522A      1.193620   523A      1.201242   524A      1.202680  
     525A      1.206616   526A      1.210300   527A      1.212458  
     528A      1.214146   529A      1.217022   530A      1.225204  
     531A      1.234966   532A      1.237014   533A      1.240922  
     534A      1.241575   535A      1.247914   536A      1.249065  
     537A      1.254387   538A      1.257450   539A      1.261697  
     540A      1.269602   541A      1.270220   542A      1.276360  
     543A      1.278843   544A      1.280241   545A      1.286194  
     546A      1.291223   547A      1.293290   548A      1.295021  
     549A      1.300204   550A      1.305551   551A      1.308506  
     552A      1.312045   553A      1.312966   554A      1.323993  
     555A      1.332500   556A      1.339552   557A      1.345451  
     558A      1.350968   559A      1.365718   560A      1.369282  
     561A      1.369697   562A      1.373671   563A      1.376680  
     564A      1.383819   565A      1.395469   566A      1.406254  
     567A      1.408018   568A      1.412514   569A      1.417260  
     570A      1.421126   571A      1.437746   572A      1.439734  
     573A      1.447547   574A      1.450553   575A      1.455764  
     576A      1.456729   577A      1.469769   578A      1.484484  
     579A      1.485575   580A      1.491320   581A      1.502541  
     582A      1.509641   583A      1.515832   584A      1.528550  
     585A      1.537416   586A      1.541862   587A      1.550404  
     588A      1.553526   589A      1.561995   590A      1.571070  
     591A      1.580237   592A      1.589211   593A      1.590283  
     594A      1.603792   595A      1.615300   596A      1.622035  
     597A      1.629056   598A      1.636378   599A      1.643221  
     600A      1.651787   601A      1.667661   602A      1.671321  
     603A      1.683851   604A      1.698808   605A      1.707595  
     606A      1.710968   607A      1.717634   608A      1.718863  
     609A      1.728937   610A      1.732514   611A      1.749963  
     612A      1.755604   613A      1.758619   614A      1.762348  
     615A      1.769980   616A      1.773198   617A      1.775969  
     618A      1.783582   619A      1.788034   620A      1.792651  
     621A      1.796539   622A      1.798117   623A      1.804349  
     624A      1.810657   625A      1.811373   626A      1.813069  
     627A      1.816925   628A      1.823351   629A      1.829492  
     630A      1.833253   631A      1.835857   632A      1.839924  
     633A      1.842115   634A      1.848140   635A      1.850096  
     636A      1.853783   637A      1.859244   638A      1.860529  
     639A      1.861321   640A      1.864527   641A      1.871231  
     642A      1.880950   643A      1.886248   644A      1.887666  
     645A      1.892810   646A      1.897674   647A      1.903656  
     648A      1.911563   649A      1.913766   650A      1.925263  
     651A      1.931566   652A      1.940527   653A      1.942551  
     654A      1.948852   655A      1.953569   656A      1.957229  
     657A      1.958334   658A      1.963562   659A      1.973176  
     660A      1.977915   661A      1.980466   662A      1.983316  
     663A      1.985725   664A      1.988460   665A      1.990081  
     666A      1.993380   667A      2.000148   668A      2.008225  
     669A      2.014096   670A      2.015768   671A      2.019870  
     672A      2.022566   673A      2.025997   674A      2.030750  
     675A      2.039223   676A      2.042983   677A      2.049197  
     678A      2.053915   679A      2.059947   680A      2.061596  
     681A      2.067766   682A      2.071054   683A      2.072021  
     684A      2.080321   685A      2.087964   686A      2.093750  
     687A      2.099129   688A      2.104967   689A      2.108446  
     690A      2.116168   691A      2.127282   692A      2.134187  
     693A      2.141544   694A      2.152835   695A      2.157546  
     696A      2.159658   697A      2.164863   698A      2.171588  
     699A      2.175560   700A      2.184599   701A      2.187998  
     702A      2.188910   703A      2.193647   704A      2.196693  
     705A      2.208667   706A      2.215805   707A      2.219104  
     708A      2.229035   709A      2.231297   710A      2.239036  
     711A      2.240467   712A      2.246208   713A      2.255151  
     714A      2.258795   715A      2.264827   716A      2.266583  
     717A      2.270038   718A      2.275479   719A      2.285428  
     720A      2.288974   721A      2.292838   722A      2.294003  
     723A      2.300152   724A      2.306281   725A      2.308704  
     726A      2.316112   727A      2.323581   728A      2.327965  
     729A      2.333695   730A      2.338833   731A      2.342303  
     732A      2.352873   733A      2.364319   734A      2.371213  
     735A      2.373776   736A      2.376464   737A      2.377561  
     738A      2.384456   739A      2.396649   740A      2.399520  
     741A      2.412802   742A      2.416201   743A      2.417648  
     744A      2.428751   745A      2.431502   746A      2.439160  
     747A      2.447094   748A      2.449407   749A      2.454370  
     750A      2.475319   751A      2.485332   752A      2.495600  
     753A      2.506266   754A      2.507200   755A      2.517944  
     756A      2.518800   757A      2.522654   758A      2.528130  
     759A      2.532162   760A      2.561784   761A      2.565453  
     762A      2.572223   763A      2.573083   764A      2.575657  
     765A      2.598726   766A      2.613275   767A      2.625309  
     768A      2.635722   769A      2.640172   770A      2.644274  
     771A      2.661256   772A      2.665401   773A      2.672215  
     774A      2.684887   775A      2.698348   776A      2.702462  
     777A      2.719865   778A      2.734591   779A      2.743731  
     780A      2.751548   781A      2.756454   782A      2.764704  
     783A      2.772010   784A      2.780582   785A      2.787726  
     786A      2.798244   787A      2.805236   788A      2.816677  
     789A      2.819985   790A      2.824357   791A      2.836052  
     792A      2.844358   793A      2.845735   794A      2.854172  
     795A      2.855861   796A      2.868649   797A      2.869751  
     798A      2.880534   799A      2.893982   800A      2.902389  
     801A      2.912120   802A      2.913788   803A      2.924424  
     804A      2.937626   805A      2.940711   806A      2.944036  
     807A      2.952927   808A      2.955501   809A      2.965958  
     810A      2.972721   811A      2.975662   812A      2.983644  
     813A      2.994635   814A      2.997005   815A      3.000274  
     816A      3.003552   817A      3.009624   818A      3.012817  
     819A      3.013468   820A      3.023403   821A      3.037908  
     822A      3.043153   823A      3.047326   824A      3.050489  
     825A      3.055749   826A      3.060925   827A      3.067259  
     828A      3.071125   829A      3.073963   830A      3.076832  
     831A      3.079798   832A      3.084223   833A      3.088143  
     834A      3.100995   835A      3.104349   836A      3.107710  
     837A      3.112879   838A      3.115160   839A      3.122175  
     840A      3.128824   841A      3.134202   842A      3.144560  
     843A      3.151072   844A      3.153795   845A      3.160376  
     846A      3.171729   847A      3.174331   848A      3.178799  
     849A      3.190430   850A      3.202448   851A      3.207048  
     852A      3.207524   853A      3.211088   854A      3.214526  
     855A      3.228043   856A      3.236130   857A      3.238272  
     858A      3.247097   859A      3.252086   860A      3.261757  
     861A      3.268260   862A      3.272432   863A      3.283732  
     864A      3.291842   865A      3.296488   866A      3.299213  
     867A      3.303734   868A      3.306835   869A      3.308737  
     870A      3.313887   871A      3.319008   872A      3.331915  
     873A      3.336136   874A      3.338333   875A      3.344580  
     876A      3.347859   877A      3.354573   878A      3.363618  
     879A      3.364567   880A      3.370849   881A      3.374243  
     882A      3.383227   883A      3.385066   884A      3.392462  
     885A      3.398494   886A      3.405865   887A      3.407527  
     888A      3.415649   889A      3.424905   890A      3.442411  
     891A      3.456392   892A      3.481453   893A      3.513347  
     894A      3.525247   895A      3.539513   896A      3.558307  
     897A      3.560980   898A      3.581316   899A      3.599306  
     900A      3.622332   901A      3.637692   902A      3.638916  
     903A      3.653873   904A      3.658855   905A      3.668080  
     906A      3.680122   907A      3.697780   908A      3.721917  
     909A      3.774734   910A      3.776035   911A      3.787378  
     912A      3.791546   913A      3.797990   914A      3.801710  
     915A      3.814458   916A      3.825169   917A      3.858586  
     918A      3.862906   919A      3.878398   920A      3.895156  
     921A      3.899698   922A      3.920374   923A      3.933070  
     924A      3.934631   925A      3.938523   926A      3.952378  
     927A      3.964646   928A      3.981620   929A      3.985545  
     930A      4.007905   931A      4.011317   932A      4.048403  
     933A      4.067881   934A      4.077794   935A      4.080326  
     936A      4.092834   937A      4.111876   938A      4.134449  
     939A      4.141980   940A      4.144412   941A      4.164123  
     942A      4.186629   943A      4.187841   944A      4.196992  
     945A      4.203731   946A      4.205751   947A      4.219585  
     948A      4.248902   949A      4.318708   950A      4.360730  
     951A      4.380576   952A      4.385099   953A      4.412059  
     954A      4.422918   955A      4.427449   956A      4.430271  
     957A      4.440749   958A      4.445910   959A      4.448603  
     960A      4.457274   961A      4.466163   962A      4.542397  
     963A      4.545046   964A      4.565449   965A      4.579172  
     966A      4.582175   967A      4.597083   968A      4.616492  
     969A      4.682815   970A      4.700260   971A      4.761678  
     972A      4.788195   973A      4.810546   974A      4.921307  
     975A      4.949669   976A      5.018073   977A      5.055769  
     978A      5.220938   979A      5.253949   980A      5.259154  
     981A      5.274182   982A      5.281331   983A      5.311431  
     984A      5.331054   985A      5.377719   986A      5.438651  
     987A      5.611662   988A      5.710447   989A      5.726989  
     990A      5.806203   991A      5.866463   992A      5.902963  
     993A      6.427467   994A     24.753102   995A     24.771869  
     996A     24.815585   997A     24.819619   998A     24.856007  
     999A     24.940832  1000A     24.951716  1001A     25.012032  
    1002A     25.021166  1003A     25.025422  1004A     25.035855  
    1005A     25.071181  1006A     25.080549  1007A     25.094551  
    1008A     25.110439  1009A     25.115653  1010A     25.121192  
    1011A     25.125339  1012A     25.146115  1013A     25.160233  
    1014A     25.193441  1015A     25.196410  1016A     25.202590  
    1017A     25.240709  1018A     25.253236  1019A     25.255216  
    1020A     25.270407  1021A     25.316229  1022A     25.322022  
    1023A     36.941974  1024A     36.980035  1025A     37.033349  
    1026A     37.065256  1027A     37.100146  1028A     37.141163  
    1029A     37.165570  1030A     51.767535  

    Final Occupation by Irrep:
              A 
    DOCC [   131 ]

  @DF-RHF Final Energy: -1572.29663195433318

   => Energetics <=

    Nuclear Repulsion Energy =           3687.5298490779796339
    One-Electron Energy =               -9474.2001584297086083
    Two-Electron Energy =                4214.3736773973960226
    Total Energy =                      -1572.2966319543329519

Computation Completed


Properties will be evaluated at   0.000000,   0.000000,   0.000000 [a0]

Properties computed using the SCF density matrix

  Nuclear Dipole Moment: [e a0]
     X:    46.6678      Y:   -10.2573      Z:     9.7499

  Electronic Dipole Moment: [e a0]
     X:   -46.8697      Y:    10.1677      Z:    -9.9523

  Dipole Moment: [e a0]
     X:    -0.2019      Y:    -0.0896      Z:    -0.2024     Total:     0.2997

  Dipole Moment: [D]
     X:    -0.5132      Y:    -0.2279      Z:    -0.5145     Total:     0.7616


*** tstop() called on node35.bme.utexas.edu at Tue Mar 10 10:36:50 2020
Module time:
	user time   =    5920.25 seconds =      98.67 minutes
	system time =      48.51 seconds =       0.81 minutes
	total time  =       1049 seconds =      17.48 minutes
Total time:
	user time   =    5920.25 seconds =      98.67 minutes
	system time =      48.51 seconds =       0.81 minutes
	total time  =       1049 seconds =      17.48 minutes

*** tstart() called on node35.bme.utexas.edu
*** at Tue Mar 10 10:36:50 2020


  //>>>>>>>>>>>>>>>>>>>>>>>>>>>>>>>>>>>//
  //               DFMP2               //
  //<<<<<<<<<<<<<<<<<<<<<<<<<<<<<<<<<<<//

   => Loading Basis Set <=

    Name: (6-311++G** AUX)
    Role: RIFIT
    Keyword: DF_BASIS_MP2
    atoms 1-4, 6-9, 11, 14-19, 21-28, 30-31, 33-35, 37 entry C          line   148 file /home/bdw2292/miniconda3/envs/p4env/share/psi4/basis/aug-cc-pvtz-ri.gbs 
    atoms 5, 10, 12-13, 20, 29, 32                     entry N          line   206 file /home/bdw2292/miniconda3/envs/p4env/share/psi4/basis/aug-cc-pvtz-ri.gbs 
    atoms 36                                           entry O          line   264 file /home/bdw2292/miniconda3/envs/p4env/share/psi4/basis/aug-cc-pvtz-ri.gbs 
    atoms 38-68                                        entry H          line    30 file /home/bdw2292/miniconda3/envs/p4env/share/psi4/basis/aug-cc-pvtz-ri.gbs 

	 --------------------------------------------------------
	                          DF-MP2                         
	      2nd-Order Density-Fitted Moller-Plesset Theory     
	              RMP2 Wavefunction,   6 Threads             
	                                                         
	        Rob Parrish, Justin Turney, Andy Simmonett,      
	           Ed Hohenstein, and C. David Sherrill          
	 --------------------------------------------------------

   => Auxiliary Basis Set <=

  Basis Set: (6-311++G** AUX)
    Blend: AUG-CC-PVTZ-RI
    Number of shells: 1470
    Number of basis function: 5348
    Number of Cartesian functions: 6737
    Spherical Harmonics?: true
    Max angular momentum: 4

	 --------------------------------------------------------
	                 NBF =  1031, NAUX =  5348
	 --------------------------------------------------------
	   CLASS    FOCC     OCC    AOCC    AVIR     VIR    FVIR
	   PAIRS      37     131      94     899     899       0
	 --------------------------------------------------------

	-----------------------------------------------------------
	 ==================> DF-MP2 Energies <==================== 
	-----------------------------------------------------------
	 Reference Energy          =   -1572.2966319543331792 [Eh]
	 Singles Energy            =      -0.0000000000000000 [Eh]
	 Same-Spin Energy          =      -1.4715479802100686 [Eh]
	 Opposite-Spin Energy      =      -4.0508627090707723 [Eh]
	 Correlation Energy        =      -5.5224106892808411 [Eh]
	 Total Energy              =   -1577.8190426436140115 [Eh]
	-----------------------------------------------------------
	 ================> DF-SCS-MP2 Energies <================== 
	-----------------------------------------------------------
	 SCS Same-Spin Scale       =       0.3333333333333333 [-]
	 SCS Opposite-Spin Scale   =       1.2000000000000000 [-]
	 SCS Same-Spin Energy      =      -0.4905159934033562 [Eh]
	 SCS Opposite-Spin Energy  =      -4.8610352508849264 [Eh]
	 SCS Correlation Energy    =      -5.3515512442882827 [Eh]
	 SCS Total Energy          =   -1577.6481831986213820 [Eh]
	-----------------------------------------------------------


*** tstop() called on node35.bme.utexas.edu at Tue Mar 10 10:46:56 2020
Module time:
	user time   =    3426.91 seconds =      57.12 minutes
	system time =      29.29 seconds =       0.49 minutes
	total time  =        606 seconds =      10.10 minutes
Total time:
	user time   =    9347.17 seconds =     155.79 minutes
	system time =      77.80 seconds =       1.30 minutes
	total time  =       1655 seconds =      27.58 minutes


Properties will be evaluated at   0.000000,   0.000000,   0.000000 [a0]
OEProp: No title given, name of density matrix used for the following properties is 'SCF density'


  Wiberg Bond Indices using Orthogonal Lowdin Orbitals:

  Irrep: 1 Size: 68 x 68

                 1                   2                   3                   4                   5

    1     0.00000000000000     1.46986131335573     0.12463389877958     0.13862962985199     0.12596675619387
    2     1.46986131335573     0.00000000000000     1.39637549615353     0.12913530436085     0.12259216546297
    3     0.12463389877958     1.39637549615353     0.00000000000000     1.36278287790812     0.11898195484748
    4     0.13862962985199     0.12913530436085     1.36278287790812     0.00000000000000     1.64814853304983
    5     0.12596675619387     0.12259216546297     0.11898195484748     1.64814853304983     0.00000000000000
    6     1.46008610963459     0.13780940082652     0.13459363655532     0.15270092805337     1.64398387587317
    7     0.01497985964601     0.10390533050904     1.02413649462899     0.10372703424867     0.01377597323014
    8     0.00386938004736     0.04391105834788     0.09954745439117     0.02380578828714     0.00214765608103
    9     0.00038922551756     0.00519214773139     0.01525446439934     0.00427471526364     0.00066458877442
   10     0.00044645389950     0.00546302955083     0.00588938548924     0.00610736070148     0.00028375136499
   11     0.00089365698111     0.00335732082489     0.01789360852951     0.00636107006175     0.00037220284853
   12     0.00272689027714     0.02146348760038     0.11590145714245     0.05809155359526     0.00349563728076
   13     0.00015953448106     0.00046163687675     0.00157158721319     0.00072064382933     0.00006818391974
   14     0.00002746700662     0.00008224398847     0.00044311596359     0.00060634339846     0.00004597036025
   15     0.00000910361866     0.00002151849800     0.00005620487157     0.00008519011483     0.00000849725930
   16     0.00000150913701     0.00000358948204     0.00002753241930     0.00012927569393     0.00000491485314
   17     0.00000803586882     0.00001423675953     0.00003274959690     0.00007356873179     0.00001959013914
   18     0.00001246305055     0.00002348341034     0.00013650144293     0.00059085028618     0.00009039835705
   19     0.00006137043709     0.00013388328390     0.00100416481628     0.00440333371368     0.00027186950365
   20     0.00001099282159     0.00001418191670     0.00011164041641     0.00097569601868     0.00043766101270
   21     0.00019568747468     0.00016577454839     0.00057986517285     0.00651055429725     0.00237835404231
   22     0.00005261351643     0.00004035306872     0.00008541752729     0.00087209895315     0.00105416378648
   23     0.00000480128698     0.00000438814652     0.00001738035344     0.00015899060861     0.00012469196023
   24     0.00000231526332     0.00000168333946     0.00000542708494     0.00005619174930     0.00007080729679
   25     0.00000169898897     0.00000167340734     0.00000667645227     0.00008246345166     0.00009540484893
   26     0.00001967530534     0.00001816479619     0.00002595533603     0.00016333965605     0.00051819647476
   27     0.00017052152517     0.00011944626896     0.00015739794854     0.00171539947842     0.00777187556635
   28     0.00000043217072     0.00000028368745     0.00000072584842     0.00000944488896     0.00001264564361
   29     0.00000016693423     0.00000013787675     0.00000044828672     0.00000361729727     0.00000484154297
   30     0.00000011177734     0.00000006915472     0.00000029200414     0.00000207990822     0.00000267884433
   31     0.00000026867429     0.00000016518796     0.00000032099844     0.00000257357065     0.00000381745015
   32     0.00000032691768     0.00000013689107     0.00000049995464     0.00000146540320     0.00000285049520
   33     0.00000005332168     0.00000002135269     0.00000009676915     0.00000019531801     0.00000037427271
   34     0.00000063104223     0.00000028501154     0.00000067787865     0.00000274593278     0.00000714665023
   35     0.00000029320166     0.00000013947193     0.00000028048691     0.00000149989790     0.00000258719544
   36     0.00090268612425     0.00071357797702     0.00422519853558     0.04530333316433     0.01418166004866
   37     0.00000211464365     0.00000712395122     0.00003008780486     0.00001964960541     0.00000145495784
   38     0.88700935325978     0.07964203166649     0.01179878751906     0.00638476958807     0.01088728232459
   39     0.07849301003802     0.87059286942212     0.07207001242124     0.01165138040423     0.00398694766925
   40     0.00532659605491     0.01032989907042     0.06984284176463     0.84019336940040     0.08278387686089
   41     0.07764464416017     0.01195487517974     0.00610737609245     0.01590291566205     0.08814409703446
   42     0.00127401352410     0.01588506106282     0.01480087920412     0.00141173928306     0.00030517820174
   43     0.00004505049597     0.00029851320109     0.00145192406770     0.00032024898314     0.00007973866385
   44     0.00002461774193     0.00008327917918     0.00034847841640     0.00007843325030     0.00000706598078
   45     0.00000034029818     0.00000092010123     0.00000504877045     0.00000895132336     0.00000080977241
   46     0.00000067573166     0.00000123974423     0.00000460245470     0.00001165855208     0.00000341932276
   47     0.00004665606825     0.00009527024259     0.00083523738792     0.00316501331802     0.00019085236862
   48     0.00000308479200     0.00000266968620     0.00000910921156     0.00006725335640     0.00002694311062
   49     0.00000103073051     0.00000095668749     0.00000365287115     0.00002105181162     0.00001464050780
   50     0.00000033252188     0.00000032182819     0.00000067247324     0.00001029828340     0.00001301861884
   51     0.00000375909836     0.00000387128586     0.00000417473751     0.00001937007990     0.00009089160714
   52     0.00014101292981     0.00006668640359     0.00013517437160     0.00143124235735     0.00625204792897
   53     0.00000008230167     0.00000005655679     0.00000011741224     0.00000315163164     0.00000397896395
   54     0.00000012304507     0.00000005202918     0.00000016326794     0.00000216560428     0.00000254432361
   55     0.00000001736468     0.00000001827643     0.00000003199141     0.00000034165511     0.00000061301008
   56     0.00000002910167     0.00000000765119     0.00000005372509     0.00000060082973     0.00000073108046
   57     0.00000001230815     0.00000001080040     0.00000004285629     0.00000018929186     0.00000025727014
   58     0.00000027189105     0.00000017721785     0.00000017789836     0.00000203532063     0.00000228226067
   59     0.00000001402907     0.00000000432946     0.00000001513724     0.00000004797940     0.00000009512496
   60     0.00000000726994     0.00000000285137     0.00000000726048     0.00000002259239     0.00000006561290
   61     0.00000000540370     0.00000000227254     0.00000001896451     0.00000004513724     0.00000005561968
   62     0.00000002917242     0.00000001463856     0.00000004211426     0.00000018550758     0.00000048862355
   63     0.00000064096712     0.00000033155389     0.00000056076213     0.00000212096672     0.00000642739661
   64     0.00000002848671     0.00000001784992     0.00000006395161     0.00000032442514     0.00000047938512
   65     0.00000006175502     0.00000002588742     0.00000004306706     0.00000022694497     0.00000079136960
   66     0.00000070086042     0.00000179651732     0.00001060034250     0.00000589194867     0.00000029668388
   67     0.00000123128267     0.00000326522257     0.00001050526127     0.00000786008161     0.00000080607980
   68     0.00000018361264     0.00000058626255     0.00000283491646     0.00000289846550     0.00000013701657

                 6                   7                   8                   9                  10

    1     1.46008610963459     0.01497985964601     0.00386938004736     0.00038922551756     0.00044645389950
    2     0.13780940082652     0.10390533050904     0.04391105834788     0.00519214773139     0.00546302955083
    3     0.13459363655532     1.02413649462899     0.09954745439117     0.01525446439934     0.00588938548924
    4     0.15270092805337     0.10372703424867     0.02380578828714     0.00427471526364     0.00610736070148
    5     1.64398387587317     0.01377597323014     0.00214765608103     0.00066458877442     0.00028375136499
    6     0.00000000000000     0.01014191598772     0.00680317331560     0.00135724343042     0.00341935551298
    7     0.01014191598772     0.00000000000000     1.38052811550566     0.14590241753115     0.11221358255935
    8     0.00680317331560     1.38052811550566     0.00000000000000     1.44156647095452     0.13258661163498
    9     0.00135724343042     0.14590241753115     1.44156647095452     0.00000000000000     1.66117761867506
   10     0.00341935551298     0.11221358255935     0.13258661163498     1.66117761867506     0.00000000000000
   11     0.00083758566999     0.14359341699476     0.11447151504179     0.15154001178811     1.50149772006877
   12     0.00582635210593     1.52752204928786     0.12360867225315     0.10987215830959     0.10952889968615
   13     0.00006381632622     0.01908701158512     0.01991578085623     0.02444968228551     0.16441102695764
   14     0.00002425847406     0.00269963688309     0.00259956803718     0.00327763101823     0.01771173634661
   15     0.00000294427932     0.00049248470069     0.00144872661886     0.00090249306753     0.00321586547805
   16     0.00000156497549     0.00013030235526     0.00020778826991     0.00014074955817     0.00049842283527
   17     0.00000373040625     0.00023819077001     0.00132610118709     0.00039160027232     0.00132370565657
   18     0.00001948544727     0.00039140925537     0.00022794390661     0.00013466596932     0.00042985573218
   19     0.00008154661621     0.00426578955921     0.00280279159682     0.00138979306841     0.00421638836079
   20     0.00004209846176     0.00007493649598     0.00001656377563     0.00001409710597     0.00004341786850
   21     0.00025277071883     0.00017625962624     0.00004570157075     0.00001885133657     0.00002679207498
   22     0.00013906893793     0.00003206802877     0.00000325399711     0.00000219691760     0.00000544586650
   23     0.00003159171233     0.00000634529566     0.00000176511513     0.00000073593901     0.00000170880227
   24     0.00002798682332     0.00000207285167     0.00000040925848     0.00000025630179     0.00000042479939
   25     0.00001753257074     0.00000128726635     0.00000021171058     0.00000012265071     0.00000034611058
   26     0.00008748944214     0.00000382041477     0.00000171420692     0.00000043047553     0.00000057699542
   27     0.00073509106968     0.00002548272165     0.00000939844528     0.00000211181747     0.00000222588503
   28     0.00000267794176     0.00000018976802     0.00000003700695     0.00000003058713     0.00000005232658
   29     0.00000143638270     0.00000009969464     0.00000001952840     0.00000001577607     0.00000001673807
   30     0.00000089461565     0.00000008892023     0.00000003925364     0.00000000958271     0.00000002417535
   31     0.00000143920151     0.00000006821150     0.00000003855736     0.00000000839969     0.00000001682691
   32     0.00000133251477     0.00000008201390     0.00000003708852     0.00000000545626     0.00000001709334
   33     0.00000023471710     0.00000002635867     0.00000001136266     0.00000000585990     0.00000000750052
   34     0.00000278205623     0.00000011529515     0.00000007074000     0.00000001183071     0.00000001547673
   35     0.00000108202651     0.00000011261534     0.00000003190498     0.00000000951702     0.00000002079050
   36     0.00127343041655     0.00102919524340     0.00014961382842     0.00005403199786     0.00006684301287
   37     0.00000186621046     0.00014992441487     0.00015402551143     0.00015801886771     0.00103302498315
   38     0.08264769877554     0.00130688164931     0.00026854014467     0.00003977175124     0.00002760759378
   39     0.01174266298189     0.01610526675938     0.01639161757246     0.00130486930692     0.00041922308810
   40     0.01399974955017     0.01534428256680     0.00164247244046     0.00037385612962     0.00059225262867
   41     0.87968357083071     0.00056205205296     0.00027451154553     0.00005745976832     0.00010567583618
   42     0.00052300609143     0.07463235106878     0.87514176475938     0.08127097126843     0.01052967699687
   43     0.00004628995031     0.01178802350028     0.07674517716761     0.87503963688970     0.08932645742651
   44     0.00001169382771     0.00204758389105     0.00205528138654     0.00400302135597     0.03444809390659
   45     0.00000028925717     0.00001732073275     0.00000815048169     0.00002283193432     0.00005386207938
   46     0.00000052755333     0.00002081258962     0.00004727337508     0.00001649433205     0.00006003060171
   47     0.00007008346117     0.00271316479780     0.00067508394862     0.00035606293355     0.00064787510871
   48     0.00000334765161     0.00000542810247     0.00000219435650     0.00000294893893     0.00000999130241
   49     0.00000384703614     0.00000145096021     0.00000051056972     0.00000021797050     0.00000060954537
   50     0.00000343614572     0.00000015614399     0.00000003504834     0.00000001142936     0.00000003260516
   51     0.00002372401853     0.00000059514081     0.00000026438467     0.00000005227254     0.00000003482295
   52     0.00063046739561     0.00002085075237     0.00000777400724     0.00000154409174     0.00000099069719
   53     0.00000081700274     0.00000004461313     0.00000000488120     0.00000000579722     0.00000000730709
   54     0.00000073710393     0.00000003470169     0.00000000821053     0.00000000228958     0.00000000548224
   55     0.00000020606422     0.00000001006317     0.00000000340391     0.00000000213514     0.00000000555818
   56     0.00000014770783     0.00000002051938     0.00000001722570     0.00000000439695     0.00000000191673
   57     0.00000012280950     0.00000000965144     0.00000000545526     0.00000000212611     0.00000000543188
   58     0.00000088493241     0.00000004531215     0.00000001586524     0.00000002371118     0.00000009187767
   59     0.00000006014744     0.00000000601544     0.00000000218552     0.00000000167371     0.00000000240397
   60     0.00000006213012     0.00000000302571     0.00000000206687     0.00000000158437     0.00000000113417
   61     0.00000003060028     0.00000000522295     0.00000000238994     0.00000000057346     0.00000000142427
   62     0.00000013940901     0.00000001677087     0.00000000543512     0.00000000188859     0.00000000363478
   63     0.00000233692611     0.00000011394238     0.00000006172278     0.00000001556733     0.00000004251517
   64     0.00000020086165     0.00000002415504     0.00000000504142     0.00000000188268     0.00000000410649
   65     0.00000020996431     0.00000001331025     0.00000000323852     0.00000000210487     0.00000000307888
   66     0.00000033072523     0.00004322870361     0.00007771366838     0.00004898074519     0.00030509758581
   67     0.00000175745682     0.00005171701864     0.00012288236380     0.00004968476896     0.00044311410620
   68     0.00000007977727     0.00001400181662     0.00000776253066     0.00000496183991     0.00004584231186

                11                  12                  13                  14                  15

    1     0.00089365698111     0.00272689027714     0.00015953448106     0.00002746700662     0.00000910361866
    2     0.00335732082489     0.02146348760038     0.00046163687675     0.00008224398847     0.00002151849800
    3     0.01789360852951     0.11590145714245     0.00157158721319     0.00044311596359     0.00005620487157
    4     0.00636107006175     0.05809155359526     0.00072064382933     0.00060634339846     0.00008519011483
    5     0.00037220284853     0.00349563728076     0.00006818391974     0.00004597036025     0.00000849725930
    6     0.00083758566999     0.00582635210593     0.00006381632622     0.00002425847406     0.00000294427932
    7     0.14359341699476     1.52752204928786     0.01908701158512     0.00269963688309     0.00049248470069
    8     0.11447151504179     0.12360867225315     0.01991578085623     0.00259956803718     0.00144872661886
    9     0.15154001178811     0.10987215830959     0.02444968228551     0.00327763101823     0.00090249306753
   10     1.50149772006877     0.10952889968615     0.16441102695764     0.01771173634661     0.00321586547805
   11     0.00000000000000     1.55186285360081     1.25801328623307     0.08160466335847     0.01781269606002
   12     1.55186285360081     0.00000000000000     0.13969380582517     0.02769806603369     0.00345077627723
   13     1.25801328623307     0.13969380582517     0.00000000000000     1.13506082925712     0.10877553123000
   14     0.08160466335847     0.02769806603369     1.13506082925712     0.00000000000000     1.31298618384339
   15     0.01781269606002     0.00345077627723     0.10877553123000     1.31298618384339     0.00000000000000
   16     0.00235171583528     0.00098335676374     0.01494876478318     0.12625249318113     1.44533248181460
   17     0.00387629382025     0.00231645063174     0.01288774033127     0.12079882929766     0.12498050670271
   18     0.00225689541037     0.00366723154226     0.01396620725868     0.12464244205295     0.11847110325288
   19     0.02688760444389     0.04430962015470     0.11171632674813     1.40275896948291     0.12007245806628
   20     0.00026701554200     0.00054210648869     0.00115453854822     0.01366861471116     0.01101538399253
   21     0.00018274995576     0.00074694543684     0.00033476088518     0.00296343729886     0.00557919029880
   22     0.00002196870135     0.00011253314896     0.00002971368542     0.00033102729716     0.00027548603872
   23     0.00000702294793     0.00002150053158     0.00002690076294     0.00014169908998     0.00035602137478
   24     0.00000159291676     0.00000556716989     0.00000368391824     0.00002412159560     0.00004013799439
   25     0.00000071247402     0.00000255138651     0.00000311699624     0.00003175428590     0.00017057731698
   26     0.00000141010540     0.00000385121915     0.00000207564039     0.00002082245873     0.00002703896440
   27     0.00000868394383     0.00003424717290     0.00001153226421     0.00010404876053     0.00028451007383
   28     0.00000010088000     0.00000034448992     0.00000022550329     0.00000277716951     0.00001290235305
   29     0.00000003824531     0.00000014009556     0.00000017088288     0.00000198965653     0.00000943739245
   30     0.00000003251239     0.00000006474450     0.00000005459905     0.00000037645909     0.00000162954222
   31     0.00000004381566     0.00000009429224     0.00000014134746     0.00000050051992     0.00000053978030
   32     0.00000002784740     0.00000004160276     0.00000005325608     0.00000026105817     0.00000039538012
   33     0.00000001430783     0.00000002976896     0.00000001232598     0.00000014275502     0.00000010385578
   34     0.00000003456475     0.00000012357218     0.00000007098820     0.00000042747285     0.00000059680032
   35     0.00000004471161     0.00000014386059     0.00000005930773     0.00000048788343     0.00000142288830
   36     0.00053889646479     0.00358212160968     0.00059007987238     0.00426344597294     0.00342106643608
   37     0.00395119867020     0.00078584415612     0.03924776071340     0.09548269478364     1.05957543945578
   38     0.00009105662189     0.00031741962401     0.00001566958330     0.00000579591781     0.00000065825193
   39     0.00028885904495     0.00107234036033     0.00006541623401     0.00002177784911     0.00000358959395
   40     0.00242618515931     0.02316456357581     0.00027700601599     0.00051973577234     0.00006968254185
   41     0.00004213205746     0.00024259525627     0.00000479403701     0.00000264144922     0.00000040818576
   42     0.00578650663331     0.01056522586682     0.00101865843248     0.00012252671403     0.00006365099999
   43     0.01588586968907     0.00398731010970     0.00138202781315     0.00038765752674     0.00006214993035
   44     0.07366217563238     0.01134779039378     0.93237249582838     0.06037846852471     0.01572010806377
   45     0.00036992580477     0.00005740049133     0.00116553249142     0.01146499838308     0.07500811616436
   46     0.00015334435423     0.00014454003810     0.00061125773810     0.00571640928748     0.01118592983563
   47     0.00831659995986     0.02609674115702     0.01620744689360     0.07341687990308     0.00940587003907
   48     0.00003622878294     0.00002590591811     0.00027297918504     0.00153405767028     0.00104618751051
   49     0.00000292280596     0.00000540094093     0.00001034431287     0.00004596060048     0.00010180815284
   50     0.00000014746463     0.00000036035358     0.00000017684154     0.00000208021445     0.00000194486453
   51     0.00000017851954     0.00000065385889     0.00000028955267     0.00000204037334     0.00000182264384
   52     0.00000369323643     0.00001288292629     0.00000325998465     0.00002031712647     0.00001705344288
   53     0.00000004129173     0.00000018175715     0.00000005782504     0.00000043253187     0.00000139224491
   54     0.00000003047101     0.00000005866853     0.00000004298744     0.00000046869694     0.00000214559835
   55     0.00000001210821     0.00000001422187     0.00000000803833     0.00000006646717     0.00000017857875
   56     0.00000000824236     0.00000002311959     0.00000001440248     0.00000010374789     0.00000043216181
   57     0.00000000671872     0.00000001368219     0.00000001838176     0.00000005265662     0.00000018577030
   58     0.00000006426290     0.00000008044494     0.00000028907141     0.00000072064785     0.00000093789673
   59     0.00000000383167     0.00000000531442     0.00000000257371     0.00000003884500     0.00000002204253
   60     0.00000000207807     0.00000000481405     0.00000000326791     0.00000001694899     0.00000000863118
   61     0.00000000268962     0.00000000544900     0.00000000194231     0.00000002243899     0.00000000693837
   62     0.00000000494612     0.00000002106785     0.00000000896449     0.00000003794153     0.00000014295632
   63     0.00000006349688     0.00000018926169     0.00000019783540     0.00000048397080     0.00000123309646
   64     0.00000001058222     0.00000003794889     0.00000001799939     0.00000013757798     0.00000049297524
   65     0.00000000626500     0.00000001976191     0.00000000898537     0.00000008741711     0.00000008949452
   66     0.00078563394419     0.00026376307451     0.00910585869194     0.01620240456418     0.05824372904575
   67     0.00113626455866     0.00033104496036     0.01118939155354     0.01650666102013     0.05798680315662
   68     0.00024619729350     0.00006447861482     0.00211471393596     0.00887554728773     0.05942235201433

                16                  17                  18                  19                  20

    1     0.00000150913701     0.00000803586882     0.00001246305055     0.00006137043709     0.00001099282159
    2     0.00000358948204     0.00001423675953     0.00002348341034     0.00013388328390     0.00001418191670
    3     0.00002753241930     0.00003274959690     0.00013650144293     0.00100416481628     0.00011164041641
    4     0.00012927569393     0.00007356873179     0.00059085028618     0.00440333371368     0.00097569601868
    5     0.00000491485314     0.00001959013914     0.00009039835705     0.00027186950365     0.00043766101270
    6     0.00000156497549     0.00000373040625     0.00001948544727     0.00008154661621     0.00004209846176
    7     0.00013030235526     0.00023819077001     0.00039140925537     0.00426578955921     0.00007493649598
    8     0.00020778826991     0.00132610118709     0.00022794390661     0.00280279159682     0.00001656377563
    9     0.00014074955817     0.00039160027232     0.00013466596932     0.00138979306841     0.00001409710597
   10     0.00049842283527     0.00132370565657     0.00042985573218     0.00421638836079     0.00004341786850
   11     0.00235171583528     0.00387629382025     0.00225689541037     0.02688760444389     0.00026701554200
   12     0.00098335676374     0.00231645063174     0.00366723154226     0.04430962015470     0.00054210648869
   13     0.01494876478318     0.01288774033127     0.01396620725868     0.11171632674813     0.00115453854822
   14     0.12625249318113     0.12079882929766     0.12464244205295     1.40275896948291     0.01366861471116
   15     1.44533248181460     0.12498050670271     0.11847110325288     0.12007245806628     0.01101538399253
   16     0.00000000000000     1.44727167612618     0.13043469740467     0.12394643414468     0.01433457939737
   17     1.44727167612618     0.00000000000000     1.39822100709029     0.12246832002854     0.11416380798738
   18     0.13043469740467     1.39822100709029     0.00000000000000     1.36698822876564     1.12506188109123
   19     0.12394643414468     0.12246832002854     1.36698822876564     0.00000000000000     0.10818666712048
   20     0.01433457939737     0.11416380798738     1.12506188109123     0.10818666712048     0.00000000000000
   21     0.00277986933589     0.02149290953262     0.08486770548564     0.03261538099802     1.31311457061263
   22     0.00038433268110     0.00187245022926     0.01445957983264     0.00335337577626     0.10206735109200
   23     0.00011800890487     0.00085976829551     0.00340415026260     0.00123571473270     0.04004334546091
   24     0.00001340861604     0.00010617950681     0.00038704636299     0.00016659509000     0.00348339372320
   25     0.00003035622716     0.00025188920127     0.00040068460846     0.00026225962002     0.00357434198216
   26     0.00001929480205     0.00009733285886     0.00047179146843     0.00013740256988     0.00240023879805
   27     0.00010259405492     0.00063913779861     0.00225770390218     0.00092931969409     0.01814565108892
   28     0.00000301223643     0.00001986772860     0.00003741632579     0.00002278399824     0.00027914433025
   29     0.00000187836811     0.00001319450778     0.00002147417959     0.00001280508798     0.00017694439554
   30     0.00000049316217     0.00000282353484     0.00000442987978     0.00000268894049     0.00003367521009
   31     0.00000079803188     0.00000340527808     0.00000415060282     0.00000288399500     0.00003471045870
   32     0.00000082325470     0.00000111162551     0.00000209150751     0.00000113309140     0.00000910109281
   33     0.00000015647153     0.00000034417681     0.00000054801908     0.00000065479229     0.00000205428358
   34     0.00000075441849     0.00000235197571     0.00000535727844     0.00000224674014     0.00003367409137
   35     0.00000047103787     0.00000238378966     0.00000566932138     0.00000278255741     0.00003720680446
   36     0.00102758819480     0.00541192996653     0.02860523091744     0.05343149119605     0.18990443349287
   37     0.11629940870680     0.01456864891272     0.00730267564999     0.01382577438267     0.00069603741884
   38     0.00000020613104     0.00000037325320     0.00000268528688     0.00001360569111     0.00000131806760
   39     0.00000103129952     0.00000121106868     0.00000340511293     0.00002190983116     0.00000208861969
   40     0.00008450790028     0.00006145983286     0.00062882142254     0.00386885265924     0.00070332135818
   41     0.00000021106724     0.00000028167619     0.00000203706226     0.00000714711124     0.00000448413337
   42     0.00001058737916     0.00004713461068     0.00002228421813     0.00016324445630     0.00000239909144
   43     0.00001522968857     0.00001014005737     0.00001289652406     0.00009789256198     0.00000113837285
   44     0.00164162464926     0.00117440640067     0.00135625536878     0.01052359878951     0.00023485315613
   45     0.87120747836287     0.07973317196265     0.01177052436936     0.00576508199970     0.00113103358629
   46     0.07912730659895     0.87523530410273     0.07743310647016     0.01193827050648     0.01883037312204
   47     0.00530084261131     0.01000742304387     0.06993930384315     0.82833640589774     0.01687970692921
   48     0.00181690864895     0.01841711537630     0.06496463406047     0.01085245879277     0.94136721778749
   49     0.00003093943080     0.00028091591613     0.00123715697989     0.00035202061362     0.01396274566338
   50     0.00000144989528     0.00000899361918     0.00003067560414     0.00001634008797     0.00020960664241
   51     0.00000278957582     0.00001437706132     0.00006655757878     0.00001589352276     0.00027139237085
   52     0.00001233290925     0.00006809880170     0.00023874654942     0.00017963197698     0.00159894036082
   53     0.00000037600337     0.00000250670387     0.00000607481887     0.00000358335982     0.00003395597682
   54     0.00000044812513     0.00000347493966     0.00000627036948     0.00000432162200     0.00005190673887
   55     0.00000007604849     0.00000038392442     0.00000079539854     0.00000046459307     0.00000520217699
   56     0.00000008853791     0.00000076330393     0.00000075734704     0.00000069667723     0.00000845085057
   57     0.00000008555064     0.00000058584215     0.00000028439821     0.00000029558262     0.00000249852147
   58     0.00000066086685     0.00000313430377     0.00000636137683     0.00000540639344     0.00003911016664
   59     0.00000003764079     0.00000007368948     0.00000008896871     0.00000017084163     0.00000048209658
   60     0.00000000815164     0.00000005144006     0.00000010984734     0.00000008281262     0.00000029230160
   61     0.00000001238639     0.00000004328998     0.00000010810493     0.00000004469477     0.00000032477107
   62     0.00000005726215     0.00000021867035     0.00000035659616     0.00000025355830     0.00000249895779
   63     0.00000057370260     0.00000316773203     0.00000660802427     0.00000494676655     0.00003724434612
   64     0.00000015858191     0.00000078215405     0.00000080038902     0.00000080123320     0.00000847496036
   65     0.00000007357225     0.00000036765727     0.00000143008287     0.00000047285122     0.00000782348226
   66     0.01550379560445     0.00127332886248     0.00301393131521     0.00118641282563     0.00036076403356
   67     0.01477515629303     0.00126824705338     0.00270889123941     0.00124482034184     0.00032761136142
   68     0.02390200730057     0.00190355336059     0.00055660634753     0.00111670485079     0.00007637801286

                21                  22                  23                  24                  25

    1     0.00019568747468     0.00005261351643     0.00000480128698     0.00000231526332     0.00000169898897
    2     0.00016577454839     0.00004035306872     0.00000438814652     0.00000168333946     0.00000167340734
    3     0.00057986517285     0.00008541752729     0.00001738035344     0.00000542708494     0.00000667645227
    4     0.00651055429725     0.00087209895315     0.00015899060861     0.00005619174930     0.00008246345166
    5     0.00237835404231     0.00105416378648     0.00012469196023     0.00007080729679     0.00009540484893
    6     0.00025277071883     0.00013906893793     0.00003159171233     0.00002798682332     0.00001753257074
    7     0.00017625962624     0.00003206802877     0.00000634529566     0.00000207285167     0.00000128726635
    8     0.00004570157075     0.00000325399711     0.00000176511513     0.00000040925848     0.00000021171058
    9     0.00001885133657     0.00000219691760     0.00000073593901     0.00000025630179     0.00000012265071
   10     0.00002679207498     0.00000544586650     0.00000170880227     0.00000042479939     0.00000034611058
   11     0.00018274995576     0.00002196870135     0.00000702294793     0.00000159291676     0.00000071247402
   12     0.00074694543684     0.00011253314896     0.00002150053158     0.00000556716989     0.00000255138651
   13     0.00033476088518     0.00002971368542     0.00002690076294     0.00000368391824     0.00000311699624
   14     0.00296343729886     0.00033102729716     0.00014169908998     0.00002412159560     0.00003175428590
   15     0.00557919029880     0.00027548603872     0.00035602137478     0.00004013799439     0.00017057731698
   16     0.00277986933589     0.00038433268110     0.00011800890487     0.00001340861604     0.00003035622716
   17     0.02149290953262     0.00187245022926     0.00085976829551     0.00010617950681     0.00025188920127
   18     0.08486770548564     0.01445957983264     0.00340415026260     0.00038704636299     0.00040068460846
   19     0.03261538099802     0.00335337577626     0.00123571473270     0.00016659509000     0.00026225962002
   20     1.31311457061263     0.10206735109200     0.04004334546091     0.00348339372320     0.00357434198216
   21     0.00000000000000     0.97179206350138     0.10535331040027     0.01457253779510     0.01085476526986
   22     0.97179206350138     0.00000000000000     1.40283098870983     0.12803752055178     0.12418908343401
   23     0.10535331040027     1.40283098870983     0.00000000000000     1.46089201888379     0.12580825676795
   24     0.01457253779510     0.12803752055178     1.46089201888379     0.00000000000000     1.40149559710776
   25     0.01085476526986     0.12418908343401     0.12580825676795     1.40149559710776     0.00000000000000
   26     0.01482278091760     0.12738222734948     0.12962964656789     0.12509352848236     1.39764589825930
   27     0.11138673919225     1.38339677093244     0.12346030623063     0.13091652706208     0.12771471439830
   28     0.00071637812461     0.00919708679137     0.01450286596773     0.10919748616524     1.01703771134636
   29     0.00037841289354     0.00445627858968     0.00201689167037     0.02219404759052     0.08798978243143
   30     0.00008938785133     0.00099351387078     0.00188957735003     0.01497630952861     0.02004984319946
   31     0.00007724204080     0.00147148257784     0.00870718519507     0.02307145880217     0.01742251691994
   32     0.00007074006753     0.00066769341218     0.00094888156273     0.00259102871049     0.00392186336396
   33     0.00000856843946     0.00010877461029     0.00022804285850     0.00065315673447     0.00107204465977
   34     0.00010027300387     0.00221644812395     0.00218199449241     0.00592843577267     0.02076188509802
   35     0.00010215459261     0.00107324978481     0.00097216559014     0.00487727865131     0.02124086673693
   36     2.15948954159048     0.13778290841435     0.02539572138812     0.00321797513514     0.00598570848164
[...]
   15     0.00000043216181     0.00000018577030     0.00000093789673     0.00000002204253     0.00000000863118
   16     0.00000008853791     0.00000008555064     0.00000066086685     0.00000003764079     0.00000000815164
   17     0.00000076330393     0.00000058584215     0.00000313430377     0.00000007368948     0.00000005144006
   18     0.00000075734704     0.00000028439821     0.00000636137683     0.00000008896871     0.00000010984734
   19     0.00000069667723     0.00000029558262     0.00000540639344     0.00000017084163     0.00000008281262
   20     0.00000845085057     0.00000249852147     0.00003911016664     0.00000048209658     0.00000029230160
   21     0.00002740596533     0.00000794187759     0.00007118578995     0.00000183598671     0.00000081718262
   22     0.00024413190394     0.00011458579915     0.00146756169095     0.00001227239492     0.00001174417149
   23     0.00035968150136     0.00023175238372     0.00745959871278     0.00002289011210     0.00003042872211
   24     0.00083041892627     0.00073555895898     0.01954536811251     0.00008377159947     0.00007457617843
   25     0.00146212536008     0.00059999954736     0.01051262050948     0.00017765997394     0.00010119559760
   26     0.00050152825024     0.00019823045912     0.00290221924386     0.00008287107338     0.00004101819958
   27     0.00015762651785     0.00010266133346     0.00182828757735     0.00002418688644     0.00002571075629
   28     0.01236622623496     0.00102879528651     0.00566127556323     0.00069741601151     0.00012239499069
   29     0.06578182085591     0.01345163515214     0.01208242017555     0.00335826483325     0.00074491562805
   30     0.77417949844245     0.05846287477077     0.04614078228321     0.01301937620090     0.00406686816529
   31     0.05120608433464     0.82615449407590     0.82175900869427     0.01656916188918     0.02136156641363
   32     0.01411990995063     0.05167371237192     0.05928002189618     0.06741020617522     0.06256021704134
   33     0.01606859788608     0.02420336097394     0.01148998665494     0.91081670931523     0.91988458904078
   34     0.00839263962227     0.01568440995913     0.01908910211108     0.01661907632966     0.01278544913685
   35     0.02335382633738     0.00186581056845     0.00711232157154     0.01276579091802     0.00181591064389
   36     0.00001419175170     0.00000478956914     0.00003886755062     0.00000104282344     0.00000043921841
   37     0.00000003940694     0.00000001397141     0.00000011949485     0.00000000334564     0.00000000156585
   38     0.00000000527068     0.00000000102167     0.00000001669528     0.00000000055099     0.00000000040822
   39     0.00000000164350     0.00000000267083     0.00000001647404     0.00000000023195     0.00000000043460
   40     0.00000022490487     0.00000006436107     0.00000087519196     0.00000001982346     0.00000000758130
   41     0.00000002294854     0.00000006629428     0.00000025740256     0.00000001356065     0.00000002395493
   42     0.00000000034142     0.00000000017463     0.00000000428436     0.00000000013751     0.00000000004758
   43     0.00000000007246     0.00000000018360     0.00000000135835     0.00000000003050     0.00000000003132
   44     0.00000000144833     0.00000000072667     0.00000002199946     0.00000000041845     0.00000000022877
   45     0.00000000496562     0.00000001726822     0.00000004621086     0.00000000294752     0.00000000201287
   46     0.00000021567771     0.00000079542318     0.00000177227489     0.00000003673506     0.00000016150141
   47     0.00000007240058     0.00000004378168     0.00000251545980     0.00000001822565     0.00000000486309
   48     0.00002024630262     0.00000799464282     0.00002276034321     0.00000035820222     0.00000041012564
   49     0.00004936784303     0.00002445878991     0.00061001875356     0.00000220693850     0.00000252814699
   50     0.00010386127181     0.00017848936410     0.00369865911270     0.00003867890965     0.00001914602029
   51     0.00013436902076     0.00001587614023     0.00016917783635     0.00003426617212     0.00000709077874
   52     0.00001071014160     0.00000326661790     0.00004991830913     0.00000208434078     0.00000111574160
   53     0.00123554316767     0.00009026677955     0.00084020074525     0.00006556503932     0.00002039192051
   54     0.00049862507618     0.00041298092579     0.00033191638032     0.00006591619452     0.00002379253397
   55     0.02414688504371     0.00595725376642     0.00781239515319     0.00059040012696     0.00016710287528
   56     0.00000000000000     0.01039323728213     0.01794736346254     0.00831411584093     0.00170429581013
   57     0.01039323728213     0.00000000000000     0.01965491770180     0.00336642908154     0.00782429160903
   58     0.01794736346254     0.01965491770180     0.00000000000000     0.00095246525805     0.00103522474211
   59     0.00831411584093     0.00336642908154     0.00095246525805     0.00000000000000     0.03490839138111
   60     0.00170429581013     0.00782429160903     0.00103522474211     0.03490839138111     0.00000000000000
   61     0.00071631466916     0.00121392337531     0.00070197380495     0.03494704028133     0.03778892001934
   62     0.00040439016424     0.00152117293656     0.00094389205202     0.00321366777700     0.00115653921165
   63     0.00084859968870     0.00101669259438     0.00494543590105     0.00099649897864     0.00066884886590
   64     0.00635805107853     0.00041639488425     0.00094068501074     0.00820174626673     0.00068963685892
   65     0.00095077156582     0.00040690587822     0.00046285174605     0.00058762687680     0.00022253970001
   66     0.00000002260898     0.00000000998902     0.00000003208487     0.00000000194321     0.00000000049330
   67     0.00000001276859     0.00000000610286     0.00000004923968     0.00000000126989     0.00000000042581
   68     0.00000000134896     0.00000000192547     0.00000001150752     0.00000000100366     0.00000000040029

                61                  62                  63                  64                  65

    1     0.00000000540370     0.00000002917242     0.00000064096712     0.00000002848671     0.00000006175502
    2     0.00000000227254     0.00000001463856     0.00000033155389     0.00000001784992     0.00000002588742
    3     0.00000001896451     0.00000004211426     0.00000056076213     0.00000006395161     0.00000004306706
    4     0.00000004513724     0.00000018550758     0.00000212096672     0.00000032442514     0.00000022694497
    5     0.00000005561968     0.00000048862355     0.00000642739661     0.00000047938512     0.00000079136960
    6     0.00000003060028     0.00000013940901     0.00000233692611     0.00000020086165     0.00000020996431
    7     0.00000000522295     0.00000001677087     0.00000011394238     0.00000002415504     0.00000001331025
    8     0.00000000238994     0.00000000543512     0.00000006172278     0.00000000504142     0.00000000323852
    9     0.00000000057346     0.00000000188859     0.00000001556733     0.00000000188268     0.00000000210487
   10     0.00000000142427     0.00000000363478     0.00000004251517     0.00000000410649     0.00000000307888
   11     0.00000000268962     0.00000000494612     0.00000006349688     0.00000001058222     0.00000000626500
   12     0.00000000544900     0.00000002106785     0.00000018926169     0.00000003794889     0.00000001976191
   13     0.00000000194231     0.00000000896449     0.00000019783540     0.00000001799939     0.00000000898537
   14     0.00000002243899     0.00000003794153     0.00000048397080     0.00000013757798     0.00000008741711
   15     0.00000000693837     0.00000014295632     0.00000123309646     0.00000049297524     0.00000008949452
   16     0.00000001238639     0.00000005726215     0.00000057370260     0.00000015858191     0.00000007357225
   17     0.00000004328998     0.00000021867035     0.00000316773203     0.00000078215405     0.00000036765727
   18     0.00000010810493     0.00000035659616     0.00000660802427     0.00000080038902     0.00000143008287
   19     0.00000004469477     0.00000025355830     0.00000494676655     0.00000080123320     0.00000047285122
   20     0.00000032477107     0.00000249895779     0.00003724434612     0.00000847496036     0.00000782348226
   21     0.00000111490380     0.00001188854877     0.00011911910660     0.00003956426050     0.00001915418495
   22     0.00001316682091     0.00013987307237     0.00249654145475     0.00030016267350     0.00018751757024
   23     0.00002455422998     0.00011448799841     0.00231553377987     0.00021985344577     0.00019644686246
   24     0.00004550347332     0.00027380193007     0.00471516371582     0.00058164467555     0.00055958378527
   25     0.00010488110886     0.00070541773606     0.01375951697181     0.00147833654025     0.00560963964442
   26     0.00007273718066     0.00073864933675     0.02087590326715     0.00092141200221     0.00552573197072
   27     0.00003600078479     0.00026268921211     0.00908966540093     0.00041849339231     0.00045645888951
   28     0.00012223722895     0.00105592899248     0.00637133765402     0.01224672481374     0.01902160334573
   29     0.00072233534113     0.01259942014210     0.01190779233493     0.06562847779852     0.06060500095965
   30     0.00182245425537     0.00197739902586     0.00720188807122     0.02343990709048     0.01196271020295
   31     0.01279028337867     0.01509250244979     0.01870485775916     0.00839407557230     0.00273993744208
   32     0.06255818696515     0.05246324203867     0.05969875062779     0.01389291165052     0.01001048663491
   33     0.91971455759784     0.02289906213658     0.01224401466069     0.01598867380638     0.00177907125575
   34     0.02075191967014     0.83924575156824     0.78417077320443     0.05031871310673     0.06292538513827
   35     0.00400200404025     0.05759553082037     0.04415046520065     0.76888848702233     0.90097056428831
   36     0.00000051981297     0.00000443082851     0.00008073707876     0.00001448170197     0.00000603450995
   37     0.00000000176699     0.00000001077041     0.00000011715389     0.00000003281893     0.00000000645072
   38     0.00000000046141     0.00000000315724     0.00000003296830     0.00000000187216     0.00000000832546
   39     0.00000000024788     0.00000000193330     0.00000001464855     0.00000000222713     0.00000000249725
   40     0.00000000369829     0.00000002999173     0.00000039067002     0.00000014442530     0.00000011494788
   41     0.00000000146277     0.00000000773024     0.00000004545062     0.00000004704403     0.00000003983529
   42     0.00000000005464     0.00000000017885     0.00000000380560     0.00000000024154     0.00000000055654
   43     0.00000000007537     0.00000000008923     0.00000000139515     0.00000000026829     0.00000000014299
   44     0.00000000034756     0.00000000066199     0.00000001262287     0.00000000097973     0.00000000204819
   45     0.00000000061815     0.00000000258385     0.00000005807564     0.00000001242795     0.00000002046510
   46     0.00000001307649     0.00000002762728     0.00000051562744     0.00000004571258     0.00000004868376
   47     0.00000001116628     0.00000005307117     0.00000128023673     0.00000029151540     0.00000021374090
   48     0.00000017576322     0.00000144410175     0.00000896235625     0.00000475393618     0.00000144844141
   49     0.00000119765854     0.00000495180708     0.00007156795706     0.00001881483874     0.00002209430710
   50     0.00001001957437     0.00001934320311     0.00035830073708     0.00014920435390     0.00007664474753
   51     0.00001575101079     0.00012221354549     0.00347355544283     0.00010726337184     0.00230488970899
   52     0.00000328743483     0.00002753817918     0.00067823140256     0.00005322334671     0.00002780255786
   53     0.00002251661529     0.00037268221773     0.00038032328561     0.00054163887047     0.00108823831551
   54     0.00002148534028     0.00010225054319     0.00087623963375     0.00122293325561     0.00547046208959
   55     0.00022001314226     0.00039420886976     0.00046884406005     0.00093836487464     0.00113025707445
   56     0.00071631466916     0.00040439016424     0.00084859968870     0.00635805107853     0.00095077156582
   57     0.00121392337531     0.00152117293656     0.00101669259438     0.00041639488425     0.00040690587822
   58     0.00070197380495     0.00094389205202     0.00494543590105     0.00094068501074     0.00046285174605
   59     0.03494704028133     0.00321366777700     0.00099649897864     0.00820174626673     0.00058762687680
   60     0.03778892001934     0.00115653921165     0.00066884886590     0.00068963685892     0.00022253970001
   61     0.00000000000000     0.00732737920789     0.00105994643366     0.00174141358063     0.00016642049163
   62     0.00732737920789     0.00000000000000     0.01798012015473     0.01011722967930     0.00583385101009
   63     0.00105994643366     0.01798012015473     0.00000000000000     0.02255907945532     0.00837555135715
   64     0.00174141358063     0.01011722967930     0.02255907945532     0.00000000000000     0.02499527282254
   65     0.00016642049163     0.00583385101009     0.00837555135715     0.02499527282254     0.00000000000000
   66     0.00000000031552     0.00000000606223     0.00000005422572     0.00000002060560     0.00000000464179
   67     0.00000000026021     0.00000000593032     0.00000005818007     0.00000001945790     0.00000000214388
   68     0.00000000030218     0.00000000079904     0.00000000880548     0.00000000050175     0.00000000180608

                66                  67                  68

    1     0.00000070086042     0.00000123128267     0.00000018361264
    2     0.00000179651732     0.00000326522257     0.00000058626255
    3     0.00001060034250     0.00001050526127     0.00000283491646
    4     0.00000589194867     0.00000786008161     0.00000289846550
    5     0.00000029668388     0.00000080607980     0.00000013701657
    6     0.00000033072523     0.00000175745682     0.00000007977727
    7     0.00004322870361     0.00005171701864     0.00001400181662
    8     0.00007771366838     0.00012288236380     0.00000776253066
    9     0.00004898074519     0.00004968476896     0.00000496183991
   10     0.00030509758581     0.00044311410620     0.00004584231186
   11     0.00078563394419     0.00113626455866     0.00024619729350
   12     0.00026376307451     0.00033104496036     0.00006447861482
   13     0.00910585869194     0.01118939155354     0.00211471393596
   14     0.01620240456418     0.01650666102013     0.00887554728773
   15     0.05824372904575     0.05798680315662     0.05942235201433
   16     0.01550379560445     0.01477515629303     0.02390200730057
   17     0.00127332886248     0.00126824705338     0.00190355336059
   18     0.00301393131521     0.00270889123941     0.00055660634753
   19     0.00118641282563     0.00124482034184     0.00111670485079
   20     0.00036076403356     0.00032761136142     0.00007637801286
   21     0.00021042342010     0.00020155907037     0.00004155474547
   22     0.00001143736652     0.00001095034418     0.00000522455931
   23     0.00001509743870     0.00001330895242     0.00000218000535
   24     0.00000160846558     0.00000151491366     0.00000030492671
   25     0.00000772661334     0.00000656705277     0.00000029849097
   26     0.00000123902120     0.00000094738784     0.00000028130871
   27     0.00001256713770     0.00001037964906     0.00000203533060
   28     0.00000053019711     0.00000053310130     0.00000005077360
   29     0.00000043239983     0.00000035462511     0.00000001793318
   30     0.00000006727010     0.00000005351282     0.00000000749129
   31     0.00000003903280     0.00000001646137     0.00000001551525
   32     0.00000001265900     0.00000000712769     0.00000001093151
   33     0.00000000523900     0.00000000344844     0.00000000307779
   34     0.00000003321098     0.00000002674162     0.00000000891321
   35     0.00000006544528     0.00000004414946     0.00000000651910
   36     0.00012179923837     0.00011683069285     0.00003423959277
   37     0.91879198154490     0.91769410697805     0.92022966451882
   38     0.00000007768837     0.00000008786999     0.00000002903020
   39     0.00000022915625     0.00000038582127     0.00000007392137
   40     0.00000445918536     0.00000538138131     0.00000294404865
   41     0.00000004372036     0.00000007615446     0.00000002427149
   42     0.00000339697563     0.00000473581091     0.00000050046685
   43     0.00000329733682     0.00000391219710     0.00000059790386
   44     0.00507421364102     0.00462184864555     0.00110497560662
   45     0.00129059129144     0.00120903268054     0.00773510393735
   46     0.00022907914013     0.00023898452087     0.00013639370013
   47     0.00017798163474     0.00017588761872     0.00033514107275
   48     0.00004372494009     0.00003802798699     0.00002236441112
   49     0.00000414907503     0.00000320651471     0.00000090717326
   50     0.00000013875777     0.00000006067209     0.00000006592543
   51     0.00000007458621     0.00000009102589     0.00000008357339
   52     0.00000078210984     0.00000065072317     0.00000058660529
   53     0.00000007728748     0.00000004548544     0.00000000968269
   54     0.00000011279147     0.00000007847188     0.00000001017849
   55     0.00000000688116     0.00000000674935     0.00000000159833
   56     0.00000002260898     0.00000001276859     0.00000000134896
   57     0.00000000998902     0.00000000610286     0.00000000192547
   58     0.00000003208487     0.00000004923968     0.00000001150752
   59     0.00000000194321     0.00000000126989     0.00000000100366
   60     0.00000000049330     0.00000000042581     0.00000000040029
   61     0.00000000031552     0.00000000026021     0.00000000030218
   62     0.00000000606223     0.00000000593032     0.00000000079904
   63     0.00000005422572     0.00000005818007     0.00000000880548
   64     0.00000002060560     0.00000001945790     0.00000000050175
   65     0.00000000464179     0.00000000214388     0.00000000180608
   66     0.00000000000000     0.03485298949877     0.03833839797917
   67     0.03485298949877     0.00000000000000     0.03851172992658
   68     0.03833839797917     0.03851172992658     0.00000000000000



  Atomic Valences: 

 #  #
 Irrep: 1
      1:  4.3941457
      2:  4.4298591
      3:  4.6019542
      4:  4.5769611
      5:  3.9004006
      6:  4.5497762
      7:  4.7339087
      8:  4.3752267
      9:  4.5307221
     10:  3.8686184
     11:  4.9996999
     12:  3.9355586
     13:  4.0431943
     14:  4.6715877
     15:  4.6272458
     16:  4.4412222
     17:  4.3852830
     18:  4.6620230
     19:  4.4276927
     20:  4.0603354
     21:  4.9970323
     22:  4.6190392
     23:  4.4417379
     24:  4.4741209
     25:  4.7161792
     26:  4.4721647
     27:  4.4392521
     28:  4.4929026
     29:  4.2534332
     30:  4.5647039
     31:  4.5781955
     32:  4.2286891
     33:  4.2984305
     34:  4.5711820
     35:  4.5601166
     36:  2.8584804
     37:  4.1509666
     38:  1.1000083
     39:  1.1050218
     40:  1.1208361
     41:  1.0922241
     42:  1.1121356
     43:  1.0868062
     44:  1.1803944
     45:  1.1009802
     46:  1.1020548
     47:  1.1293704
     48:  1.1793107
     49:  1.1040691
     50:  1.1065780
     51:  1.1048525
     52:  1.0996411
     53:  1.1065128
     54:  1.1064193
     55:  1.1285422
     56:  1.0429160
     57:  1.0470309
     58:  1.0876290
     59:  1.1379513
     60:  1.1098691
     61:  1.1087410
     62:  1.0547276
     63:  1.0627388
     64:  1.0418411
     65:  1.1347112
     66:  1.1056333
     67:  1.1058923
     68:  1.1048637


    Psi4 stopped on: Tuesday, 10 March 2020 10:46AM
    Psi4 wall time for execution: 0:27:36.04

*** Psi4 exiting successfully. Buy a developer a beer!
