
    -----------------------------------------------------------------------
          Psi4: An Open-Source Ab Initio Electronic Structure Package
                               Psi4 1.3.2 release

                         Git: Rev {HEAD} ecbda83 


    R. M. Parrish, L. A. Burns, D. G. A. Smith, A. C. Simmonett,
    A. E. DePrince III, E. G. Hohenstein, U. Bozkaya, A. Yu. Sokolov,
    R. Di Remigio, R. M. Richard, J. F. Gonthier, A. M. James,
    H. R. McAlexander, A. Kumar, M. Saitow, X. Wang, B. P. Pritchard,
    P. Verma, H. F. Schaefer III, K. Patkowski, R. A. King, E. F. Valeev,
    F. A. Evangelista, J. M. Turney, T. D. Crawford, and C. D. Sherrill,
    J. Chem. Theory Comput. 13(7) pp 3185--3197 (2017).
    (doi: 10.1021/acs.jctc.7b00174)


                         Additional Contributions by
    P. Kraus, H. Kruse, M. H. Lechner, M. C. Schieber, R. A. Shaw,
    A. Alenaizan, R. Galvelis, Z. L. Glick, S. Lehtola, and J. P. Misiewicz

    -----------------------------------------------------------------------


    Psi4 started on: Friday, 24 April 2020 11:59AM

    Process ID: 74339
    Host:       node45.bme.utexas.edu
    PSIDATADIR: /home/bdw2292/miniconda3/envs/p4env/share/psi4
    Memory:     500.0 MiB
    Threads:    1
    
  ==> Input File <==

--------------------------------------------------------------------------
molecule { 
0 1
 C    1.291995    4.988277   -0.563021
 C    2.609149    4.528559   -0.428567
 C    2.854910    3.165240   -0.174178
 C    1.706455    2.347423   -0.037114
 N    0.440571    2.766990   -0.159623
 C    0.246337    4.068181   -0.425172
 C    4.234728    2.571691   -0.035550
 C    5.431597    3.303291    0.031616
 C    6.598921    2.548462    0.199636
 N    6.630477    1.219462    0.275832
 C    5.439004    0.596131    0.174976
 N    4.273089    1.228355    0.029838
 N    5.482435   -0.787157    0.245221
 C    4.471737   -1.818705    0.214750
 C    4.831050   -3.170705    0.502603
 C    3.803570   -4.129747    0.483536
 C    2.463856   -3.837612    0.200068
 C    2.125556   -2.514122   -0.099243
 C    3.135316   -1.539690   -0.097029
 N    0.816807   -2.033425   -0.428041
 C   -0.426545   -2.614130   -0.330591
 C   -1.636674   -1.759227   -0.668166
 C   -1.662578   -0.355399   -0.589361
 C   -2.798248    0.356956   -0.980992
 C   -3.959224   -0.298199   -1.432717
 C   -3.931125   -1.705067   -1.480474
 C   -2.795267   -2.425343   -1.103422
 C   -5.211059    0.487549   -1.827595
 N   -6.230456    0.796642   -0.810867
 C   -5.893146    1.746231    0.274296
 C   -5.383449    1.085199    1.581503
 N   -6.276698    0.025938    2.109545
 C   -7.428659    0.474604    2.900658
 C   -6.554013   -0.947949    1.026071
 C   -7.073063   -0.301480   -0.284773
 O   -0.574420   -3.777434    0.012061
 C    6.247653   -3.601467    0.843390
 H    1.080265    6.032965   -0.771490
 H    3.422689    5.239836   -0.548157
 H    1.807044    1.296255    0.211532
 H   -0.794082    4.375533   -0.520047
 H    5.494006    4.383735   -0.010607
 H    7.578300    3.018394    0.283716
 H    6.436617   -1.082748    0.385749
 H    4.045073   -5.168476    0.705484
 H    1.698166   -4.603307    0.209486
 H    2.878369   -0.527269   -0.353420
 H    0.808310   -1.085417   -0.775355
 H   -0.794637    0.187632   -0.222498
 H   -2.776395    1.444388   -0.913216
 H   -4.812780   -2.252877   -1.811622
 H   -2.789191   -3.511814   -1.147362
 H   -4.891000    1.448581   -2.254647
 H   -5.722031   -0.062561   -2.630547
 H   -5.126981    2.553858   -0.111153
 H   -7.146375    2.483928    0.608817
 H   -5.209384    1.957327    2.473045
 H   -4.136258    0.484286    1.344451
 H   -8.130007    1.046235    2.282524
 H   -7.093892    1.106459    3.731363
 H   -7.954169   -0.387698    3.326740
 H   -7.368911   -1.802541    1.442878
 H   -5.358973   -1.615607    0.770440
 H   -8.405518    0.276340    0.001892
 H   -7.244549   -1.146662   -1.138321
 H    6.661108   -3.061407    1.707107
 H    6.923427   -3.428292    0.001193
 H    6.317473   -4.664888    1.086648
}
memory 20GB
set_num_threads(6)
psi4_io.set_default_path("/scratch/bdw2292")
set freeze_core True
E, wfn = energy('mp2/6-311+G*',return_wfn=True)
oeprop(wfn,"WIBERG_LOWDIN_INDICES")
clean()
--------------------------------------------------------------------------

  Memory set to  18.626 GiB by Python driver.
  Threads set to 6 by Python driver.
    SCF Algorithm Type (re)set to DF.

*** tstart() called on node45.bme.utexas.edu
*** at Fri Apr 24 11:59:23 2020

   => Loading Basis Set <=

    Name: 6-311+G*
    Role: ORBITAL
    Keyword: BASIS
    atoms 1-4, 6-9, 11, 14-19, 21-28, 30-31, 33-35, 37 entry C          line   130 file /home/bdw2292/miniconda3/envs/p4env/share/psi4/basis/6-311pgs.gbs 
    atoms 5, 10, 12-13, 20, 29, 32                     entry N          line   151 file /home/bdw2292/miniconda3/envs/p4env/share/psi4/basis/6-311pgs.gbs 
    atoms 36                                           entry O          line   172 file /home/bdw2292/miniconda3/envs/p4env/share/psi4/basis/6-311pgs.gbs 
    atoms 38-68                                        entry H          line    47 file /home/bdw2292/miniconda3/envs/p4env/share/psi4/basis/6-311pgs.gbs 


         ---------------------------------------------------------
                                   SCF
               by Justin Turney, Rob Parrish, Andy Simmonett
                          and Daniel G. A. Smith
                              RHF Reference
                        6 Threads,  19073 MiB Core
         ---------------------------------------------------------

  ==> Geometry <==

    Molecular point group: c1
    Full point group: C1

    Geometry (in Angstrom), charge = 0, multiplicity = 1:

       Center              X                  Y                   Z               Mass       
    ------------   -----------------  -----------------  -----------------  -----------------
         C            1.181143436993     4.983066763122    -0.562589930689    12.000000000000
         C            2.498297436993     4.523348763122    -0.428135930689    12.000000000000
         C            2.744058436993     3.160029763122    -0.173746930689    12.000000000000
         C            1.595603436993     2.342212763122    -0.036682930689    12.000000000000
         N            0.329719436993     2.761779763122    -0.159191930689    14.003074004430
         C            0.135485436993     4.062970763122    -0.424740930689    12.000000000000
         C            4.123876436993     2.566480763122    -0.035118930689    12.000000000000
         C            5.320745436993     3.298080763122     0.032047069311    12.000000000000
         C            6.488069436993     2.543251763122     0.200067069311    12.000000000000
         N            6.519625436993     1.214251763122     0.276263069311    14.003074004430
         C            5.328152436993     0.590920763122     0.175407069311    12.000000000000
         N            4.162237436993     1.223144763122     0.030269069311    14.003074004430
         N            5.371583436993    -0.792367236878     0.245652069311    14.003074004430
         C            4.360885436993    -1.823915236878     0.215181069311    12.000000000000
         C            4.720198436993    -3.175915236878     0.503034069311    12.000000000000
         C            3.692718436993    -4.134957236878     0.483967069311    12.000000000000
         C            2.353004436993    -3.842822236878     0.200499069311    12.000000000000
         C            2.014704436993    -2.519332236878    -0.098811930689    12.000000000000
         C            3.024464436993    -1.544900236878    -0.096597930689    12.000000000000
         N            0.705955436993    -2.038635236878    -0.427609930689    14.003074004430
         C           -0.537396563007    -2.619340236878    -0.330159930689    12.000000000000
         C           -1.747525563007    -1.764437236878    -0.667734930689    12.000000000000
         C           -1.773429563007    -0.360609236878    -0.588929930689    12.000000000000
         C           -2.909099563007     0.351745763122    -0.980560930689    12.000000000000
         C           -4.070075563007    -0.303409236878    -1.432285930689    12.000000000000
         C           -4.041976563007    -1.710277236878    -1.480042930689    12.000000000000
         C           -2.906118563007    -2.430553236878    -1.102990930689    12.000000000000
         C           -5.321910563007     0.482338763122    -1.827163930689    12.000000000000
         N           -6.341307563007     0.791431763122    -0.810435930689    14.003074004430
         C           -6.003997563007     1.741020763122     0.274727069311    12.000000000000
         C           -5.494300563007     1.079988763122     1.581934069311    12.000000000000
         N           -6.387549563007     0.020727763122     2.109976069311    14.003074004430
         C           -7.539510563007     0.469393763122     2.901089069311    12.000000000000
         C           -6.664864563007    -0.953159236878     1.026502069311    12.000000000000
         C           -7.183914563007    -0.306690236878    -0.284341930689    12.000000000000
         O           -0.685271563007    -3.782644236878     0.012492069311    15.994914619570
         C            6.136801436993    -3.606677236878     0.843821069311    12.000000000000
         H            0.969413436993     6.027754763122    -0.771058930689     1.007825032230
         H            3.311837436993     5.234625763122    -0.547725930689     1.007825032230
         H            1.696192436993     1.291044763122     0.211963069311     1.007825032230
         H           -0.904933563007     4.370322763122    -0.519615930689     1.007825032230
         H            5.383154436993     4.378524763122    -0.010175930689     1.007825032230
         H            7.467448436993     3.013183763122     0.284147069311     1.007825032230
         H            6.325765436993    -1.087958236878     0.386180069311     1.007825032230
         H            3.934221436993    -5.173686236878     0.705915069311     1.007825032230
         H            1.587314436993    -4.608517236878     0.209917069311     1.007825032230
         H            2.767517436993    -0.532479236878    -0.352988930689     1.007825032230
         H            0.697458436993    -1.090627236878    -0.774923930689     1.007825032230
         H           -0.905488563007     0.182421763122    -0.222066930689     1.007825032230
         H           -2.887246563007     1.439177763122    -0.912784930689     1.007825032230
         H           -4.923631563007    -2.258087236878    -1.811190930689     1.007825032230
         H           -2.900042563007    -3.517024236878    -1.146930930689     1.007825032230
         H           -5.001851563007     1.443370763122    -2.254215930689     1.007825032230
         H           -5.832882563007    -0.067771236878    -2.630115930689     1.007825032230
         H           -5.237832563007     2.548647763122    -0.110721930689     1.007825032230
         H           -7.257226563007     2.478717763122     0.609248069311     1.007825032230
         H           -5.320235563007     1.952116763122     2.473476069311     1.007825032230
         H           -4.247109563007     0.479075763122     1.344882069311     1.007825032230
         H           -8.240858563007     1.041024763122     2.282955069311     1.007825032230
         H           -7.204743563007     1.101248763122     3.731794069311     1.007825032230
         H           -8.065020563007    -0.392908236878     3.327171069311     1.007825032230
         H           -7.479762563007    -1.807751236878     1.443309069311     1.007825032230
         H           -5.469824563007    -1.620817236878     0.770871069311     1.007825032230
         H           -8.516369563007     0.271129763122     0.002323069311     1.007825032230
         H           -7.355400563007    -1.151872236878    -1.137889930689     1.007825032230
         H            6.550256436993    -3.066617236878     1.707538069311     1.007825032230
         H            6.812575436993    -3.433502236878     0.001624069311     1.007825032230
         H            6.206621436993    -4.670098236878     1.087079069311     1.007825032230

  Running in c1 symmetry.

  Rotational constants: A =      0.00486  B =      0.00163  C =      0.00130 [cm^-1]
  Rotational constants: A =    145.60605  B =     48.86153  C =     39.07377 [MHz]
  Nuclear repulsion = 3696.172545100591833

  Charge       = 0
  Multiplicity = 1
  Electrons    = 262
  Nalpha       = 131
  Nbeta        = 131

  ==> Algorithm <==

  SCF Algorithm Type is DF.
  DIIS enabled.
  MOM disabled.
  Fractional occupation disabled.
  Guess Type is SAD.
  Energy threshold   = 1.00e-08
  Density threshold  = 1.00e-08
  Integral threshold = 0.00e+00

  ==> Primary Basis <==

  Basis Set: 6-311+G*
    Blend: 6-311+G*
    Number of shells: 463
    Number of basis function: 907
    Number of Cartesian functions: 944
    Spherical Harmonics?: true
    Max angular momentum: 2

   => Loading Basis Set <=

    Name: (6-311+G* AUX)
    Role: JKFIT
    Keyword: DF_BASIS_SCF
    atoms 1-4, 6-9, 11, 14-19, 21-28, 30-31, 33-35, 37 entry C          line   200 file /home/bdw2292/miniconda3/envs/p4env/share/psi4/basis/heavy-aug-cc-pvtz-jkfit.gbs 
    atoms 5, 10, 12-13, 20, 29, 32                     entry N          line   262 file /home/bdw2292/miniconda3/envs/p4env/share/psi4/basis/heavy-aug-cc-pvtz-jkfit.gbs 
    atoms 36                                           entry O          line   324 file /home/bdw2292/miniconda3/envs/p4env/share/psi4/basis/heavy-aug-cc-pvtz-jkfit.gbs 
    atoms 38-68                                        entry H          line   116 file /home/bdw2292/miniconda3/envs/p4env/share/psi4/basis/heavy-aug-cc-pvtz-jkfit.gbs 

  ==> Pre-Iterations <==

   -------------------------------------------------------
    Irrep   Nso     Nmo     Nalpha   Nbeta   Ndocc  Nsocc
   -------------------------------------------------------
     A        907     907       0       0       0       0
   -------------------------------------------------------
    Total     907     907     131     131     131       0
   -------------------------------------------------------

  ==> Integral Setup <==

  ==> DiskDFJK: Density-Fitted J/K Matrices <==

    J tasked:                  Yes
    K tasked:                  Yes
    wK tasked:                  No
    OpenMP threads:              6
    Integrals threads:           6
    Memory [MiB]:            14305
    Algorithm:                Core
    Integral Cache:           NONE
    Schwarz Cutoff:          1E-12
    Fitting Condition:       1E-10

   => Auxiliary Basis Set <=

  Basis Set: (6-311+G* AUX)
    Blend: HEAVY-AUG-CC-PVTZ-JKFIT
    Number of shells: 1420
    Number of basis function: 4778
    Number of Cartesian functions: 5932
    Spherical Harmonics?: true
    Max angular momentum: 4

  Minimum eigenvalue in the overlap matrix is 1.8374248583E-07.
  Using Symmetric Orthogonalization.

  SCF Guess: Superposition of Atomic Densities via on-the-fly atomic UHF.

  ==> Iterations <==

                           Total Energy        Delta E     RMS |[F,P]|

   @DF-RHF iter SAD: -1571.06715866834429   -1.57107e+03   0.00000e+00 
   @DF-RHF iter   1: -1571.34761138733438   -2.80453e-01   1.37218e-03 DIIS
   @DF-RHF iter   2: -1572.10235251954896   -7.54741e-01   7.22472e-04 DIIS
   @DF-RHF iter   3: -1572.29058035750018   -1.88228e-01   1.85816e-04 DIIS
   @DF-RHF iter   4: -1572.30701794168885   -1.64376e-02   7.34356e-05 DIIS
   @DF-RHF iter   5: -1572.30948035578194   -2.46241e-03   1.51520e-05 DIIS
   @DF-RHF iter   6: -1572.30962708386892   -1.46728e-04   6.60412e-06 DIIS
   @DF-RHF iter   7: -1572.30966108869166   -3.40048e-05   2.18326e-06 DIIS
   @DF-RHF iter   8: -1572.30966643772240   -5.34903e-06   8.69059e-07 DIIS
   @DF-RHF iter   9: -1572.30966734667959   -9.08957e-07   3.63717e-07 DIIS
   @DF-RHF iter  10: -1572.30966753085386   -1.84174e-07   1.62336e-07 DIIS
   @DF-RHF iter  11: -1572.30966756878934   -3.79355e-08   7.69499e-08 DIIS
   @DF-RHF iter  12: -1572.30966757879924   -1.00099e-08   3.01572e-08 DIIS
   @DF-RHF iter  13: -1572.30966758076897   -1.96974e-09   1.31707e-08 DIIS
   @DF-RHF iter  14: -1572.30966758123554   -4.66571e-10   6.18110e-09 DIIS
  Energy and wave function converged.


  ==> Post-Iterations <==

    Orbital Energies [Eh]
    ---------------------

    Doubly Occupied:                                                      

       1A    -20.519084     2A    -15.605391     3A    -15.601746  
       4A    -15.588451     5A    -15.574420     6A    -15.569346  
       7A    -15.568523     8A    -15.552769     9A    -11.375741  
      10A    -11.364122    11A    -11.335517    12A    -11.315009  
      13A    -11.312783    14A    -11.311261    15A    -11.303270  
      16A    -11.303165    17A    -11.302519    18A    -11.302410  
      19A    -11.301064    20A    -11.292490    21A    -11.291344  
      22A    -11.281787    23A    -11.277191    24A    -11.267681  
      25A    -11.256964    26A    -11.256006    27A    -11.254020  
      28A    -11.253846    29A    -11.248474    30A    -11.247228  
      31A    -11.245406    32A    -11.244624    33A    -11.244404  
      34A    -11.240248    35A    -11.234218    36A    -11.230247  
      37A    -11.225049    38A     -1.385095    39A     -1.345788  
      40A     -1.280322    41A     -1.250848    42A     -1.243561  
      43A     -1.241819    44A     -1.210422    45A     -1.197882  
      46A     -1.160902    47A     -1.140108    48A     -1.117613  
      49A     -1.076625    50A     -1.058984    51A     -1.049701  
      52A     -1.037854    53A     -1.022813    54A     -1.008336  
      55A     -0.990365    56A     -0.975368    57A     -0.946700  
      58A     -0.927922    59A     -0.926641    60A     -0.901933  
      61A     -0.874325    62A     -0.865120    63A     -0.859406  
      64A     -0.841584    65A     -0.834469    66A     -0.825638  
      67A     -0.824902    68A     -0.804625    69A     -0.778522  
      70A     -0.755852    71A     -0.740775    72A     -0.731317  
      73A     -0.723749    74A     -0.700696    75A     -0.694138  
      76A     -0.684390    77A     -0.672813    78A     -0.667838  
      79A     -0.659505    80A     -0.655280    81A     -0.652912  
      82A     -0.640547    83A     -0.636676    84A     -0.630399  
      85A     -0.622410    86A     -0.618439    87A     -0.613219  
      88A     -0.608078    89A     -0.603961    90A     -0.603355  
      91A     -0.600027    92A     -0.596338    93A     -0.592740  
      94A     -0.589804    95A     -0.585748    96A     -0.581851  
      97A     -0.578986    98A     -0.573015    99A     -0.564539  
     100A     -0.562904   101A     -0.548916   102A     -0.546516  
     103A     -0.530668   104A     -0.525557   105A     -0.521563  
     106A     -0.521255   107A     -0.514594   108A     -0.510241  
     109A     -0.506124   110A     -0.505015   111A     -0.503336  
     112A     -0.493325   113A     -0.484939   114A     -0.480711  
     115A     -0.459842   116A     -0.452588   117A     -0.444401  
     118A     -0.433540   119A     -0.427319   120A     -0.424329  
     121A     -0.415027   122A     -0.405454   123A     -0.401501  
     124A     -0.380041   125A     -0.374686   126A     -0.347311  
     127A     -0.344934   128A     -0.339911   129A     -0.314981  
     130A     -0.310759   131A     -0.289492  

    Virtual:                                                              

     132A      0.041530   133A      0.046874   134A      0.054147  
     135A      0.062034   136A      0.065334   137A      0.069802  
     138A      0.071206   139A      0.071447   140A      0.075526  
     141A      0.080200   142A      0.081313   143A      0.082510  
     144A      0.084324   145A      0.087868   146A      0.090427  
     147A      0.091703   148A      0.095939   149A      0.096904  
     150A      0.099396   151A      0.100628   152A      0.103267  
     153A      0.106816   154A      0.108793   155A      0.109913  
     156A      0.113256   157A      0.116084   158A      0.116445  
     159A      0.118355   160A      0.125347   161A      0.126284  
     162A      0.128368   163A      0.129371   164A      0.132476  
     165A      0.134911   166A      0.137268   167A      0.138505  
     168A      0.142547   169A      0.143246   170A      0.145787  
     171A      0.149036   172A      0.150505   173A      0.154230  
     174A      0.157621   175A      0.161044   176A      0.163488  
     177A      0.164200   178A      0.166054   179A      0.169118  
     180A      0.172409   181A      0.172882   182A      0.177741  
     183A      0.177894   184A      0.181515   185A      0.185263  
     186A      0.187132   187A      0.191082   188A      0.191957  
     189A      0.195527   190A      0.197340   191A      0.199849  
     192A      0.200709   193A      0.204418   194A      0.208655  
     195A      0.212877   196A      0.213708   197A      0.214299  
     198A      0.216413   199A      0.220943   200A      0.224258  
     201A      0.225515   202A      0.227186   203A      0.229317  
     204A      0.230350   205A      0.234304   206A      0.235303  
     207A      0.239863   208A      0.240428   209A      0.244545  
     210A      0.246509   211A      0.250621   212A      0.251564  
     213A      0.254236   214A      0.256681   215A      0.258570  
     216A      0.261220   217A      0.263900   218A      0.267538  
     219A      0.269471   220A      0.271264   221A      0.274534  
     222A      0.276690   223A      0.277390   224A      0.279046  
     225A      0.280592   226A      0.281999   227A      0.283725  
     228A      0.285996   229A      0.286850   230A      0.291530  
     231A      0.292275   232A      0.294610   233A      0.297368  
     234A      0.301873   235A      0.304892   236A      0.306634  
     237A      0.307037   238A      0.307636   239A      0.309260  
     240A      0.314016   241A      0.314839   242A      0.317408  
     243A      0.317864   244A      0.319635   245A      0.322281  
     246A      0.325353   247A      0.328024   248A      0.328793  
     249A      0.329943   250A      0.330434   251A      0.335488  
     252A      0.336291   253A      0.337595   254A      0.341031  
     255A      0.341427   256A      0.342700   257A      0.345226  
     258A      0.348218   259A      0.348772   260A      0.350637  
     261A      0.352945   262A      0.353322   263A      0.357498  
     264A      0.358401   265A      0.361122   266A      0.362621  
     267A      0.365163   268A      0.367510   269A      0.367591  
     270A      0.369130   271A      0.372080   272A      0.373277  
     273A      0.377900   274A      0.379654   275A      0.380956  
     276A      0.383078   277A      0.384840   278A      0.386230  
     279A      0.387524   280A      0.388373   281A      0.392875  
     282A      0.393631   283A      0.394811   284A      0.395711  
     285A      0.398647   286A      0.400975   287A      0.402758  
     288A      0.403315   289A      0.405211   290A      0.408259  
     291A      0.409021   292A      0.411415   293A      0.413911  
     294A      0.418803   295A      0.420314   296A      0.423247  
     297A      0.424507   298A      0.425497   299A      0.430696  
     300A      0.431788   301A      0.434764   302A      0.438294  
     303A      0.439607   304A      0.440229   305A      0.441914  
     306A      0.445378   307A      0.451249   308A      0.452668  
     309A      0.453928   310A      0.456517   311A      0.459953  
     312A      0.460200   313A      0.463071   314A      0.468046  
     315A      0.469776   316A      0.470794   317A      0.477414  
     318A      0.482811   319A      0.485459   320A      0.486918  
     321A      0.491742   322A      0.493613   323A      0.498380  
     324A      0.501423   325A      0.505888   326A      0.507577  
     327A      0.508494   328A      0.512324   329A      0.517419  
     330A      0.520863   331A      0.523179   332A      0.524931  
     333A      0.528882   334A      0.533541   335A      0.536018  
     336A      0.536692   337A      0.538565   338A      0.544049  
     339A      0.549243   340A      0.550576   341A      0.558082  
     342A      0.566605   343A      0.572283   344A      0.573938  
     345A      0.579603   346A      0.580758   347A      0.587808  
     348A      0.593151   349A      0.593933   350A      0.605369  
     351A      0.610529   352A      0.614781   353A      0.616753  
     354A      0.619863   355A      0.627349   356A      0.632878  
     357A      0.644191   358A      0.656243   359A      0.660765  
     360A      0.662143   361A      0.665905   362A      0.681968  
     363A      0.686340   364A      0.693240   365A      0.699779  
     366A      0.701304   367A      0.711022   368A      0.715311  
     369A      0.716636   370A      0.718573   371A      0.725227  
     372A      0.728264   373A      0.730124   374A      0.735876  
     375A      0.743803   376A      0.746002   377A      0.748893  
     378A      0.755052   379A      0.755958   380A      0.759725  
     381A      0.762308   382A      0.764196   383A      0.769472  
     384A      0.771473   385A      0.772026   386A      0.775152  
     387A      0.781564   388A      0.789182   389A      0.791109  
     390A      0.795843   391A      0.796124   392A      0.800940  
     393A      0.806077   394A      0.806962   395A      0.809339  
     396A      0.813905   397A      0.821132   398A      0.824783  
     399A      0.825806   400A      0.831577   401A      0.838984  
     402A      0.840247   403A      0.843828   404A      0.847017  
     405A      0.849464   406A      0.856424   407A      0.857330  
     408A      0.861714   409A      0.863866   410A      0.869229  
     411A      0.874649   412A      0.878785   413A      0.880137  
     414A      0.881613   415A      0.886340   416A      0.891969  
     417A      0.894281   418A      0.900223   419A      0.901165  
     420A      0.902767   421A      0.906880   422A      0.908961  
     423A      0.912247   424A      0.913237   425A      0.918854  
     426A      0.919691   427A      0.920806   428A      0.923106  
     429A      0.923898   430A      0.929984   431A      0.931884  
     432A      0.937161   433A      0.938395   434A      0.941289  
     435A      0.943668   436A      0.945035   437A      0.953251  
     438A      0.955824   439A      0.960234   440A      0.962760  
     441A      0.966601   442A      0.969320   443A      0.970814  
     444A      0.974034   445A      0.980554   446A      0.981724  
     447A      0.991109   448A      0.992771   449A      0.994375  
     450A      1.004274   451A      1.005148   452A      1.013149  
     453A      1.015969   454A      1.023467   455A      1.028417  
     456A      1.030875   457A      1.033946   458A      1.037511  
     459A      1.047941   460A      1.051592   461A      1.055323  
     462A      1.056931   463A      1.061902   464A      1.068158  
     465A      1.070775   466A      1.071405   467A      1.077236  
     468A      1.089774   469A      1.093860   470A      1.097964  
     471A      1.105216   472A      1.111193   473A      1.116131  
     474A      1.121987   475A      1.125382   476A      1.129043  
     477A      1.131453   478A      1.132796   479A      1.139532  
     480A      1.141593   481A      1.147456   482A      1.154962  
     483A      1.157096   484A      1.158802   485A      1.165324  
     486A      1.169713   487A      1.172408   488A      1.176343  
     489A      1.178437   490A      1.187593   491A      1.189288  
     492A      1.191116   493A      1.192574   494A      1.201300  
     495A      1.209226   496A      1.212199   497A      1.219269  
     498A      1.224924   499A      1.227600   500A      1.231375  
     501A      1.237482   502A      1.240457   503A      1.249753  
     504A      1.252928   505A      1.253333   506A      1.256458  
     507A      1.264922   508A      1.265954   509A      1.270771  
     510A      1.272261   511A      1.280691   512A      1.287226  
     513A      1.289874   514A      1.294399   515A      1.300457  
     516A      1.301831   517A      1.305834   518A      1.312446  
     519A      1.325148   520A      1.326843   521A      1.333798  
     522A      1.337757   523A      1.342966   524A      1.350258  
     525A      1.366066   526A      1.368763   527A      1.377968  
     528A      1.383811   529A      1.385891   530A      1.403604  
     531A      1.407589   532A      1.420078   533A      1.433080  
     534A      1.437811   535A      1.446006   536A      1.450944  
     537A      1.452193   538A      1.456547   539A      1.461926  
     540A      1.465426   541A      1.474655   542A      1.480624  
     543A      1.482117   544A      1.493183   545A      1.495501  
     546A      1.498174   547A      1.509678   548A      1.512602  
     549A      1.541797   550A      1.544222   551A      1.548640  
     552A      1.551695   553A      1.567513   554A      1.569067  
     555A      1.577374   556A      1.586629   557A      1.590036  
     558A      1.600624   559A      1.609366   560A      1.623059  
     561A      1.634812   562A      1.644587   563A      1.657219  
     564A      1.667679   565A      1.675838   566A      1.704881  
     567A      1.706428   568A      1.716176   569A      1.716522  
     570A      1.740660   571A      1.747459   572A      1.751653  
     573A      1.771673   574A      1.772628   575A      1.787570  
     576A      1.791152   577A      1.800200   578A      1.806411  
     579A      1.812251   580A      1.821298   581A      1.827099  
     582A      1.828941   583A      1.831804   584A      1.837489  
     585A      1.840318   586A      1.849297   587A      1.856878  
     588A      1.858368   589A      1.858899   590A      1.864010  
     591A      1.864747   592A      1.866884   593A      1.871051  
     594A      1.876949   595A      1.885656   596A      1.890321  
     597A      1.893229   598A      1.894275   599A      1.921815  
     600A      1.929698   601A      1.937042   602A      1.939880  
     603A      1.945137   604A      1.966796   605A      1.970971  
     606A      1.977910   607A      1.991556   608A      1.998257  
     609A      2.008399   610A      2.010353   611A      2.030234  
     612A      2.031476   613A      2.038690   614A      2.042572  
     615A      2.047187   616A      2.061791   617A      2.071728  
     618A      2.077744   619A      2.083121   620A      2.088801  
     621A      2.089743   622A      2.094872   623A      2.100812  
     624A      2.112529   625A      2.120171   626A      2.124171  
     627A      2.130061   628A      2.140382   629A      2.154557  
     630A      2.158262   631A      2.171256   632A      2.172267  
     633A      2.182899   634A      2.187199   635A      2.193383  
     636A      2.200609   637A      2.210909   638A      2.212544  
     639A      2.215508   640A      2.227050   641A      2.229893  
     642A      2.238269   643A      2.239574   644A      2.240983  
     645A      2.248646   646A      2.253636   647A      2.256017  
     648A      2.257916   649A      2.262327   650A      2.268304  
     651A      2.274838   652A      2.281706   653A      2.288844  
     654A      2.297555   655A      2.313631   656A      2.316625  
     657A      2.367017   658A      2.376032   659A      2.380614  
     660A      2.395595   661A      2.403812   662A      2.423692  
     663A      2.428450   664A      2.432887   665A      2.460597  
     666A      2.469704   667A      2.491926   668A      2.505585  
     669A      2.507632   670A      2.513240   671A      2.536626  
     672A      2.545997   673A      2.556140   674A      2.570448  
     675A      2.591217   676A      2.622832   677A      2.631748  
     678A      2.642101   679A      2.644939   680A      2.651846  
     681A      2.655427   682A      2.659902   683A      2.661810  
     684A      2.666816   685A      2.673228   686A      2.678509  
     687A      2.683903   688A      2.686295   689A      2.688879  
     690A      2.694133   691A      2.709929   692A      2.723801  
     693A      2.742705   694A      2.767207   695A      2.768224  
     696A      2.772896   697A      2.778665   698A      2.782866  
     699A      2.801354   700A      2.802930   701A      2.828691  
     702A      2.839680   703A      2.843093   704A      2.859102  
     705A      2.862227   706A      2.869801   707A      2.874533  
     708A      2.885682   709A      2.894902   710A      2.907127  
     711A      2.908200   712A      2.915943   713A      2.923764  
     714A      2.935297   715A      2.941953   716A      2.952209  
     717A      2.957812   718A      2.980068   719A      2.986058  
     720A      2.992185   721A      3.005164   722A      3.015892  
     723A      3.017785   724A      3.030584   725A      3.035751  
     726A      3.038910   727A      3.040452   728A      3.048539  
     729A      3.053878   730A      3.063316   731A      3.076780  
     732A      3.080589   733A      3.086384   734A      3.095825  
     735A      3.101149   736A      3.117647   737A      3.136501  
     738A      3.146993   739A      3.152043   740A      3.156052  
     741A      3.162225   742A      3.172177   743A      3.175118  
     744A      3.187252   745A      3.198674   746A      3.211310  
     747A      3.213989   748A      3.215076   749A      3.227786  
     750A      3.234399   751A      3.238753   752A      3.244013  
     753A      3.255586   754A      3.266077   755A      3.283957  
     756A      3.288272   757A      3.294903   758A      3.308069  
     759A      3.316348   760A      3.329415   761A      3.337067  
     762A      3.340553   763A      3.342873   764A      3.360950  
     765A      3.364222   766A      3.370043   767A      3.378972  
     768A      3.381882   769A      3.387927   770A      3.397874  
     771A      3.414738   772A      3.419773   773A      3.431387  
     774A      3.439900   775A      3.474134   776A      3.496856  
     777A      3.506257   778A      3.532943   779A      3.540131  
     780A      3.561840   781A      3.564267   782A      3.568606  
     783A      3.577364   784A      3.596729   785A      3.600067  
     786A      3.622951   787A      3.634330   788A      3.636591  
     789A      3.646455   790A      3.681850   791A      3.690855  
     792A      3.698261   793A      3.706844   794A      3.716369  
     795A      3.720099   796A      3.725495   797A      3.737573  
     798A      3.749784   799A      3.762328   800A      3.763392  
     801A      3.768023   802A      3.775389   803A      3.779363  
     804A      3.781750   805A      3.791782   806A      3.803895  
     807A      3.810459   808A      3.816048   809A      3.821919  
     810A      3.831258   811A      3.854702   812A      3.860130  
     813A      3.873914   814A      3.879986   815A      3.898357  
     816A      3.913278   817A      3.923361   818A      3.937241  
     819A      3.972314   820A      3.992332   821A      4.028894  
     822A      4.035938   823A      4.055648   824A      4.074497  
     825A      4.084997   826A      4.110504   827A      4.115526  
     828A      4.133850   829A      4.163292   830A      4.188652  
     831A      4.228847   832A      4.287072   833A      4.340892  
     834A      4.358229   835A      4.389749   836A      4.392979  
     837A      4.398494   838A      4.407459   839A      4.413878  
     840A      4.423705   841A      4.433811   842A      4.467720  
     843A      4.482126   844A      4.498411   845A      4.530311  
     846A      4.544668   847A      4.598234   848A      4.617368  
     849A      4.684265   850A      4.755407   851A      4.847848  
     852A      4.873670   853A      4.952956   854A      4.989266  
     855A      5.013251   856A      5.053085   857A      5.096825  
     858A      5.185831   859A      5.211486   860A      5.222834  
     861A      5.246816   862A      5.274315   863A      5.341834  
     864A      5.587150   865A      5.641326   866A      5.684792  
     867A      5.770103   868A      5.832405   869A      5.857018  
     870A      6.379370   871A     24.556091   872A     24.599417  
     873A     24.633150   874A     24.679858   875A     24.719776  
     876A     24.721133   877A     24.794529   878A     24.807073  
     879A     24.812311   880A     24.875073   881A     24.896108  
     882A     24.971320   883A     25.001597   884A     25.013383  
     885A     25.023139   886A     25.024003   887A     25.039925  
     888A     25.056516   889A     25.070074   890A     25.089481  
     891A     25.130869   892A     25.151969   893A     25.177041  
     894A     25.182431   895A     25.192873   896A     25.200615  
     897A     25.204264   898A     25.275417   899A     25.279481  
     900A     36.920233   901A     36.943220   902A     36.971239  
     903A     36.998551   904A     37.042230   905A     37.097313  
     906A     37.141645   907A     51.759321  

    Final Occupation by Irrep:
              A 
    DOCC [   131 ]

  @DF-RHF Final Energy: -1572.30966758123554

   => Energetics <=

    Nuclear Repulsion Energy =           3696.1725451005918330
    One-Electron Energy =               -9490.5540633630698721
    Two-Electron Energy =                4222.0718506812427222
    Total Energy =                      -1572.3096675812357716

Computation Completed


Properties will be evaluated at   0.000000,   0.000000,   0.000000 [a0]

Properties computed using the SCF density matrix

  Nuclear Dipole Moment: [e a0]
     X:   -41.3028      Y:     2.5719      Z:     6.9130

  Electronic Dipole Moment: [e a0]
     X:    42.4034      Y:     0.0233      Z:    -7.4994

  Dipole Moment: [e a0]
     X:     1.1006      Y:     2.5952      Z:    -0.5864     Total:     2.8793

  Dipole Moment: [D]
     X:     2.7976      Y:     6.5963      Z:    -1.4905     Total:     7.3184


*** tstop() called on node45.bme.utexas.edu at Fri Apr 24 12:12:53 2020
Module time:
	user time   =    3971.65 seconds =      66.19 minutes
	system time =     102.95 seconds =       1.72 minutes
	total time  =        810 seconds =      13.50 minutes
Total time:
	user time   =    3971.65 seconds =      66.19 minutes
	system time =     102.95 seconds =       1.72 minutes
	total time  =        810 seconds =      13.50 minutes

*** tstart() called on node45.bme.utexas.edu
*** at Fri Apr 24 12:12:53 2020


  //>>>>>>>>>>>>>>>>>>>>>>>>>>>>>>>>>>>//
  //               DFMP2               //
  //<<<<<<<<<<<<<<<<<<<<<<<<<<<<<<<<<<<//

   => Loading Basis Set <=

    Name: (6-311+G* AUX)
    Role: RIFIT
    Keyword: DF_BASIS_MP2
    atoms 1-4, 6-9, 11, 14-19, 21-28, 30-31, 33-35, 37 entry C          line   148 file /home/bdw2292/miniconda3/envs/p4env/share/psi4/basis/heavy-aug-cc-pvtz-ri.gbs 
    atoms 5, 10, 12-13, 20, 29, 32                     entry N          line   206 file /home/bdw2292/miniconda3/envs/p4env/share/psi4/basis/heavy-aug-cc-pvtz-ri.gbs 
    atoms 36                                           entry O          line   264 file /home/bdw2292/miniconda3/envs/p4env/share/psi4/basis/heavy-aug-cc-pvtz-ri.gbs 
    atoms 38-68                                        entry H          line    44 file /home/bdw2292/miniconda3/envs/p4env/share/psi4/basis/heavy-aug-cc-pvtz-ri.gbs 

	 --------------------------------------------------------
	                          DF-MP2                         
	      2nd-Order Density-Fitted Moller-Plesset Theory     
	              RMP2 Wavefunction,   6 Threads             
	                                                         
	        Rob Parrish, Justin Turney, Andy Simmonett,      
	           Ed Hohenstein, and C. David Sherrill          
	 --------------------------------------------------------

   => Auxiliary Basis Set <=

  Basis Set: (6-311+G* AUX)
    Blend: HEAVY-AUG-CC-PVTZ-RI
    Number of shells: 1346
    Number of basis function: 4852
    Number of Cartesian functions: 6117
    Spherical Harmonics?: true
    Max angular momentum: 4

	 --------------------------------------------------------
	                 NBF =   907, NAUX =  4852
	 --------------------------------------------------------
	   CLASS    FOCC     OCC    AOCC    AVIR     VIR    FVIR
	   PAIRS      37     131      94     776     776       0
	 --------------------------------------------------------

	-----------------------------------------------------------
	 ==================> DF-MP2 Energies <==================== 
	-----------------------------------------------------------
	 Reference Energy          =   -1572.3096675812355443 [Eh]
	 Singles Energy            =      -0.0000000000000000 [Eh]
	 Same-Spin Energy          =      -1.4489508221448422 [Eh]
	 Opposite-Spin Energy      =      -3.8928443979805003 [Eh]
	 Correlation Energy        =      -5.3417952201253422 [Eh]
	 Total Energy              =   -1577.6514628013608217 [Eh]
	-----------------------------------------------------------
	 ================> DF-SCS-MP2 Energies <================== 
	-----------------------------------------------------------
	 SCS Same-Spin Scale       =       0.3333333333333333 [-]
	 SCS Opposite-Spin Scale   =       1.2000000000000000 [-]
	 SCS Same-Spin Energy      =      -0.4829836073816141 [Eh]
	 SCS Opposite-Spin Energy  =      -4.6714132775766002 [Eh]
	 SCS Correlation Energy    =      -5.1543968849582145 [Eh]
	 SCS Total Energy          =   -1577.4640644661938040 [Eh]
	-----------------------------------------------------------


*** tstop() called on node45.bme.utexas.edu at Fri Apr 24 12:20:58 2020
Module time:
	user time   =    1963.16 seconds =      32.72 minutes
	system time =      60.81 seconds =       1.01 minutes
	total time  =        485 seconds =       8.08 minutes
Total time:
	user time   =    5934.81 seconds =      98.91 minutes
	system time =     163.76 seconds =       2.73 minutes
	total time  =       1295 seconds =      21.58 minutes


Properties will be evaluated at   0.000000,   0.000000,   0.000000 [a0]
OEProp: No title given, name of density matrix used for the following properties is 'SCF density'


  Wiberg Bond Indices using Orthogonal Lowdin Orbitals:

  Irrep: 1 Size: 68 x 68

                 1                   2                   3                   4                   5

    1     0.00000000000000     1.50964243273913     0.12960904700475     0.14768665640921     0.12899238342760
    2     1.50964243273913     0.00000000000000     1.42455902063819     0.13181357629143     0.12515173512175
    3     0.12960904700475     1.42455902063819     0.00000000000000     1.38283010401472     0.12241160619212
    4     0.14768665640921     0.13181357629143     1.38283010401472     0.00000000000000     1.68391689793088
    5     0.12899238342760     0.12515173512175     0.12241160619212     1.68391689793088     0.00000000000000
    6     1.51129680201880     0.14372377279971     0.13992210125339     0.15763462437322     1.64750346099391
    7     0.01548023017578     0.10562734208762     1.02663195413773     0.10672261175582     0.01451639245097
    8     0.00402142534449     0.04585345569721     0.10077216599885     0.02497402040416     0.00237782085161
    9     0.00045086672162     0.00515254410552     0.01546117600274     0.00435120707730     0.00073381025547
   10     0.00044838141754     0.00555854980068     0.00600680306653     0.00622978677929     0.00035159168230
   11     0.00093725482905     0.00351608473421     0.01840042164783     0.00731084435123     0.00049378638068
   12     0.00299312661726     0.02260061016793     0.12081255802190     0.06430074963487     0.00426455345916
   13     0.00018221355353     0.00053093344843     0.00170869953410     0.00096578448181     0.00009799397600
   14     0.00004355361464     0.00012146197401     0.00062467138579     0.00139913432697     0.00012251666518
   15     0.00001362354840     0.00003053424410     0.00008654773311     0.00019173070964     0.00002177041485
   16     0.00000352950266     0.00000827028798     0.00004973698534     0.00024958639338     0.00001431087534
   17     0.00001407456536     0.00002376572524     0.00006898370940     0.00033505761727     0.00004367289203
   18     0.00003966224121     0.00006610243793     0.00032561604480     0.00195356897006     0.00022988500497
   19     0.00021895836769     0.00030840466014     0.00231905661511     0.01205753811141     0.00065478757428
   20     0.00007318595833     0.00008284176037     0.00037577686542     0.00352260702942     0.00058107565691
   21     0.00001853010725     0.00001859762782     0.00006286678610     0.00047566421608     0.00022305547163
   22     0.00005722898751     0.00004328962434     0.00006010138663     0.00066272716018     0.00163216960127
   23     0.00056647194078     0.00038127178514     0.00049772323207     0.00748803122838     0.02374237576203
   24     0.00024474859093     0.00023971873377     0.00030360825917     0.00133879862889     0.01033313559304
   25     0.00001994823350     0.00001496842234     0.00002179502988     0.00014150340170     0.00052287746283
   26     0.00001284414843     0.00000660668008     0.00001381023387     0.00016411239353     0.00039953492529
   27     0.00001367901322     0.00000693238862     0.00001852783400     0.00019429554316     0.00051019736549
   28     0.00000583766070     0.00000329159953     0.00000385291138     0.00002907260457     0.00007366333173
   29     0.00000132766908     0.00000069397597     0.00000122286250     0.00001118958161     0.00002040588743
   30     0.00001206699262     0.00000611206270     0.00000402412949     0.00000981582085     0.00003703089714
   31     0.00000721950268     0.00000652404210     0.00000544620361     0.00001452308900     0.00004498685005
   32     0.00000109266529     0.00000074975593     0.00000090990334     0.00000674311732     0.00000824225091
   33     0.00000091856400     0.00000024427631     0.00000026955340     0.00000118807672     0.00000268850397
   34     0.00000219780203     0.00000101420412     0.00000150760541     0.00000694381931     0.00001412536001
   35     0.00000118013717     0.00000051826920     0.00000086096750     0.00000535673718     0.00000979475782
   36     0.00000238006577     0.00000340989303     0.00001740319144     0.00016391534402     0.00004740692106
   37     0.00000380807905     0.00001113024263     0.00005025662916     0.00006005176057     0.00000493993336
   38     0.84207791661663     0.05682315237771     0.00960161930448     0.00272074057440     0.00790204609691
   39     0.05349345837854     0.82959147621526     0.05224514822717     0.00960843949164     0.00127093977101
   40     0.00208294405753     0.00821088840359     0.04946806669983     0.81021185403170     0.06258741941040
   41     0.05485660780068     0.00971652652113     0.00258845528487     0.01284352241845     0.06474370861094
   42     0.00072690611084     0.01046325974125     0.01114197233019     0.00057548678728     0.00016466700919
   43     0.00003745632062     0.00020772238547     0.00109418534692     0.00026219501046     0.00006336013150
   44     0.00001344395147     0.00004979962098     0.00023319467534     0.00004165817534     0.00000591557554
   45     0.00000064672840     0.00000150672901     0.00000849490745     0.00002132958277     0.00000205792705
   46     0.00000128385715     0.00000214019220     0.00000828077747     0.00002807611620     0.00000878932519
   47     0.00005982707732     0.00008607393796     0.00158145613418     0.00601140276619     0.00035940364802
   48     0.00003874928708     0.00003044080293     0.00011738644019     0.00129127856058     0.00032753272066
   49     0.00023000477430     0.00007617318568     0.00015028279637     0.00392191371746     0.00850235321874
   50     0.00002120432503     0.00001607514472     0.00003601662519     0.00011587147056     0.00101100796659
   51     0.00000162692219     0.00000088041297     0.00000277152610     0.00001850462856     0.00002302810248
   52     0.00000200718799     0.00000099696704     0.00000273548473     0.00000777991121     0.00003648493365
   53     0.00000120367815     0.00000021400799     0.00000039992751     0.00000453111780     0.00001113253542
   54     0.00000068270501     0.00000029327964     0.00000074975586     0.00000857251499     0.00000914833425
   55     0.00000126496599     0.00000019419076     0.00000034253488     0.00000114954826     0.00000925932890
   56     0.00000046663945     0.00000005374009     0.00000020469672     0.00000330471405     0.00000296885788
   57     0.00000031291016     0.00000011513462     0.00000021686416     0.00000027192747     0.00000229484924
   58     0.00000110173461     0.00000131159045     0.00000124747697     0.00000614646986     0.00003491000774
   59     0.00000026075244     0.00000005969939     0.00000010131731     0.00000016563119     0.00000096902053
   60     0.00000008554599     0.00000005676519     0.00000003943438     0.00000015020211     0.00000017091962
   61     0.00000014238320     0.00000002328441     0.00000001397884     0.00000017109933     0.00000063636255
   62     0.00000004753600     0.00000002349662     0.00000004079661     0.00000009294462     0.00000025031052
   63     0.00000158148973     0.00000062479343     0.00000091009337     0.00000481615009     0.00000793980638
   64     0.00000065895314     0.00000022511718     0.00000039678939     0.00000167809182     0.00000239287040
   65     0.00000012675449     0.00000005540941     0.00000004163527     0.00000031490937     0.00000078090650
   66     0.00000068429673     0.00000146149273     0.00000660721632     0.00001073330472     0.00000039270090
   67     0.00000081584017     0.00000149490800     0.00001012984242     0.00000841002951     0.00000054782739
   68     0.00000031494359     0.00000094093532     0.00000446409613     0.00000870780672     0.00000049055935

                 6                   7                   8                   9                  10

    1     1.51129680201880     0.01548023017578     0.00402142534449     0.00045086672162     0.00044838141754
    2     0.14372377279971     0.10562734208762     0.04585345569721     0.00515254410552     0.00555854980068
    3     0.13992210125339     1.02663195413773     0.10077216599885     0.01546117600274     0.00600680306653
    4     0.15763462437322     0.10672261175582     0.02497402040416     0.00435120707730     0.00622978677929
    5     1.64750346099391     0.01451639245097     0.00237782085161     0.00073381025547     0.00035159168230
    6     0.00000000000000     0.01014953269011     0.00728911243045     0.00128942705424     0.00342873577611
    7     0.01014953269011     0.00000000000000     1.41076535200807     0.15014764458434     0.11326482234907
    8     0.00728911243045     1.41076535200807     0.00000000000000     1.47400274323945     0.13549152562044
    9     0.00128942705424     0.15014764458434     1.47400274323945     0.00000000000000     1.68281404628486
   10     0.00342873577611     0.11326482234907     0.13549152562044     1.68281404628486     0.00000000000000
   11     0.00090338078250     0.14243029492596     0.11680077755081     0.15469093245647     1.51449542426479
   12     0.00627887780196     1.53526241405756     0.12944583329143     0.11372072952193     0.11147470666697
   13     0.00008230776251     0.01976246855775     0.02212754470779     0.02548149318321     0.16580082277980
   14     0.00005564975068     0.00295707043414     0.00259795932295     0.00345406414366     0.01745710855788
   15     0.00000866701155     0.00054576253318     0.00156343538124     0.00101037283184     0.00334606155795
   16     0.00000527611478     0.00018280510913     0.00021638868606     0.00019589749790     0.00053898461765
   17     0.00000760401798     0.00028363172014     0.00145435624083     0.00048567603059     0.00137809525818
   18     0.00005279065631     0.00060806513206     0.00029835582937     0.00016959556911     0.00046363533367
   19     0.00025077033637     0.00631324879326     0.00358314524807     0.00167882325882     0.00462958680833
   20     0.00008139014917     0.00014732992829     0.00003672448544     0.00002363348949     0.00007048391397
   21     0.00003436820444     0.00002818743068     0.00001101594230     0.00000777929444     0.00001913950516
   22     0.00018069711649     0.00001095271355     0.00000451547367     0.00000251738121     0.00000514767229
   23     0.00230327236529     0.00008347226227     0.00002463612169     0.00000752943847     0.00000502139357
   24     0.00242866211714     0.00003501807104     0.00002173157255     0.00000362325957     0.00000359038920
   25     0.00024860480102     0.00000393754715     0.00000291998303     0.00000052342904     0.00000087170822
   26     0.00014313180254     0.00000259189399     0.00000107550205     0.00000042168734     0.00000052398887
   27     0.00013126022043     0.00000447901213     0.00000208742477     0.00000093816364     0.00000166124339
   28     0.00005094864793     0.00000113416867     0.00000036841922     0.00000009041165     0.00000008277050
   29     0.00002038211692     0.00000031075632     0.00000017838525     0.00000002958068     0.00000003369718
   30     0.00002186463132     0.00000113999924     0.00000035244082     0.00000007577007     0.00000012505499
   31     0.00001943833418     0.00000084092729     0.00000068638855     0.00000009905003     0.00000029371892
   32     0.00000836543204     0.00000016401226     0.00000005094920     0.00000001921179     0.00000001693527
   33     0.00000688098882     0.00000013020268     0.00000004240712     0.00000001543851     0.00000001033745
   34     0.00001845473506     0.00000053237104     0.00000009326109     0.00000003823636     0.00000003326552
   35     0.00001872174526     0.00000038199147     0.00000010681087     0.00000003888176     0.00000002590001
   36     0.00001069585832     0.00001406305332     0.00001075293052     0.00000575478149     0.00001491927393
   37     0.00000341295071     0.00018257958990     0.00015865255516     0.00016007214613     0.00080574693575
   38     0.05962108306775     0.00092437268368     0.00017267447703     0.00003360267893     0.00001776898844
   39     0.00971491299867     0.01301615315602     0.01092396168404     0.00075212708425     0.00018915212055
   40     0.01189452811077     0.01218271140493     0.00074631813016     0.00020119879655     0.00022209767076
   41     0.84011108118699     0.00033909823297     0.00007987006213     0.00002607641286     0.00001160673130
   42     0.00020838456639     0.05544745819688     0.82741510296900     0.05776078528302     0.00715601136565
   43     0.00003560784632     0.00942831890399     0.05387974438522     0.83792272860318     0.06623909133180
   44     0.00000444233630     0.00113809002505     0.00061102849408     0.00199613760199     0.01841043867970
   45     0.00000070475785     0.00001914163653     0.00000687619277     0.00002381974086     0.00005052036740
   46     0.00000176535711     0.00001985305917     0.00000627887119     0.00000501959924     0.00001314239931
   47     0.00010549126782     0.00300748244112     0.00044091461740     0.00021735151031     0.00023167215853
   48     0.00003066437837     0.00004562175112     0.00001180489604     0.00000273980251     0.00001360994504
   49     0.00088653826489     0.00002147437569     0.00000625435574     0.00000155649286     0.00000134409314
   50     0.00090123131198     0.00000372437315     0.00000213003865     0.00000030297664     0.00000047010115
   51     0.00000446189753     0.00000031718668     0.00000019046319     0.00000005719189     0.00000004313998
   52     0.00001411749591     0.00000118189697     0.00000031239624     0.00000012130981     0.00000019952654
   53     0.00000616684251     0.00000004977462     0.00000002305253     0.00000000525014     0.00000000671404
   54     0.00000545183997     0.00000011455979     0.00000004449213     0.00000001529788     0.00000000961325
   55     0.00000216881515     0.00000010131235     0.00000003247721     0.00000001311313     0.00000000639334
   56     0.00000326291290     0.00000003945510     0.00000008926870     0.00000000919990     0.00000000551825
   57     0.00000088936290     0.00000004823099     0.00000001875946     0.00000000287119     0.00000000712480
   58     0.00000769051167     0.00000026865987     0.00000008025628     0.00000001443215     0.00000001983337
   59     0.00000346482096     0.00000004959075     0.00000001399350     0.00000000511199     0.00000000505857
   60     0.00000070410045     0.00000001678462     0.00000000995674     0.00000000189696     0.00000000053764
   61     0.00000069684578     0.00000001920778     0.00000000687405     0.00000000133540     0.00000000047459
   62     0.00000099461811     0.00000001287885     0.00000000197006     0.00000000180162     0.00000000093243
   63     0.00001663024253     0.00000035414044     0.00000005425290     0.00000002391734     0.00000001756244
   64     0.00001845787882     0.00000024021519     0.00000003167837     0.00000001466451     0.00000000504997
   65     0.00000129188902     0.00000001547364     0.00000001712129     0.00000000468900     0.00000000137819
   66     0.00000041029025     0.00003157336697     0.00009013936116     0.00001645812175     0.00014393129289
   67     0.00000023748433     0.00003082642785     0.00006651854164     0.00001795432358     0.00010654170937
   68     0.00000021341265     0.00001427801571     0.00000380360712     0.00000373717149     0.00003142594163

                11                  12                  13                  14                  15

    1     0.00093725482905     0.00299312661726     0.00018221355353     0.00004355361464     0.00001362354840
    2     0.00351608473421     0.02260061016793     0.00053093344843     0.00012146197401     0.00003053424410
    3     0.01840042164783     0.12081255802190     0.00170869953410     0.00062467138579     0.00008654773311
    4     0.00731084435123     0.06430074963487     0.00096578448181     0.00139913432697     0.00019173070964
    5     0.00049378638068     0.00426455345916     0.00009799397600     0.00012251666518     0.00002177041485
    6     0.00090338078250     0.00627887780196     0.00008230776251     0.00005564975068     0.00000866701155
    7     0.14243029492596     1.53526241405756     0.01976246855775     0.00295707043414     0.00054576253318
    8     0.11680077755081     0.12944583329143     0.02212754470779     0.00259795932295     0.00156343538124
    9     0.15469093245647     0.11372072952193     0.02548149318321     0.00345406414366     0.00101037283184
   10     1.51449542426479     0.11147470666697     0.16580082277980     0.01745710855788     0.00334606155795
   11     0.00000000000000     1.53691168623381     1.30094983517663     0.08478886008043     0.01809206274623
   12     1.53691168623381     0.00000000000000     0.14431230895187     0.02947333131470     0.00353596004436
   13     1.30094983517663     0.14431230895187     0.00000000000000     1.14860803453549     0.10838843738146
   14     0.08478886008043     0.02947333131470     1.14860803453549     0.00000000000000     1.32509862114170
   15     0.01809206274623     0.00353596004436     0.10838843738146     1.32509862114170     0.00000000000000
   16     0.00256823736852     0.00118918368182     0.01511297673538     0.12855230358662     1.46830264623172
   17     0.00429258572645     0.00269993379613     0.01297418776183     0.12333916293974     0.12840090664695
   18     0.00262610472982     0.00515557509317     0.01372729827685     0.12557775526164     0.12186470193405
   19     0.02990996459376     0.06014809350084     0.11374072508357     1.42831983208348     0.12222381119956
   20     0.00038644840420     0.00115600822648     0.00140662672037     0.01589736815715     0.01178293286210
   21     0.00007904313445     0.00014712167569     0.00033685229569     0.00292420467999     0.00582674495574
   22     0.00001708728170     0.00002372695629     0.00006600570773     0.00040864556671     0.00033196410527
   23     0.00001761301807     0.00010556668658     0.00001798267458     0.00014076022185     0.00035838262941
   24     0.00000377922742     0.00001526761232     0.00000397348250     0.00001898855037     0.00004158761217
   25     0.00000124504196     0.00000285791955     0.00000250620957     0.00002944367546     0.00019184350884
   26     0.00000112477710     0.00000124319769     0.00000313236672     0.00002370447028     0.00004196577245
   27     0.00000504983286     0.00000579160219     0.00001672561558     0.00012207190290     0.00036868023963
   28     0.00000028892403     0.00000049761510     0.00000041445527     0.00000351280895     0.00001425841017
   29     0.00000010298856     0.00000013961119     0.00000011942358     0.00000171610196     0.00001240144389
   30     0.00000013452436     0.00000036308146     0.00000007708381     0.00000074858133     0.00000175152960
   31     0.00000019698055     0.00000045242125     0.00000010766546     0.00000113399556     0.00000230385754
   32     0.00000005977624     0.00000012908669     0.00000002696604     0.00000048962503     0.00000024302848
   33     0.00000001400023     0.00000004031782     0.00000001569069     0.00000016674785     0.00000017116998
   34     0.00000013472790     0.00000012309743     0.00000008353531     0.00000063927813     0.00000156352358
   35     0.00000006664179     0.00000008996885     0.00000008291327     0.00000060741571     0.00000188287893
   36     0.00005204829257     0.00006800912176     0.00018220630975     0.00113908411941     0.00347132426159
   37     0.00402172031664     0.00094554976745     0.04231201972679     0.10126866502409     1.11547725218887
   38     0.00007148369007     0.00024868407090     0.00001142177139     0.00000697930077     0.00000077880969
   39     0.00014697388326     0.00037508233911     0.00005155551859     0.00002297280584     0.00000447155694
   40     0.00180487593521     0.01743907303250     0.00021410023995     0.00078934590239     0.00008900895577
   41     0.00002604217733     0.00009097195724     0.00000416877180     0.00000362871010     0.00000069563289
   42     0.00286194874828     0.00759140261363     0.00030590260187     0.00004223866074     0.00001479796816
   43     0.01303712073314     0.00139957526375     0.00080728971210     0.00029509703586     0.00004279372530
   44     0.04484042268361     0.00611377840358     0.79214878418878     0.03756694992176     0.00966997603538
   45     0.00033206887979     0.00004015640068     0.00089077635896     0.00940778868042     0.05400470216113
   46     0.00003944454069     0.00010327290955     0.00014513120396     0.00215952554126     0.00828332297126
   47     0.00744781113930     0.02736955811487     0.01166283533175     0.05089855370785     0.00745269204278
   48     0.00006366053689     0.00046828701189     0.00007804330440     0.00122455050755     0.00038664200887
   49     0.00000299029730     0.00002385625085     0.00000253810071     0.00001283775968     0.00005237826125
   50     0.00000051564181     0.00000182885523     0.00000028160311     0.00000151782927     0.00000065564945
   51     0.00000016385836     0.00000009279519     0.00000055435878     0.00000312329579     0.00000277688087
   52     0.00000058214906     0.00000064804703     0.00000159319246     0.00001347957628     0.00000678513759
   53     0.00000003656388     0.00000003446186     0.00000004361628     0.00000041954607     0.00000163239803
   54     0.00000003882774     0.00000005318897     0.00000004296584     0.00000033035472     0.00000092318506
   55     0.00000000602586     0.00000003333241     0.00000000981945     0.00000002795949     0.00000003118634
   56     0.00000002469236     0.00000001425033     0.00000001260835     0.00000016060366     0.00000059300042
   57     0.00000000994783     0.00000000948582     0.00000000380004     0.00000002378510     0.00000006240748
   58     0.00000007665088     0.00000024271070     0.00000002354507     0.00000057701129     0.00000055689500
   59     0.00000000302831     0.00000002384049     0.00000000457499     0.00000001651129     0.00000003716894
   60     0.00000000126121     0.00000000241720     0.00000000093776     0.00000000396391     0.00000001071051
   61     0.00000000120357     0.00000000101411     0.00000000076902     0.00000001565161     0.00000002147183
   62     0.00000000678459     0.00000000854930     0.00000000159119     0.00000003796621     0.00000008848862
   63     0.00000006543031     0.00000005694508     0.00000003680795     0.00000023325439     0.00000016149347
   64     0.00000003642795     0.00000001687259     0.00000001798757     0.00000024919413     0.00000059271885
   65     0.00000000532545     0.00000000820756     0.00000000974412     0.00000003937514     0.00000007929330
   66     0.00074252948431     0.00021054152860     0.00830134678286     0.01367552787677     0.04136872548633
   67     0.00056062816391     0.00018192087145     0.00677414636387     0.01383436169364     0.04211252259981
   68     0.00018967656551     0.00006208687326     0.00162093987007     0.00682959756257     0.04513656818450

                16                  17                  18                  19                  20

    1     0.00000352950266     0.00001407456536     0.00003966224121     0.00021895836769     0.00007318595833
    2     0.00000827028798     0.00002376572524     0.00006610243793     0.00030840466014     0.00008284176037
    3     0.00004973698534     0.00006898370940     0.00032561604480     0.00231905661511     0.00037577686542
    4     0.00024958639338     0.00033505761727     0.00195356897006     0.01205753811141     0.00352260702942
    5     0.00001431087534     0.00004367289203     0.00022988500497     0.00065478757428     0.00058107565691
    6     0.00000527611478     0.00000760401798     0.00005279065631     0.00025077033637     0.00008139014917
    7     0.00018280510913     0.00028363172014     0.00060806513206     0.00631324879326     0.00014732992829
    8     0.00021638868606     0.00145435624083     0.00029835582937     0.00358314524807     0.00003672448544
    9     0.00019589749790     0.00048567603059     0.00016959556911     0.00167882325882     0.00002363348949
   10     0.00053898461765     0.00137809525818     0.00046363533367     0.00462958680833     0.00007048391397
   11     0.00256823736852     0.00429258572645     0.00262610472982     0.02990996459376     0.00038644840420
   12     0.00118918368182     0.00269993379613     0.00515557509317     0.06014809350084     0.00115600822648
   13     0.01511297673538     0.01297418776183     0.01372729827685     0.11374072508357     0.00140662672037
   14     0.12855230358662     0.12333916293974     0.12557775526164     1.42831983208348     0.01589736815715
   15     1.46830264623172     0.12840090664695     0.12186470193405     0.12222381119956     0.01178293286210
   16     0.00000000000000     1.48903528136550     0.13705267682301     0.13245171944337     0.01457532221080
   17     1.48903528136550     0.00000000000000     1.42526278484182     0.12569626807572     0.10766048001266
   18     0.13705267682301     1.42526278484182     0.00000000000000     1.38821129236880     1.14964900154623
   19     0.13245171944337     0.12569626807572     1.38821129236880     0.00000000000000     0.13111831540885
   20     0.01457532221080     0.10766048001266     1.14964900154623     0.13111831540885     0.00000000000000
   21     0.00301254300402     0.03285389221007     0.08882772085903     0.02369692358183     1.34420451852557
   22     0.00041326428080     0.00347496481852     0.01516218174627     0.00225844053649     0.10508471002703
   23     0.00019164031068     0.00137171778872     0.00420714437051     0.00140512775249     0.04587878810817
   24     0.00003040347685     0.00020806301360     0.00046566234996     0.00015619767008     0.00390899537415
   25     0.00003124728527     0.00032655240430     0.00042840885960     0.00027808611996     0.00373642952737
   26     0.00002710837362     0.00016702876177     0.00056123137409     0.00013267552466     0.00272431740983
   27     0.00012680112401     0.00104163294710     0.00245385959057     0.00080905977398     0.01878219301298
   28     0.00000400380309     0.00003273828096     0.00005234452600     0.00002581227919     0.00033223901328
   29     0.00000187949628     0.00001960208843     0.00002193449682     0.00001640478258     0.00017367755080
   30     0.00000074450492     0.00000472388051     0.00000780960819     0.00000358133205     0.00004124298140
   31     0.00000106639464     0.00000667625385     0.00001152836459     0.00000676591169     0.00005458674107
   32     0.00000019401286     0.00000239021857     0.00000670978224     0.00000216415480     0.00000992225912
   33     0.00000023116131     0.00000075352678     0.00000170203581     0.00000076124311     0.00000265316401
   34     0.00000073206401     0.00000571880956     0.00001152634410     0.00000498589502     0.00004136091923
   35     0.00000075017727     0.00000513833530     0.00000902159797     0.00000453196795     0.00003969065377
   36     0.00366580917940     0.05054958421711     0.03302404754855     0.00559554500875     0.19755085521668
   37     0.12246784931299     0.01588088670753     0.00767949645926     0.01539753011413     0.00080294812347
   38     0.00000052100681     0.00000080024224     0.00000664493997     0.00002485340945     0.00000677856275
   39     0.00000122311923     0.00000214682837     0.00000498065973     0.00003106338683     0.00000639000021
   40     0.00012052575672     0.00012842037404     0.00133994587994     0.00613296912977     0.00138895210791
   41     0.00000048044035     0.00000102045678     0.00000301130277     0.00001413140035     0.00000548559333
   42     0.00000353899998     0.00000589813509     0.00002435185751     0.00013496584275     0.00000844547855
   43     0.00001083428774     0.00000387012201     0.00001334078248     0.00006831225033     0.00000117877472
   44     0.00066728388458     0.00021841708878     0.00075287763215     0.00635590941867     0.00018644365993
   45     0.83164247014025     0.05592120444092     0.00974234314698     0.00232900816388     0.00072740555130
   46     0.05513881046045     0.81201738468256     0.05433449518703     0.00893669421380     0.01068041540506
   47     0.00223361425022     0.00801139757913     0.05134855488173     0.78771885720505     0.01953223358870
   48     0.00072075722137     0.00614263284791     0.03903527841874     0.01513021025970     0.79780499948654
   49     0.00003342639261     0.00021336986596     0.00108347371416     0.00040877914810     0.01249812304896
   50     0.00000194199637     0.00001071720070     0.00002276581362     0.00000608430164     0.00010818381478
   51     0.00000265578882     0.00001627543235     0.00005646622302     0.00001702916557     0.00023632966146
   52     0.00001942320212     0.00009786482100     0.00013267375170     0.00004568396372     0.00055740221456
   53     0.00000056684027     0.00000409056996     0.00000723984642     0.00000324431457     0.00003699865089
   54     0.00000054406589     0.00000283563221     0.00001090776276     0.00000269504911     0.00005469496528
   55     0.00000006223920     0.00000033793350     0.00000054577659     0.00000014621759     0.00000393356587
   56     0.00000010931362     0.00000151385745     0.00000170616909     0.00000124350348     0.00000761593081
   57     0.00000002231680     0.00000016265233     0.00000023020217     0.00000020515175     0.00000152697759
   58     0.00000044802270     0.00000313657069     0.00000643212500     0.00000316093522     0.00002164986037
   59     0.00000005083954     0.00000008786488     0.00000018239400     0.00000012631686     0.00000030270990
   60     0.00000001714660     0.00000005001462     0.00000008654321     0.00000005688104     0.00000039418566
   61     0.00000006472377     0.00000006165853     0.00000015393297     0.00000009401379     0.00000023805891
   62     0.00000005782413     0.00000015901685     0.00000030872569     0.00000018926891     0.00000166501727
   63     0.00000010740623     0.00000151851833     0.00000595522782     0.00000204380009     0.00001349405296
   64     0.00000024739386     0.00000148814512     0.00000443101877     0.00000210221074     0.00000734362795
   65     0.00000005233642     0.00000031374891     0.00000059051789     0.00000017937354     0.00000470415137
   66     0.01247221475086     0.00083773761316     0.00262977726674     0.00085117081154     0.00031783435114
   67     0.01310015345395     0.00084510187873     0.00290622972159     0.00080563331494     0.00036329171472
   68     0.01947725311063     0.00142052768980     0.00034241318109     0.00074053850484     0.00006898645040

                21                  22                  23                  24                  25

    1     0.00001853010725     0.00005722898751     0.00056647194078     0.00024474859093     0.00001994823350
    2     0.00001859762782     0.00004328962434     0.00038127178514     0.00023971873377     0.00001496842234
    3     0.00006286678610     0.00006010138663     0.00049772323207     0.00030360825917     0.00002179502988
    4     0.00047566421608     0.00066272716018     0.00748803122838     0.00133879862889     0.00014150340170
    5     0.00022305547163     0.00163216960127     0.02374237576203     0.01033313559304     0.00052287746283
    6     0.00003436820444     0.00018069711649     0.00230327236529     0.00242866211714     0.00024860480102
    7     0.00002818743068     0.00001095271355     0.00008347226227     0.00003501807104     0.00000393754715
    8     0.00001101594230     0.00000451547367     0.00002463612169     0.00002173157255     0.00000291998303
    9     0.00000777929444     0.00000251738121     0.00000752943847     0.00000362325957     0.00000052342904
   10     0.00001913950516     0.00000514767229     0.00000502139357     0.00000359038920     0.00000087170822
   11     0.00007904313445     0.00001708728170     0.00001761301807     0.00000377922742     0.00000124504196
   12     0.00014712167569     0.00002372695629     0.00010556668658     0.00001526761232     0.00000285791955
   13     0.00033685229569     0.00006600570773     0.00001798267458     0.00000397348250     0.00000250620957
   14     0.00292420467999     0.00040864556671     0.00014076022185     0.00001898855037     0.00002944367546
   15     0.00582674495574     0.00033196410527     0.00035838262941     0.00004158761217     0.00019184350884
   16     0.00301254300402     0.00041326428080     0.00019164031068     0.00003040347685     0.00003124728527
   17     0.03285389221007     0.00347496481852     0.00137171778872     0.00020806301360     0.00032655240430
   18     0.08882772085903     0.01516218174627     0.00420714437051     0.00046566234996     0.00042840885960
   19     0.02369692358183     0.00225844053649     0.00140512775249     0.00015619767008     0.00027808611996
   20     1.34420451852557     0.10508471002703     0.04587878810817     0.00390899537415     0.00373642952737
   21     0.00000000000000     0.98268993135308     0.10640005268072     0.01538139733041     0.01171450342151
   22     0.98268993135308     0.00000000000000     1.42549028195123     0.13208048919416     0.12582860644755
   23     0.10640005268072     1.42549028195123     0.00000000000000     1.50371901012682     0.13094932426668
   24     0.01538139733041     0.13208048919416     1.50371901012682     0.00000000000000     1.43119089421145
   25     0.01171450342151     0.12582860644755     0.13094932426668     1.43119089421145     0.00000000000000
   26     0.01573880908990     0.13078516894478     0.13694729349244     0.13007165251673     1.42204689394783
   27     0.11459791193134     1.40623829625189     0.12795246390880     0.13763009707838     0.13154188498514
   28     0.00088520015804     0.00966957198789     0.01599856052167     0.11582827130506     1.05476663285453
   29     0.00042731532678     0.00446616437388     0.00224716573556     0.02326179610788     0.09166247809724
   30     0.00013026945967     0.00119785390566     0.00244931605195     0.01883734584376     0.02403111417221
   31     0.00012628695463     0.00225829227364     0.01140030963162     0.02701915523479     0.02271038210846
   32     0.00007033865225     0.00068272004944     0.00125209565451     0.00288794259870     0.00459959431607
   33     0.00001776740066     0.00014835209073     0.00035636706745     0.00090141432875     0.00148673121565
   34     0.00012167838593     0.00188221429099     0.00243590330604     0.00544321352739     0.02159934140505
   35     0.00013068652696     0.00113904342707     0.00114162507210     0.00542044044917     0.02322699519560
   36     2.17500201244285     0.13792567854267     0.02617036984433     0.00353199972408     0.00660351928823
   37     0.00034235682967     0.00004511180744     0.00002988462082     0.00000419869582     0.00001017187021
   38     0.00000274436027     0.00000457158551     0.00002724425023     0.00000876763512     0.00000121901988
   39     0.00000119403640     0.00000275471459     0.00002090020220     0.00001380694937     0.00000213648732
   40     0.00019859404469     0.00010594715455     0.00083534756048     0.00006583495495     0.00001722920819
   41     0.00000147216392     0.00000716743488     0.00006696578522     0.00013471053592     0.00000920060389
   42     0.00000190593694     0.00000075730093     0.00000721388912     0.00000199721453     0.00000012761433
   43     0.00000083397161     0.00000033445180     0.00000175271917     0.00000091482954     0.00000004314395
   44     0.00004642679272     0.00001164705367     0.00000340221465     0.00000062436482     0.00000058193563
   45     0.00017222371486     0.00003998667498     0.00003999705725     0.00000468091828     0.00000170931974
   46     0.00692993446762     0.00040107696403     0.00011310684055     0.00003614844121     0.00002208131693
   47     0.00168260836933     0.00016331221446     0.00021634391730     0.00001139522456     0.00000779995493
   48     0.04565241881155     0.01099120374032     0.01067016578542     0.00101983611553     0.00033605742945
   49     0.01291892169341     0.05327486525855     0.81335375808842     0.05404629724922     0.00857995529958
   50     0.00092067818524     0.00915938181230     0.05539919291918     0.82099061165477     0.05358594173042
   51     0.00094750765454     0.00911507263676     0.00214274325217     0.00914656056095     0.05346875144540
   52     0.01599506723578     0.05242104041379     0.00910555992561     0.00206372714967     0.00874681491923
   53     0.00010005019400     0.00070363971466     0.00107244290911     0.01624440064310     0.04265366548803
   54     0.00011003367927     0.00072657589764     0.00083300412707     0.00752217072602     0.04241437577911
   55     0.00001526459494     0.00008103254308     0.00024670819286     0.00506459041888     0.00484242416639
   56     0.00004349295549     0.00031349472142     0.00046066687877     0.00088739500975     0.00128742880480
   57     0.00000451546650     0.00007046806933     0.00011278736386     0.00048379068943     0.00041263886513
   58     0.00005759626964     0.00154785788852     0.00695079024228     0.01720814328868     0.01109547106477
   59     0.00000213167786     0.00000602171968     0.00001084406848     0.00005660588706     0.00007154466974
   60     0.00000097057493     0.00001022899556     0.00003600690054     0.00008332220490     0.00007669369111
   61     0.00000123558714     0.00000887738239     0.00002053478991     0.00003651413020     0.00007420314332
[...]
   15     0.00000059300042     0.00000006240748     0.00000055689500     0.00000003716894     0.00000001071051
   16     0.00000010931362     0.00000002231680     0.00000044802270     0.00000005083954     0.00000001714660
   17     0.00000151385745     0.00000016265233     0.00000313657069     0.00000008786488     0.00000005001462
   18     0.00000170616909     0.00000023020217     0.00000643212500     0.00000018239400     0.00000008654321
   19     0.00000124350348     0.00000020515175     0.00000316093522     0.00000012631686     0.00000005688104
   20     0.00000761593081     0.00000152697759     0.00002164986037     0.00000030270990     0.00000039418566
   21     0.00004349295549     0.00000451546650     0.00005759626964     0.00000213167786     0.00000097057493
   22     0.00031349472142     0.00007046806933     0.00154785788852     0.00000602171968     0.00001022899556
   23     0.00046066687877     0.00011278736386     0.00695079024228     0.00001084406848     0.00003600690054
   24     0.00088739500975     0.00048379068943     0.01720814328868     0.00005660588706     0.00008332220490
   25     0.00128742880480     0.00041263886513     0.01109547106477     0.00007154466974     0.00007669369111
   26     0.00057208952159     0.00017864333625     0.00360981309606     0.00005472641313     0.00003727018528
   27     0.00022721331308     0.00004314928879     0.00166791455522     0.00001117083445     0.00002009817607
   28     0.01110239048328     0.00064336694210     0.00510987785329     0.00023199474824     0.00004190819115
   29     0.06024179500270     0.00919789626100     0.00921529169010     0.00131428107046     0.00011723684557
   30     0.79068502624166     0.04631082513819     0.03582794148766     0.00832152895278     0.00236386903317
   31     0.04276319916650     0.84065795018183     0.77577663916850     0.01275877351374     0.01504566336460
   32     0.01132740902312     0.04376472623300     0.05144931035825     0.04912360580883     0.04786924847040
   33     0.01325395987082     0.01759884123620     0.01089654722085     0.89223199468500     0.90384389412805
   34     0.00662264754246     0.01198812986723     0.01557756191093     0.01272881137631     0.01038090362277
   35     0.01826576179626     0.00119676934473     0.00552501468592     0.00826599285469     0.00098457163043
   36     0.00001421798650     0.00000360862433     0.00002425578990     0.00000039895212     0.00000044207891
   37     0.00000004166853     0.00000000555317     0.00000010498366     0.00000001366495     0.00000000102230
   38     0.00000000572377     0.00000001100064     0.00000007265724     0.00000001448676     0.00000000367753
   39     0.00000000237814     0.00000000760158     0.00000009400002     0.00000000776874     0.00000000162955
   40     0.00000001314946     0.00000003958005     0.00000016469152     0.00000001875076     0.00000000325868
   41     0.00000014729438     0.00000002211544     0.00000071517915     0.00000000755971     0.00000000538818
   42     0.00000000099859     0.00000000055286     0.00000000664806     0.00000000012522     0.00000000016981
   43     0.00000000038248     0.00000000049808     0.00000000672561     0.00000000027764     0.00000000004310
   44     0.00000000043235     0.00000000052593     0.00000000220336     0.00000000037750     0.00000000026216
   45     0.00000000767411     0.00000000072255     0.00000009742181     0.00000000374510     0.00000000022410
   46     0.00000011767266     0.00000001205265     0.00000013400051     0.00000001449475     0.00000000332577
   47     0.00000007210588     0.00000003137561     0.00000008785152     0.00000000531700     0.00000000036381
   48     0.00000050180625     0.00000012792862     0.00001164302744     0.00000006977623     0.00000017544287
   49     0.00000131632501     0.00000971217299     0.00016999719005     0.00000031316712     0.00000020085826
   50     0.00002609211712     0.00005694299454     0.00102299926212     0.00003357632957     0.00000826965355
   51     0.00008053623776     0.00001281823312     0.00004445438463     0.00003300902673     0.00000581710148
   52     0.00000166187294     0.00000145228271     0.00000200366003     0.00000036046330     0.00000021546670
   53     0.00072593363226     0.00004158927018     0.00016176791688     0.00003495295812     0.00000494891897
   54     0.00010433525023     0.00026785208474     0.00002583476718     0.00003486622935     0.00000780241710
   55     0.00659687296962     0.00180446410323     0.00354015602438     0.00012787397315     0.00002133587227
   56     0.00000000000000     0.00417658438411     0.01806646786930     0.00175777687521     0.00027462283683
   57     0.00417658438411     0.00000000000000     0.00669213907218     0.00095915956074     0.00181452664378
   58     0.01806646786930     0.00669213907218     0.00000000000000     0.00010507853156     0.00063299681353
   59     0.00175777687521     0.00095915956074     0.00010507853156     0.00000000000000     0.00742917550733
   60     0.00027462283683     0.00181452664378     0.00063299681353     0.00742917550733     0.00000000000000
   61     0.00008726707382     0.00056709517462     0.00014625296317     0.00744296792153     0.00933778460794
   62     0.00004952033612     0.00052170638602     0.00051733252232     0.00094912616637     0.00056665494515
   63     0.00007703213223     0.00052641574313     0.00092699491303     0.00010056442634     0.00014404233863
   64     0.00066325508738     0.00005209983460     0.00007421156921     0.00171162476120     0.00008599894329
   65     0.00035561469282     0.00037387156005     0.00002356957556     0.00012603189158     0.00015990200100
   66     0.00000002749233     0.00000000233748     0.00000002342548     0.00000000079088     0.00000000028140
   67     0.00000001836335     0.00000000354508     0.00000000694714     0.00000000057692     0.00000000012495
   68     0.00000000208589     0.00000000037969     0.00000000275430     0.00000000017651     0.00000000023075

                61                  62                  63                  64                  65

    1     0.00000014238320     0.00000004753600     0.00000158148973     0.00000065895314     0.00000012675449
    2     0.00000002328441     0.00000002349662     0.00000062479343     0.00000022511718     0.00000005540941
    3     0.00000001397884     0.00000004079661     0.00000091009337     0.00000039678939     0.00000004163527
    4     0.00000017109933     0.00000009294462     0.00000481615009     0.00000167809182     0.00000031490937
    5     0.00000063636255     0.00000025031052     0.00000793980638     0.00000239287040     0.00000078090650
    6     0.00000069684578     0.00000099461811     0.00001663024253     0.00001845787882     0.00000129188902
    7     0.00000001920778     0.00000001287885     0.00000035414044     0.00000024021519     0.00000001547364
    8     0.00000000687405     0.00000000197006     0.00000005425290     0.00000003167837     0.00000001712129
    9     0.00000000133540     0.00000000180162     0.00000002391734     0.00000001466451     0.00000000468900
   10     0.00000000047459     0.00000000093243     0.00000001756244     0.00000000504997     0.00000000137819
   11     0.00000000120357     0.00000000678459     0.00000006543031     0.00000003642795     0.00000000532545
   12     0.00000000101411     0.00000000854930     0.00000005694508     0.00000001687259     0.00000000820756
   13     0.00000000076902     0.00000000159119     0.00000003680795     0.00000001798757     0.00000000974412
   14     0.00000001565161     0.00000003796621     0.00000023325439     0.00000024919413     0.00000003937514
   15     0.00000002147183     0.00000008848862     0.00000016149347     0.00000059271885     0.00000007929330
   16     0.00000006472377     0.00000005782413     0.00000010740623     0.00000024739386     0.00000005233642
   17     0.00000006165853     0.00000015901685     0.00000151851833     0.00000148814512     0.00000031374891
   18     0.00000015393297     0.00000030872569     0.00000595522782     0.00000443101877     0.00000059051789
   19     0.00000009401379     0.00000018926891     0.00000204380009     0.00000210221074     0.00000017937354
   20     0.00000023805891     0.00000166501727     0.00001349405296     0.00000734362795     0.00000470415137
   21     0.00000123558714     0.00000483273237     0.00005282016207     0.00004768484081     0.00001444589924
   22     0.00000887738239     0.00005542519631     0.00126989119011     0.00029414163422     0.00006964657403
   23     0.00002053478991     0.00004754613829     0.00147630709252     0.00019459144534     0.00006312380123
   24     0.00003651413020     0.00015587601544     0.00311550032264     0.00052905245664     0.00021283158206
   25     0.00007420314332     0.00038194505911     0.01038733095011     0.00131461014526     0.00469935745882
   26     0.00008458182321     0.00048251212683     0.01786457264946     0.00086279464559     0.00471399996952
   27     0.00003630491362     0.00011918197997     0.00637334957296     0.00047833273846     0.00020535643743
   28     0.00004310583539     0.00063218693542     0.00503199572989     0.01097379771338     0.01752082641541
   29     0.00011587537061     0.00913467975484     0.00926178597386     0.05990414644265     0.04233314722590
   30     0.00100126001619     0.00120166789544     0.00555404032512     0.01819823862794     0.01058592946546
   31     0.01041110363940     0.01194668806330     0.01561553005072     0.00654326700842     0.00120666011444
   32     0.04792361372703     0.04371611674710     0.05102813322203     0.01117281191245     0.00871572415700
   33     0.90382850782479     0.01739751229436     0.01079894394113     0.01290390218742     0.00083159226088
   34     0.01487355712673     0.84148872882551     0.77929731223948     0.04252933339606     0.04324053366895
   35     0.00233944374157     0.04604432967994     0.03585699866767     0.79240243371218     0.83984950186972
   36     0.00000050148517     0.00000273289642     0.00002257265576     0.00001193592730     0.00000458287340
   37     0.00000001402042     0.00000001900900     0.00000004582384     0.00000012248207     0.00000000816334
   38     0.00000000458316     0.00000000096331     0.00000006382504     0.00000004603106     0.00000000540315
   39     0.00000000469294     0.00000000302546     0.00000006206968     0.00000004129836     0.00000001556993
   40     0.00000000329859     0.00000004132926     0.00000029883089     0.00000023251121     0.00000003587947
   41     0.00000003015780     0.00000001465511     0.00000031959766     0.00000017072347     0.00000000375509
   42     0.00000000026203     0.00000000018416     0.00000000396789     0.00000000037751     0.00000000008110
   43     0.00000000019669     0.00000000025359     0.00000000483454     0.00000000137009     0.00000000007391
   44     0.00000000013789     0.00000000020317     0.00000000483879     0.00000000263488     0.00000000116620
   45     0.00000000016333     0.00000000179927     0.00000002858867     0.00000001305492     0.00000000338508
   46     0.00000000176155     0.00000000615908     0.00000004489787     0.00000009133928     0.00000007328701
   47     0.00000000053196     0.00000001272727     0.00000008701871     0.00000002504595     0.00000001429985
   48     0.00000004276986     0.00000017885154     0.00000444108123     0.00000074421930     0.00000023042441
   49     0.00000019636513     0.00000079456392     0.00000177581367     0.00000234040797     0.00000605074378
   50     0.00000527245950     0.00001288577052     0.00002140775886     0.00008324641529     0.00002945890890
   51     0.00000944006218     0.00006772140832     0.00103615996233     0.00001723947794     0.00042814171573
   52     0.00000016156954     0.00000996222479     0.00015261818301     0.00000068132510     0.00000686635026
   53     0.00000808063493     0.00026846677499     0.00002816098705     0.00009180970066     0.00039461380292
   54     0.00000479878560     0.00003503166559     0.00019378292753     0.00071146510419     0.00171733537037
   55     0.00015238127808     0.00034184322467     0.00002356375213     0.00031273621403     0.00047163423363
   56     0.00008726707382     0.00004952033612     0.00007703213223     0.00066325508738     0.00035561469282
   57     0.00056709517462     0.00052170638602     0.00052641574313     0.00005209983460     0.00037387156005
   58     0.00014625296317     0.00051733252232     0.00092699491303     0.00007421156921     0.00002356957556
   59     0.00744296792153     0.00094912616637     0.00010056442634     0.00171162476120     0.00012603189158
   60     0.00933778460794     0.00056665494515     0.00014404233863     0.00008599894329     0.00015990200100
   61     0.00000000000000     0.00176721632795     0.00061977542986     0.00026610544847     0.00002356251939
   62     0.00176721632795     0.00000000000000     0.00660981787283     0.00412217143632     0.00177744105469
   63     0.00061977542986     0.00660981787283     0.00000000000000     0.01747922504008     0.00360010807183
   64     0.00026610544847     0.00412217143632     0.01747922504008     0.00000000000000     0.00660385044875
   65     0.00002356251939     0.00177744105469     0.00360010807183     0.00660385044875     0.00000000000000
   66     0.00000000041424     0.00000000400421     0.00000000909001     0.00000003190126     0.00000000260018
   67     0.00000000078267     0.00000000361547     0.00000000819956     0.00000001937764     0.00000000302200
   68     0.00000000048274     0.00000000011848     0.00000000240148     0.00000000269151     0.00000000113911

                66                  67                  68

    1     0.00000068429673     0.00000081584017     0.00000031494359
    2     0.00000146149273     0.00000149490800     0.00000094093532
    3     0.00000660721632     0.00001012984242     0.00000446409613
    4     0.00001073330472     0.00000841002951     0.00000870780672
    5     0.00000039270090     0.00000054782739     0.00000049055935
    6     0.00000041029025     0.00000023748433     0.00000021341265
    7     0.00003157336697     0.00003082642785     0.00001427801571
    8     0.00009013936116     0.00006651854164     0.00000380360712
    9     0.00001645812175     0.00001795432358     0.00000373717149
   10     0.00014393129289     0.00010654170937     0.00003142594163
   11     0.00074252948431     0.00056062816391     0.00018967656551
   12     0.00021054152860     0.00018192087145     0.00006208687326
   13     0.00830134678286     0.00677414636387     0.00162093987007
   14     0.01367552787677     0.01383436169364     0.00682959756257
   15     0.04136872548633     0.04211252259981     0.04513656818450
   16     0.01247221475086     0.01310015345395     0.01947725311063
   17     0.00083773761316     0.00084510187873     0.00142052768980
   18     0.00262977726674     0.00290622972159     0.00034241318109
   19     0.00085117081154     0.00080563331494     0.00074053850484
   20     0.00031783435114     0.00036329171472     0.00006898645040
   21     0.00019028763657     0.00021751814445     0.00002818259174
   22     0.00001094951108     0.00001152826671     0.00000744571960
   23     0.00001250949174     0.00001470679180     0.00000309435433
   24     0.00000190590889     0.00000148444805     0.00000044661562
   25     0.00000737407357     0.00000837454302     0.00000039306652
   26     0.00000149246384     0.00000157670216     0.00000032892045
   27     0.00001374523666     0.00001403957404     0.00000174878135
   28     0.00000051612038     0.00000055895204     0.00000007865663
   29     0.00000044786893     0.00000056030175     0.00000001656919
   30     0.00000004498536     0.00000007923393     0.00000001008930
   31     0.00000009639671     0.00000006689120     0.00000001306741
   32     0.00000001388174     0.00000000686337     0.00000000365328
   33     0.00000000850681     0.00000000458436     0.00000000187773
   34     0.00000005970543     0.00000005943809     0.00000001073476
   35     0.00000004701735     0.00000009470099     0.00000001699514
   36     0.00012147979073     0.00011961752672     0.00001413264511
   37     0.89850139611715     0.89884875891082     0.90341209568063
   38     0.00000008583783     0.00000007635914     0.00000001993066
   39     0.00000003864754     0.00000016032716     0.00000008029368
   40     0.00000471697505     0.00000157214258     0.00000415860285
   41     0.00000001739331     0.00000004505111     0.00000005990895
   42     0.00000068213209     0.00000025906889     0.00000008787378
   43     0.00000067483233     0.00000053378316     0.00000022442969
   44     0.00136116560674     0.00114450182195     0.00044015443101
   45     0.00011694352315     0.00008725017364     0.00219825806822
   46     0.00014571708270     0.00012923628487     0.00002975522948
   47     0.00006992838122     0.00006905057857     0.00025627285180
   48     0.00001409479791     0.00000572404192     0.00001716588621
   49     0.00000079439971     0.00000239881883     0.00000023838054
   50     0.00000004754880     0.00000003177078     0.00000004138019
   51     0.00000004977440     0.00000018752532     0.00000004303479
   52     0.00000018960349     0.00000045393513     0.00000017768731
   53     0.00000004752811     0.00000008300488     0.00000000664735
   54     0.00000002669903     0.00000004628784     0.00000000786387
   55     0.00000000212257     0.00000000521484     0.00000000139917
   56     0.00000002749233     0.00000001836335     0.00000000208589
   57     0.00000000233748     0.00000000354508     0.00000000037969
   58     0.00000002342548     0.00000000694714     0.00000000275430
   59     0.00000000079088     0.00000000057692     0.00000000017651
   60     0.00000000028140     0.00000000012495     0.00000000023075
   61     0.00000000041424     0.00000000078267     0.00000000048274
   62     0.00000000400421     0.00000000361547     0.00000000011848
   63     0.00000000909001     0.00000000819956     0.00000000240148
   64     0.00000003190126     0.00000001937764     0.00000000269151
   65     0.00000000260018     0.00000000302200     0.00000000113911
   66     0.00000000000000     0.00693225783545     0.00919093067168
   67     0.00693225783545     0.00000000000000     0.00909970850990
   68     0.00919093067168     0.00909970850990     0.00000000000000



  Atomic Valences: 

 #  #
 Irrep: 1
      1:  4.4067727
      2:  4.4404008
      3:  4.6223462
      4:  4.5969593
      5:  3.9171997
      6:  4.5592172
      7:  4.7578419
      8:  4.3783758
      9:  4.5344861
     10:  3.8669456
     11:  5.0168739
     12:  3.9587745
     13:  3.9619246
     14:  4.6813633
     15:  4.6492880
     16:  4.4559309
     17:  4.4153191
     18:  4.6900852
     19:  4.4433963
     20:  4.0066501
     21:  5.0129489
     22:  4.6333145
     23:  4.4872939
     24:  4.5121648
     25:  4.7544831
     26:  4.5022689
     27:  4.4559921
     28:  4.5413150
     29:  4.2756455
     30:  4.5933392
     31:  4.6035783
     32:  4.2428880
     33:  4.3061243
     34:  4.6046892
     35:  4.5920964
     36:  2.7526963
     37:  4.1578614
     38:  0.9887137
     39:  0.9886814
     40:  0.9918570
     41:  0.9896590
     42:  0.9879583
     43:  0.9887279
     44:  0.9341859
     45:  0.9903652
     46:  0.9826652
     47:  0.9950101
     48:  0.9468861
     49:  0.9919061
     50:  0.9876069
     51:  0.9880814
     52:  0.9822383
     53:  0.9929489
     54:  0.9926995
     55:  0.9921938
     56:  0.9911374
     57:  0.9905532
     58:  0.9837945
     59:  1.0060430
     60:  1.0014087
     61:  1.0012400
     62:  0.9904339
     63:  0.9846106
     64:  0.9906813
     65:  0.9903743
     66:  0.9984107
     67:  0.9984401
     68:  1.0006624


    Psi4 stopped on: Friday, 24 April 2020 12:20PM
    Psi4 wall time for execution: 0:21:36.64

*** Psi4 exiting successfully. Buy a developer a beer!
