 Entering Gaussian System, Link 0=g09
 Input=MOLECULE0-opt-25-28-29-35-026.com
 Output=MOLECULE0-opt-25-28-29-35-026.log
 Initial command:
 /opt/g09gh/gaussian/g09/l1.exe /scratch/bdw2292/Gau-MOLECULE0/Gau-48083.inp -scrdir=/scratch/bdw2292/Gau-MOLECULE0/
 Entering Link 1 = /opt/g09gh/gaussian/g09/l1.exe PID=     48084.
  
 Copyright (c) 1988,1990,1992,1993,1995,1998,2003,2009, Gaussian, Inc.
                  All Rights Reserved.
  
 This is part of the Gaussian(R) 09 program.  It is based on
 the Gaussian(R) 03 system (copyright 2003, Gaussian, Inc.),
 the Gaussian(R) 98 system (copyright 1998, Gaussian, Inc.),
 the Gaussian(R) 94 system (copyright 1995, Gaussian, Inc.),
 the Gaussian 92(TM) system (copyright 1992, Gaussian, Inc.),
 the Gaussian 90(TM) system (copyright 1990, Gaussian, Inc.),
 the Gaussian 88(TM) system (copyright 1988, Gaussian, Inc.),
 the Gaussian 86(TM) system (copyright 1986, Carnegie Mellon
 University), and the Gaussian 82(TM) system (copyright 1983,
 Carnegie Mellon University). Gaussian is a federally registered
 trademark of Gaussian, Inc.
  
 This software contains proprietary and confidential information,
 including trade secrets, belonging to Gaussian, Inc.
  
 This software is provided under written license and may be
 used, copied, transmitted, or stored only in accord with that
 written license.
  
 The following legend is applicable only to US Government
 contracts under FAR:
  
                    RESTRICTED RIGHTS LEGEND
  
 Use, reproduction and disclosure by the US Government is
 subject to restrictions as set forth in subparagraphs (a)
 and (c) of the Commercial Computer Software - Restricted
 Rights clause in FAR 52.227-19.
  
 Gaussian, Inc.
 340 Quinnipiac St., Bldg. 40, Wallingford CT 06492
  
  
 ---------------------------------------------------------------
 Warning -- This program may not be used in any manner that
 competes with the business of Gaussian, Inc. or will provide
 assistance to any competitor of Gaussian, Inc.  The licensee
 of this program is prohibited from giving any competitor of
 Gaussian, Inc. access to this program.  By using this program,
 the user acknowledges that Gaussian, Inc. is engaged in the
 business of creating and licensing software in the field of
 computational chemistry and represents and warrants to the
 licensee that it is not a competitor of Gaussian, Inc. and that
 it will not use this program in any manner prohibited above.
 ---------------------------------------------------------------
  

 Cite this work as:
 Gaussian 09, Revision A.02,
 M. J. Frisch, G. W. Trucks, H. B. Schlegel, G. E. Scuseria, 
 M. A. Robb, J. R. Cheeseman, G. Scalmani, V. Barone, B. Mennucci, 
 G. A. Petersson, H. Nakatsuji, M. Caricato, X. Li, H. P. Hratchian, 
 A. F. Izmaylov, J. Bloino, G. Zheng, J. L. Sonnenberg, M. Hada, 
 M. Ehara, K. Toyota, R. Fukuda, J. Hasegawa, M. Ishida, T. Nakajima, 
 Y. Honda, O. Kitao, H. Nakai, T. Vreven, J. A. Montgomery, Jr., 
 J. E. Peralta, F. Ogliaro, M. Bearpark, J. J. Heyd, E. Brothers, 
 K. N. Kudin, V. N. Staroverov, R. Kobayashi, J. Normand, 
 K. Raghavachari, A. Rendell, J. C. Burant, S. S. Iyengar, J. Tomasi, 
 M. Cossi, N. Rega, J. M. Millam, M. Klene, J. E. Knox, J. B. Cross, 
 V. Bakken, C. Adamo, J. Jaramillo, R. Gomperts, R. E. Stratmann, 
 O. Yazyev, A. J. Austin, R. Cammi, C. Pomelli, J. W. Ochterski, 
 R. L. Martin, K. Morokuma, V. G. Zakrzewski, G. A. Voth, 
 P. Salvador, J. J. Dannenberg, S. Dapprich, A. D. Daniels, 
 O. Farkas, J. B. Foresman, J. V. Ortiz, J. Cioslowski, 
 and D. J. Fox, Gaussian, Inc., Wallingford CT, 2009.
 
 ******************************************
 Gaussian 09:  EM64L-G09RevA.02 11-Jun-2009
                11-Mar-2020 
 ******************************************
 %RWF=/scratch/bdw2292/Gau-MOLECULE0/,100GB
 %Nosave
 %Chk=MOLECULE0-opt-25-28-29-35-026.chk
 %Mem=20GB
 %Nproc=6
 Will use up to    6 processors via shared memory.
 --------------------------------------------------
 #P opt=(,maxcycle=400) wB97XD/6-31G* MaxDisk=100GB
 --------------------------------------------------
 1/6=400,14=-1,18=20,19=15,26=3,38=1/1,3;
 2/9=110,12=2,17=6,18=5,40=1/2;
 3/5=1,6=6,7=1,11=2,16=1,25=1,30=1,71=1,74=-58/1,2,3;
 4//1;
 5/5=2,38=5/2;
 6/7=2,8=2,9=2,10=2,28=1/1;
 7//1,2,3,16;
 1/6=400,14=-1,18=20,19=15/3(2);
 2/9=110/2;
 99//99;
 2/9=110/2;
 3/5=1,6=6,7=1,11=2,16=1,25=1,30=1,71=1,74=-58/1,2,3;
 4/5=5,16=3/1;
 5/5=2,38=5/2;
 7//1,2,3,16;
 1/6=400,14=-1,18=20,19=15/3(-5);
 2/9=110/2;
 6/7=2,8=2,9=2,10=2,19=2,28=1/1;
 99/9=1/99;
 Leave Link    1 at Wed Mar 11 00:00:34 2020, MaxMem= 2684354560 cpu:       0.6
 (Enter /opt/g09gh/gaussian/g09/l101.exe)
 -----------------------------------------------------------------
 MOLECULE0 Rotatable Bond Optimization on g2-node38.bme.utexas.edu
 -----------------------------------------------------------------
 Symbolic Z-matrix:
 Charge =  0 Multiplicity = 1
 C                    -0.13976   4.57845  -1.08455 
 C                     1.20283   4.44583  -0.70388 
 C                     1.77402   3.16463  -0.56872 
 C                     0.91532   2.07747  -0.8674 
 N                    -0.36717   2.18175  -1.23947 
 C                    -0.88037   3.41796  -1.33597 
 C                     3.20367   2.92852  -0.14389 
 C                     4.16469   3.92713   0.08203 
 C                     5.4344    3.47378   0.45696 
 N                     5.75911   2.19458   0.62155 
 C                     4.76881   1.30381   0.40411 
 N                     3.5286    1.63246   0.02993 
 N                     5.11013  -0.02702   0.60318 
 C                     4.39879  -1.26904   0.42136 
 C                     5.12487  -2.49717   0.36303 
 C                     4.38073  -3.67453   0.17234 
 C                     2.98775  -3.70607   0.03459 
 C                     2.29038  -2.4965    0.10958 
 C                     3.00453  -1.30372   0.30481 
 N                     0.87717  -2.329    -0.02375 
 C                    -0.11698  -3.20555  -0.39043 
 C                    -1.47809  -2.60429  -0.68544 
 C                    -1.62993  -1.34683  -1.29409 
 C                    -2.90079  -0.81647  -1.51591 
 C                    -4.06412  -1.51965  -1.15109 
 C                    -3.89888  -2.78664  -0.55893 
 C                    -2.6298   -3.33215  -0.34503 
 C                    -5.44578  -0.88911  -1.34093 
 N                    -5.97004   0.03355  -0.31457 
 C                    -7.12554   0.8807   -0.67661 
 C                    -6.73294   2.258    -1.27129 
 N                    -5.76862   3.02781  -0.44514 
 C                    -6.34521   3.84491   0.62932 
 C                    -4.62716   2.15539  -0.07651 
 C                    -5.03732   0.79626   0.54724 
 O                     0.0591   -4.41189  -0.45599 
 C                     6.63729  -2.58056   0.47828 
 H                    -0.60237   5.55603  -1.18275 
 H                     1.77065   5.3501   -0.49915 
 H                     1.29683   1.06308  -0.8244 
 H                    -1.92627   3.48035  -1.6329 
 H                     3.97949   4.98738  -0.03889 
 H                     6.24003   4.18506   0.63712 
 H                     6.08756  -0.09315   0.84506 
 H                     4.90251  -4.62884   0.11315 
 H                     2.45205  -4.63371  -0.12731 
 H                     2.47273  -0.36808   0.36597 
 H                     0.5632   -1.3781    0.11088 
 H                    -0.75189  -0.77319  -1.58156 
 H                    -2.97348   0.1694   -1.97412 
 H                    -4.77272  -3.35844  -0.24818 
 H                    -2.51011  -4.30955   0.11563 
 H                    -5.44354  -0.35538  -2.30292 
 H                    -6.17756  -1.70513  -1.43069 
 H                    -7.95657   0.19714  -1.59347 
 H                    -7.93097   1.14517   0.57751 
 H                    -7.57123   2.85442  -1.49352 
 H                    -6.00647   1.94308  -2.62188 
 H                    -6.81469   3.21448   1.39316 
 H                    -7.10097   4.52596   0.22127 
 H                    -5.5662    4.45368   1.10214 
 H                    -3.79406   2.87769   0.96807 
 H                    -3.98124   2.00632  -0.99146 
 H                    -5.8089    1.14998   1.86441 
 H                    -4.26399   0.23436   0.82547 
 H                     6.98111  -2.25857   1.47141 
 H                     7.13436  -1.94298  -0.26645 
 H                     7.02359  -3.59785   0.32565 
 
 NAtoms=     68 NQM=     68 NQMF=      0 NMic=      0 NMicF=      0 NTot=     68.
                    Isotopes and Nuclear Properties:
 (Nuclear quadrupole moments (NQMom) in fm**2, nuclear magnetic moments (NMagM)
  in nuclear magnetons)

  Atom         1           2           3           4           5           6           7           8           9          10
 IAtWgt=          12          12          12          12          14          12          12          12          12          14
 AtmWgt=  12.0000000  12.0000000  12.0000000  12.0000000  14.0030740  12.0000000  12.0000000  12.0000000  12.0000000  14.0030740
 NucSpn=           0           0           0           0           2           0           0           0           0           2
 AtZEff=   0.0000000   0.0000000   0.0000000   0.0000000   0.0000000   0.0000000   0.0000000   0.0000000   0.0000000   0.0000000
 NQMom=    0.0000000   0.0000000   0.0000000   0.0000000   2.0440000   0.0000000   0.0000000   0.0000000   0.0000000   2.0440000
 NMagM=    0.0000000   0.0000000   0.0000000   0.0000000   0.4037610   0.0000000   0.0000000   0.0000000   0.0000000   0.4037610

  Atom        11          12          13          14          15          16          17          18          19          20
 IAtWgt=          12          14          14          12          12          12          12          12          12          14
 AtmWgt=  12.0000000  14.0030740  14.0030740  12.0000000  12.0000000  12.0000000  12.0000000  12.0000000  12.0000000  14.0030740
 NucSpn=           0           2           2           0           0           0           0           0           0           2
 AtZEff=   0.0000000   0.0000000   0.0000000   0.0000000   0.0000000   0.0000000   0.0000000   0.0000000   0.0000000   0.0000000
 NQMom=    0.0000000   2.0440000   2.0440000   0.0000000   0.0000000   0.0000000   0.0000000   0.0000000   0.0000000   2.0440000
 NMagM=    0.0000000   0.4037610   0.4037610   0.0000000   0.0000000   0.0000000   0.0000000   0.0000000   0.0000000   0.4037610

  Atom        21          22          23          24          25          26          27          28          29          30
 IAtWgt=          12          12          12          12          12          12          12          12          14          12
 AtmWgt=  12.0000000  12.0000000  12.0000000  12.0000000  12.0000000  12.0000000  12.0000000  12.0000000  14.0030740  12.0000000
 NucSpn=           0           0           0           0           0           0           0           0           2           0
 AtZEff=   0.0000000   0.0000000   0.0000000   0.0000000   0.0000000   0.0000000   0.0000000   0.0000000   0.0000000   0.0000000
 NQMom=    0.0000000   0.0000000   0.0000000   0.0000000   0.0000000   0.0000000   0.0000000   0.0000000   2.0440000   0.0000000
 NMagM=    0.0000000   0.0000000   0.0000000   0.0000000   0.0000000   0.0000000   0.0000000   0.0000000   0.4037610   0.0000000

  Atom        31          32          33          34          35          36          37          38          39          40
 IAtWgt=          12          14          12          12          12          16          12           1           1           1
 AtmWgt=  12.0000000  14.0030740  12.0000000  12.0000000  12.0000000  15.9949146  12.0000000   1.0078250   1.0078250   1.0078250
 NucSpn=           0           2           0           0           0           0           0           1           1           1
 AtZEff=   0.0000000   0.0000000   0.0000000   0.0000000   0.0000000   0.0000000   0.0000000   0.0000000   0.0000000   0.0000000
 NQMom=    0.0000000   2.0440000   0.0000000   0.0000000   0.0000000   0.0000000   0.0000000   0.0000000   0.0000000   0.0000000
 NMagM=    0.0000000   0.4037610   0.0000000   0.0000000   0.0000000   0.0000000   0.0000000   2.7928460   2.7928460   2.7928460

  Atom        41          42          43          44          45          46          47          48          49          50
 IAtWgt=           1           1           1           1           1           1           1           1           1           1
 AtmWgt=   1.0078250   1.0078250   1.0078250   1.0078250   1.0078250   1.0078250   1.0078250   1.0078250   1.0078250   1.0078250
 NucSpn=           1           1           1           1           1           1           1           1           1           1
 AtZEff=   0.0000000   0.0000000   0.0000000   0.0000000   0.0000000   0.0000000   0.0000000   0.0000000   0.0000000   0.0000000
 NQMom=    0.0000000   0.0000000   0.0000000   0.0000000   0.0000000   0.0000000   0.0000000   0.0000000   0.0000000   0.0000000
 NMagM=    2.7928460   2.7928460   2.7928460   2.7928460   2.7928460   2.7928460   2.7928460   2.7928460   2.7928460   2.7928460

  Atom        51          52          53          54          55          56          57          58          59          60
 IAtWgt=           1           1           1           1           1           1           1           1           1           1
 AtmWgt=   1.0078250   1.0078250   1.0078250   1.0078250   1.0078250   1.0078250   1.0078250   1.0078250   1.0078250   1.0078250
 NucSpn=           1           1           1           1           1           1           1           1           1           1
 AtZEff=   0.0000000   0.0000000   0.0000000   0.0000000   0.0000000   0.0000000   0.0000000   0.0000000   0.0000000   0.0000000
 NQMom=    0.0000000   0.0000000   0.0000000   0.0000000   0.0000000   0.0000000   0.0000000   0.0000000   0.0000000   0.0000000
 NMagM=    2.7928460   2.7928460   2.7928460   2.7928460   2.7928460   2.7928460   2.7928460   2.7928460   2.7928460   2.7928460

  Atom        61          62          63          64          65          66          67          68
 IAtWgt=           1           1           1           1           1           1           1           1
 AtmWgt=   1.0078250   1.0078250   1.0078250   1.0078250   1.0078250   1.0078250   1.0078250   1.0078250
 NucSpn=           1           1           1           1           1           1           1           1
 AtZEff=   0.0000000   0.0000000   0.0000000   0.0000000   0.0000000   0.0000000   0.0000000   0.0000000
 NQMom=    0.0000000   0.0000000   0.0000000   0.0000000   0.0000000   0.0000000   0.0000000   0.0000000
 NMagM=    2.7928460   2.7928460   2.7928460   2.7928460   2.7928460   2.7928460   2.7928460   2.7928460
 Leave Link  101 at Wed Mar 11 00:00:34 2020, MaxMem= 2684354560 cpu:       0.6
 (Enter /opt/g09gh/gaussian/g09/l103.exe)

 GradGradGradGradGradGradGradGradGradGradGradGradGradGradGradGradGradGrad
 Berny optimization.
 Initialization pass.
                           ----------------------------
                           !    Initial Parameters    !
                           ! (Angstroms and Degrees)  !
 --------------------------                            --------------------------
 ! Name  Definition              Value          Derivative Info.                !
 --------------------------------------------------------------------------------
 ! R1    R(1,2)                  1.4018         estimate D2E/DX2                !
 ! R2    R(1,6)                  1.3994         estimate D2E/DX2                !
 ! R3    R(1,38)                 1.086          estimate D2E/DX2                !
 ! R4    R(2,3)                  1.4093         estimate D2E/DX2                !
 ! R5    R(2,39)                 1.0872         estimate D2E/DX2                !
 ! R6    R(3,4)                  1.4172         estimate D2E/DX2                !
 ! R7    R(3,7)                  1.51           estimate D2E/DX2                !
 ! R8    R(4,5)                  1.3394         estimate D2E/DX2                !
 ! R9    R(4,40)                 1.0846         estimate D2E/DX2                !
 ! R10   R(5,6)                  1.342          estimate D2E/DX2                !
 ! R11   R(6,41)                 1.089          estimate D2E/DX2                !
 ! R12   R(7,8)                  1.4042         estimate D2E/DX2                !
 ! R13   R(7,12)                 1.3474         estimate D2E/DX2                !
 ! R14   R(8,9)                  1.3994         estimate D2E/DX2                !
 ! R15   R(8,42)                 1.0831         estimate D2E/DX2                !
 ! R16   R(9,10)                 1.33           estimate D2E/DX2                !
 ! R17   R(9,43)                 1.0897         estimate D2E/DX2                !
 ! R18   R(10,11)                1.3496         estimate D2E/DX2                !
 ! R19   R(11,12)                1.3365         estimate D2E/DX2                !
 ! R20   R(11,13)                1.3882         estimate D2E/DX2                !
 ! R21   R(13,14)                1.4428         estimate D2E/DX2                !
 ! R22   R(13,44)                1.0091         estimate D2E/DX2                !
 ! R23   R(14,15)                1.4279         estimate D2E/DX2                !
 ! R24   R(14,19)                1.3996         estimate D2E/DX2                !
 ! R25   R(15,16)                1.4058         estimate D2E/DX2                !
 ! R26   R(15,37)                1.5191         estimate D2E/DX2                !
 ! R27   R(16,17)                1.4001         estimate D2E/DX2                !
 ! R28   R(16,45)                1.0893         estimate D2E/DX2                !
 ! R29   R(17,18)                1.3982         estimate D2E/DX2                !
 ! R30   R(17,46)                1.0834         estimate D2E/DX2                !
 ! R31   R(18,19)                1.4039         estimate D2E/DX2                !
 ! R32   R(18,20)                1.4293         estimate D2E/DX2                !
 ! R33   R(19,47)                1.0779         estimate D2E/DX2                !
 ! R34   R(20,21)                1.3752         estimate D2E/DX2                !
 ! R35   R(20,48)                1.0104         estimate D2E/DX2                !
 ! R36   R(21,22)                1.517          estimate D2E/DX2                !
 ! R37   R(21,36)                1.2209         estimate D2E/DX2                !
 ! R38   R(22,23)                1.4053         estimate D2E/DX2                !
 ! R39   R(22,27)                1.4043         estimate D2E/DX2                !
 ! R40   R(23,24)                1.3948         estimate D2E/DX2                !
 ! R41   R(23,49)                1.0875         estimate D2E/DX2                !
 ! R42   R(24,25)                1.4074         estimate D2E/DX2                !
 ! R43   R(24,50)                1.0896         estimate D2E/DX2                !
 ! R44   R(25,26)                1.4083         estimate D2E/DX2                !
 ! R45   R(25,28)                1.5306         estimate D2E/DX2                !
 ! R46   R(26,27)                1.3978         estimate D2E/DX2                !
 ! R47   R(26,51)                1.0895         estimate D2E/DX2                !
 ! R48   R(27,52)                1.0871         estimate D2E/DX2                !
 ! R49   R(28,29)                1.4763         estimate D2E/DX2                !
 ! R50   R(28,53)                1.1001         estimate D2E/DX2                !
 ! R51   R(28,54)                1.0998         estimate D2E/DX2                !
 ! R52   R(29,30)                1.4778         estimate D2E/DX2                !
 ! R53   R(29,35)                1.4814         estimate D2E/DX2                !
 ! R54   R(30,31)                1.5507         estimate D2E/DX2                !
 ! R55   R(30,55)                1.4137         estimate D2E/DX2                !
 ! R56   R(30,56)                1.5138         estimate D2E/DX2                !
 ! R57   R(31,32)                1.4849         estimate D2E/DX2                !
 ! R58   R(31,57)                1.0525         estimate D2E/DX2                !
 ! R59   R(31,58)                1.5656         estimate D2E/DX2                !
 ! R60   R(32,33)                1.4678         estimate D2E/DX2                !
 ! R61   R(32,34)                1.4832         estimate D2E/DX2                !
 ! R62   R(33,59)                1.096          estimate D2E/DX2                !
 ! R63   R(33,60)                1.0961         estimate D2E/DX2                !
 ! R64   R(33,61)                1.0959         estimate D2E/DX2                !
 ! R65   R(34,35)                1.5507         estimate D2E/DX2                !
 ! R66   R(34,62)                1.5189         estimate D2E/DX2                !
 ! R67   R(34,63)                1.1299         estimate D2E/DX2                !
 ! R68   R(35,64)                1.567          estimate D2E/DX2                !
 ! R69   R(35,65)                0.9956         estimate D2E/DX2                !
 ! R70   R(37,66)                1.0992         estimate D2E/DX2                !
 ! R71   R(37,67)                1.0992         estimate D2E/DX2                !
 ! R72   R(37,68)                1.0988         estimate D2E/DX2                !
 ! A1    A(2,1,6)              118.5026         estimate D2E/DX2                !
 ! A2    A(2,1,38)             121.1797         estimate D2E/DX2                !
 ! A3    A(6,1,38)             120.3176         estimate D2E/DX2                !
 ! A4    A(1,2,3)              120.0165         estimate D2E/DX2                !
 ! A5    A(1,2,39)             118.2073         estimate D2E/DX2                !
 ! A6    A(3,2,39)             121.7627         estimate D2E/DX2                !
 ! A7    A(2,3,4)              115.5697         estimate D2E/DX2                !
 ! A8    A(2,3,7)              123.5647         estimate D2E/DX2                !
 ! A9    A(4,3,7)              120.8648         estimate D2E/DX2                !
 ! A10   A(3,4,5)              125.3779         estimate D2E/DX2                !
 ! A11   A(3,4,40)             119.7331         estimate D2E/DX2                !
 ! A12   A(5,4,40)             114.8739         estimate D2E/DX2                !
 ! A13   A(4,5,6)              117.249          estimate D2E/DX2                !
 ! A14   A(1,6,5)              123.2701         estimate D2E/DX2                !
 ! A15   A(1,6,41)             120.6466         estimate D2E/DX2                !
 ! A16   A(5,6,41)             116.0822         estimate D2E/DX2                !
 ! A17   A(3,7,8)              125.5936         estimate D2E/DX2                !
 ! A18   A(3,7,12)             114.5192         estimate D2E/DX2                !
 ! A19   A(8,7,12)             119.8846         estimate D2E/DX2                !
 ! A20   A(7,8,9)              115.7018         estimate D2E/DX2                !
 ! A21   A(7,8,42)             124.1372         estimate D2E/DX2                !
 ! A22   A(9,8,42)             120.1455         estimate D2E/DX2                !
 ! A23   A(8,9,10)             124.4902         estimate D2E/DX2                !
 ! A24   A(8,9,43)             120.2418         estimate D2E/DX2                !
 ! A25   A(10,9,43)            115.2679         estimate D2E/DX2                !
 ! A26   A(9,10,11)            115.832          estimate D2E/DX2                !
 ! A27   A(10,11,12)           124.3141         estimate D2E/DX2                !
 ! A28   A(10,11,13)           115.4175         estimate D2E/DX2                !
 ! A29   A(12,11,13)           120.2673         estimate D2E/DX2                !
 ! A30   A(7,12,11)            119.7633         estimate D2E/DX2                !
 ! A31   A(11,13,14)           133.3101         estimate D2E/DX2                !
 ! A32   A(11,13,44)           109.594          estimate D2E/DX2                !
 ! A33   A(14,13,44)           116.8302         estimate D2E/DX2                !
 ! A34   A(13,14,15)           119.6596         estimate D2E/DX2                !
 ! A35   A(13,14,19)           121.5327         estimate D2E/DX2                !
 ! A36   A(15,14,19)           118.8073         estimate D2E/DX2                !
 ! A37   A(14,15,16)           117.1745         estimate D2E/DX2                !
 ! A38   A(14,15,37)           123.3934         estimate D2E/DX2                !
 ! A39   A(16,15,37)           119.4275         estimate D2E/DX2                !
 ! A40   A(15,16,17)           123.9758         estimate D2E/DX2                !
 ! A41   A(15,16,45)           119.1798         estimate D2E/DX2                !
 ! A42   A(17,16,45)           116.8399         estimate D2E/DX2                !
 ! A43   A(16,17,18)           118.1285         estimate D2E/DX2                !
 ! A44   A(16,17,46)           121.7317         estimate D2E/DX2                !
 ! A45   A(18,17,46)           120.1397         estimate D2E/DX2                !
 ! A46   A(17,18,19)           119.2578         estimate D2E/DX2                !
 ! A47   A(17,18,20)           126.1223         estimate D2E/DX2                !
 ! A48   A(19,18,20)           114.6054         estimate D2E/DX2                !
 ! A49   A(14,19,18)           122.6435         estimate D2E/DX2                !
 ! A50   A(14,19,47)           117.7267         estimate D2E/DX2                !
 ! A51   A(18,19,47)           119.6294         estimate D2E/DX2                !
 ! A52   A(18,20,21)           131.6779         estimate D2E/DX2                !
 ! A53   A(18,20,48)           113.8967         estimate D2E/DX2                !
 ! A54   A(21,20,48)           114.2526         estimate D2E/DX2                !
 ! A55   A(20,21,22)           116.6066         estimate D2E/DX2                !
 ! A56   A(20,21,36)           122.6745         estimate D2E/DX2                !
 ! A57   A(22,21,36)           120.7042         estimate D2E/DX2                !
 ! A58   A(21,22,23)           122.4023         estimate D2E/DX2                !
 ! A59   A(21,22,27)           118.9005         estimate D2E/DX2                !
 ! A60   A(23,22,27)           118.6964         estimate D2E/DX2                !
 ! A61   A(22,23,24)           120.5021         estimate D2E/DX2                !
 ! A62   A(22,23,49)           119.9509         estimate D2E/DX2                !
 ! A63   A(24,23,49)           119.5401         estimate D2E/DX2                !
 ! A64   A(23,24,25)           121.4596         estimate D2E/DX2                !
 ! A65   A(23,24,50)           118.1447         estimate D2E/DX2                !
 ! A66   A(25,24,50)           120.393          estimate D2E/DX2                !
 ! A67   A(24,25,26)           117.4846         estimate D2E/DX2                !
 ! A68   A(24,25,28)           120.5416         estimate D2E/DX2                !
 ! A69   A(26,25,28)           121.9186         estimate D2E/DX2                !
 ! A70   A(25,26,27)           121.4651         estimate D2E/DX2                !
 ! A71   A(25,26,51)           119.8667         estimate D2E/DX2                !
 ! A72   A(27,26,51)           118.6655         estimate D2E/DX2                !
 ! A73   A(22,27,26)           120.3461         estimate D2E/DX2                !
 ! A74   A(22,27,52)           118.5814         estimate D2E/DX2                !
 ! A75   A(26,27,52)           121.0426         estimate D2E/DX2                !
 ! A76   A(25,28,29)           119.459          estimate D2E/DX2                !
 ! A77   A(25,28,53)           107.8478         estimate D2E/DX2                !
 ! A78   A(25,28,54)           107.7647         estimate D2E/DX2                !
 ! A79   A(29,28,53)           107.7846         estimate D2E/DX2                !
 ! A80   A(29,28,54)           106.5093         estimate D2E/DX2                !
 ! A81   A(53,28,54)           106.8562         estimate D2E/DX2                !
 ! A82   A(28,29,30)           117.7493         estimate D2E/DX2                !
 ! A83   A(28,29,35)           120.1744         estimate D2E/DX2                !
 ! A84   A(30,29,35)           109.8579         estimate D2E/DX2                !
 ! A85   A(29,30,31)           113.8999         estimate D2E/DX2                !
 ! A86   A(29,30,55)           109.9586         estimate D2E/DX2                !
 ! A87   A(29,30,56)           108.2531         estimate D2E/DX2                !
 ! A88   A(31,30,55)           109.2429         estimate D2E/DX2                !
 ! A89   A(31,30,56)           107.2919         estimate D2E/DX2                !
 ! A90   A(55,30,56)           107.9998         estimate D2E/DX2                !
 ! A91   A(30,31,32)           114.299          estimate D2E/DX2                !
 ! A92   A(30,31,57)           112.4961         estimate D2E/DX2                !
 ! A93   A(30,31,58)           105.6434         estimate D2E/DX2                !
 ! A94   A(32,31,57)           109.9328         estimate D2E/DX2                !
 ! A95   A(32,31,58)           106.4326         estimate D2E/DX2                !
 ! A96   A(57,31,58)           107.542          estimate D2E/DX2                !
 ! A97   A(31,32,33)           116.1507         estimate D2E/DX2                !
 ! A98   A(31,32,34)           109.4577         estimate D2E/DX2                !
 ! A99   A(33,32,34)           116.6031         estimate D2E/DX2                !
 ! A100  A(32,33,59)           110.99           estimate D2E/DX2                !
 ! A101  A(32,33,60)           110.1336         estimate D2E/DX2                !
 ! A102  A(32,33,61)           110.2311         estimate D2E/DX2                !
 ! A103  A(59,33,60)           108.7525         estimate D2E/DX2                !
 ! A104  A(59,33,61)           108.8632         estimate D2E/DX2                !
 ! A105  A(60,33,61)           107.7934         estimate D2E/DX2                !
 ! A106  A(32,34,35)           114.3278         estimate D2E/DX2                !
 ! A107  A(32,34,62)           108.26           estimate D2E/DX2                !
 ! A108  A(32,34,63)           108.4397         estimate D2E/DX2                !
 ! A109  A(35,34,62)           106.5744         estimate D2E/DX2                !
 ! A110  A(35,34,63)           111.1805         estimate D2E/DX2                !
 ! A111  A(62,34,63)           107.8245         estimate D2E/DX2                !
 ! A112  A(29,35,34)           112.5702         estimate D2E/DX2                !
 ! A113  A(29,35,64)           107.1702         estimate D2E/DX2                !
 ! A114  A(29,35,65)           111.1663         estimate D2E/DX2                !
 ! A115  A(34,35,64)           105.6948         estimate D2E/DX2                !
 ! A116  A(34,35,65)           113.6804         estimate D2E/DX2                !
 ! A117  A(64,35,65)           105.9604         estimate D2E/DX2                !
 ! A118  A(15,37,66)           111.339          estimate D2E/DX2                !
 ! A119  A(15,37,67)           111.5298         estimate D2E/DX2                !
 ! A120  A(15,37,68)           112.9734         estimate D2E/DX2                !
 ! A121  A(66,37,67)           107.505          estimate D2E/DX2                !
 ! A122  A(66,37,68)           106.6626         estimate D2E/DX2                !
 ! A123  A(67,37,68)           106.4943         estimate D2E/DX2                !
 ! D1    D(6,1,2,3)             -0.6471         estimate D2E/DX2                !
 ! D2    D(6,1,2,39)          -179.3401         estimate D2E/DX2                !
 ! D3    D(38,1,2,3)           179.2538         estimate D2E/DX2                !
 ! D4    D(38,1,2,39)            0.5608         estimate D2E/DX2                !
 ! D5    D(2,1,6,5)             -0.4514         estimate D2E/DX2                !
 ! D6    D(2,1,6,41)           179.9416         estimate D2E/DX2                !
 ! D7    D(38,1,6,5)           179.6468         estimate D2E/DX2                !
 ! D8    D(38,1,6,41)            0.0398         estimate D2E/DX2                !
 ! D9    D(1,2,3,4)              1.2747         estimate D2E/DX2                !
 ! D10   D(1,2,3,7)           -179.0565         estimate D2E/DX2                !
 ! D11   D(39,2,3,4)           179.92           estimate D2E/DX2                !
 ! D12   D(39,2,3,7)            -0.4112         estimate D2E/DX2                !
 ! D13   D(2,3,4,5)             -0.9659         estimate D2E/DX2                !
 ! D14   D(2,3,4,40)           177.544          estimate D2E/DX2                !
 ! D15   D(7,3,4,5)            179.3557         estimate D2E/DX2                !
 ! D16   D(7,3,4,40)            -2.1344         estimate D2E/DX2                !
 ! D17   D(2,3,7,8)             -4.4879         estimate D2E/DX2                !
 ! D18   D(2,3,7,12)           174.9195         estimate D2E/DX2                !
 ! D19   D(4,3,7,8)            175.164          estimate D2E/DX2                !
 ! D20   D(4,3,7,12)            -5.4286         estimate D2E/DX2                !
 ! D21   D(3,4,5,6)             -0.056          estimate D2E/DX2                !
 ! D22   D(40,4,5,6)          -178.6298         estimate D2E/DX2                !
 ! D23   D(4,5,6,1)              0.7973         estimate D2E/DX2                !
 ! D24   D(4,5,6,41)          -179.5791         estimate D2E/DX2                !
 ! D25   D(3,7,8,9)           -179.3488         estimate D2E/DX2                !
 ! D26   D(3,7,8,42)            -0.7853         estimate D2E/DX2                !
 ! D27   D(12,7,8,9)             1.273          estimate D2E/DX2                !
 ! D28   D(12,7,8,42)          179.8366         estimate D2E/DX2                !
 ! D29   D(3,7,12,11)          179.9026         estimate D2E/DX2                !
 ! D30   D(8,7,12,11)           -0.6532         estimate D2E/DX2                !
 ! D31   D(7,8,9,10)            -0.9328         estimate D2E/DX2                !
 ! D32   D(7,8,9,43)           179.1421         estimate D2E/DX2                !
 ! D33   D(42,8,9,10)         -179.5579         estimate D2E/DX2                !
 ! D34   D(42,8,9,43)            0.517          estimate D2E/DX2                !
 ! D35   D(8,9,10,11)           -0.0668         estimate D2E/DX2                !
 ! D36   D(43,9,10,11)         179.8616         estimate D2E/DX2                !
 ! D37   D(9,10,11,12)           0.8052         estimate D2E/DX2                !
 ! D38   D(9,10,11,13)        -178.8174         estimate D2E/DX2                !
 ! D39   D(10,11,12,7)          -0.4495         estimate D2E/DX2                !
 ! D40   D(13,11,12,7)         179.1558         estimate D2E/DX2                !
 ! D41   D(10,11,13,14)       -176.2699         estimate D2E/DX2                !
 ! D42   D(10,11,13,44)         -2.5645         estimate D2E/DX2                !
 ! D43   D(12,11,13,14)          4.0911         estimate D2E/DX2                !
 ! D44   D(12,11,13,44)        177.7965         estimate D2E/DX2                !
 ! D45   D(11,13,14,15)        162.8635         estimate D2E/DX2                !
 ! D46   D(11,13,14,19)        -17.3886         estimate D2E/DX2                !
 ! D47   D(44,13,14,15)        -10.4894         estimate D2E/DX2                !
 ! D48   D(44,13,14,19)        169.2585         estimate D2E/DX2                !
 ! D49   D(13,14,15,16)       -179.436          estimate D2E/DX2                !
 ! D50   D(13,14,15,37)         -0.2288         estimate D2E/DX2                !
 ! D51   D(19,14,15,16)          0.8092         estimate D2E/DX2                !
 ! D52   D(19,14,15,37)       -179.9835         estimate D2E/DX2                !
 ! D53   D(13,14,19,18)        179.1295         estimate D2E/DX2                !
 ! D54   D(13,14,19,47)         -0.6431         estimate D2E/DX2                !
 ! D55   D(15,14,19,18)         -1.1205         estimate D2E/DX2                !
 ! D56   D(15,14,19,47)        179.1068         estimate D2E/DX2                !
 ! D57   D(14,15,16,17)          0.2025         estimate D2E/DX2                !
 ! D58   D(14,15,16,45)        179.4099         estimate D2E/DX2                !
 ! D59   D(37,15,16,17)       -179.0376         estimate D2E/DX2                !
 ! D60   D(37,15,16,45)          0.1698         estimate D2E/DX2                !
 ! D61   D(14,15,37,66)         64.8846         estimate D2E/DX2                !
 ! D62   D(14,15,37,67)        -55.1997         estimate D2E/DX2                !
 ! D63   D(14,15,37,68)       -175.1172         estimate D2E/DX2                !
 ! D64   D(16,15,37,66)       -115.9251         estimate D2E/DX2                !
 ! D65   D(16,15,37,67)        123.9906         estimate D2E/DX2                !
 ! D66   D(16,15,37,68)          4.0731         estimate D2E/DX2                !
 ! D67   D(15,16,17,18)         -0.9335         estimate D2E/DX2                !
 ! D68   D(15,16,17,46)        178.9809         estimate D2E/DX2                !
 ! D69   D(45,16,17,18)        179.8421         estimate D2E/DX2                !
 ! D70   D(45,16,17,46)         -0.2435         estimate D2E/DX2                !
 ! D71   D(16,17,18,19)          0.6291         estimate D2E/DX2                !
 ! D72   D(16,17,18,20)        179.1648         estimate D2E/DX2                !
 ! D73   D(46,17,18,19)       -179.2868         estimate D2E/DX2                !
 ! D74   D(46,17,18,20)         -0.751          estimate D2E/DX2                !
 ! D75   D(17,18,19,14)          0.383          estimate D2E/DX2                !
 ! D76   D(17,18,19,47)       -179.8485         estimate D2E/DX2                !
 ! D77   D(20,18,19,14)       -178.3161         estimate D2E/DX2                !
 ! D78   D(20,18,19,47)          1.4524         estimate D2E/DX2                !
 ! D79   D(17,18,20,21)         -8.2091         estimate D2E/DX2                !
 ! D80   D(17,18,20,48)        176.932          estimate D2E/DX2                !
 ! D81   D(19,18,20,21)        170.3859         estimate D2E/DX2                !
 ! D82   D(19,18,20,48)         -4.4731         estimate D2E/DX2                !
 ! D83   D(18,20,21,22)       -168.3008         estimate D2E/DX2                !
 ! D84   D(18,20,21,36)         13.0898         estimate D2E/DX2                !
 ! D85   D(48,20,21,22)          6.5438         estimate D2E/DX2                !
 ! D86   D(48,20,21,36)       -172.0655         estimate D2E/DX2                !
 ! D87   D(20,21,22,23)         35.2135         estimate D2E/DX2                !
 ! D88   D(20,21,22,27)       -145.1258         estimate D2E/DX2                !
 ! D89   D(36,21,22,23)       -146.1479         estimate D2E/DX2                !
 ! D90   D(36,21,22,27)         33.5128         estimate D2E/DX2                !
 ! D91   D(21,22,23,24)       -178.3424         estimate D2E/DX2                !
 ! D92   D(21,22,23,49)          0.6961         estimate D2E/DX2                !
 ! D93   D(27,22,23,24)          1.9963         estimate D2E/DX2                !
 ! D94   D(27,22,23,49)       -178.9652         estimate D2E/DX2                !
 ! D95   D(21,22,27,26)        177.6865         estimate D2E/DX2                !
 ! D96   D(21,22,27,52)         -0.3461         estimate D2E/DX2                !
 ! D97   D(23,22,27,26)         -2.6401         estimate D2E/DX2                !
 ! D98   D(23,22,27,52)        179.3273         estimate D2E/DX2                !
 ! D99   D(22,23,24,25)         -0.4991         estimate D2E/DX2                !
 ! D100  D(22,23,24,50)        178.9108         estimate D2E/DX2                !
 ! D101  D(49,23,24,25)       -179.5415         estimate D2E/DX2                !
 ! D102  D(49,23,24,50)         -0.1316         estimate D2E/DX2                !
 ! D103  D(23,24,25,26)         -0.3737         estimate D2E/DX2                !
 ! D104  D(23,24,25,28)        176.9762         estimate D2E/DX2                !
 ! D105  D(50,24,25,26)       -179.7705         estimate D2E/DX2                !
 ! D106  D(50,24,25,28)         -2.4206         estimate D2E/DX2                !
 ! D107  D(24,25,26,27)         -0.2835         estimate D2E/DX2                !
 ! D108  D(24,25,26,51)        179.1129         estimate D2E/DX2                !
 ! D109  D(28,25,26,27)       -177.5945         estimate D2E/DX2                !
 ! D110  D(28,25,26,51)          1.8019         estimate D2E/DX2                !
 ! D111  D(24,25,28,29)        -83.2278         estimate D2E/DX2                !
 ! D112  D(24,25,28,53)         40.1664         estimate D2E/DX2                !
 ! D113  D(24,25,28,54)        155.1933         estimate D2E/DX2                !
 ! D114  D(26,25,28,29)         94.0024         estimate D2E/DX2                !
 ! D115  D(26,25,28,53)       -142.6034         estimate D2E/DX2                !
 ! D116  D(26,25,28,54)        -27.5765         estimate D2E/DX2                !
 ! D117  D(25,26,27,22)          1.8166         estimate D2E/DX2                !
 ! D118  D(25,26,27,52)        179.8002         estimate D2E/DX2                !
 ! D119  D(51,26,27,22)       -177.5868         estimate D2E/DX2                !
 ! D120  D(51,26,27,52)          0.3968         estimate D2E/DX2                !
 ! D121  D(25,28,29,30)        164.7388         estimate D2E/DX2                !
 ! D122  D(25,28,29,35)         26.1586         estimate D2E/DX2                !
 ! D123  D(53,28,29,30)         41.3137         estimate D2E/DX2                !
 ! D124  D(53,28,29,35)        -97.2665         estimate D2E/DX2                !
 ! D125  D(54,28,29,30)        -73.0602         estimate D2E/DX2                !
 ! D126  D(54,28,29,35)        148.3596         estimate D2E/DX2                !
 ! D127  D(28,29,30,31)        -90.7031         estimate D2E/DX2                !
 ! D128  D(28,29,30,55)         32.2836         estimate D2E/DX2                !
 ! D129  D(28,29,30,56)        150.0553         estimate D2E/DX2                !
 ! D130  D(35,29,30,31)         51.8457         estimate D2E/DX2                !
 ! D131  D(35,29,30,55)        174.8324         estimate D2E/DX2                !
 ! D132  D(35,29,30,56)        -67.3959         estimate D2E/DX2                !
 ! D133  D(28,29,35,34)         88.656          estimate D2E/DX2                !
 ! D134  D(28,29,35,64)       -155.5559         estimate D2E/DX2                !
 ! D135  D(28,29,35,65)        -40.1989         estimate D2E/DX2                !
 ! D136  D(30,29,35,34)        -52.845          estimate D2E/DX2                !
 ! D137  D(30,29,35,64)         62.9431         estimate D2E/DX2                !
 ! D138  D(30,29,35,65)        178.3001         estimate D2E/DX2                !
 ! D139  D(29,30,31,32)        -51.9486         estimate D2E/DX2                !
 ! D140  D(29,30,31,57)       -178.2365         estimate D2E/DX2                !
 ! D141  D(29,30,31,58)         64.7149         estimate D2E/DX2                !
 ! D142  D(55,30,31,32)       -175.325          estimate D2E/DX2                !
 ! D143  D(55,30,31,57)         58.3871         estimate D2E/DX2                !
 ! D144  D(55,30,31,58)        -58.6615         estimate D2E/DX2                !
 ! D145  D(56,30,31,32)         67.8373         estimate D2E/DX2                !
 ! D146  D(56,30,31,57)        -58.4507         estimate D2E/DX2                !
 ! D147  D(56,30,31,58)       -175.4992         estimate D2E/DX2                !
 ! D148  D(30,31,32,33)        -85.295          estimate D2E/DX2                !
 ! D149  D(30,31,32,34)         49.3371         estimate D2E/DX2                !
 ! D150  D(57,31,32,33)         42.3159         estimate D2E/DX2                !
 ! D151  D(57,31,32,34)        176.948          estimate D2E/DX2                !
 ! D152  D(58,31,32,33)        158.4977         estimate D2E/DX2                !
 ! D153  D(58,31,32,34)        -66.8701         estimate D2E/DX2                !
 ! D154  D(31,32,33,59)         65.5785         estimate D2E/DX2                !
 ! D155  D(31,32,33,60)        -54.912          estimate D2E/DX2                !
 ! D156  D(31,32,33,61)       -173.7273         estimate D2E/DX2                !
 ! D157  D(34,32,33,59)        -65.7931         estimate D2E/DX2                !
 ! D158  D(34,32,33,60)        173.7164         estimate D2E/DX2                !
 ! D159  D(34,32,33,61)         54.901          estimate D2E/DX2                !
 ! D160  D(31,32,34,35)        -51.0937         estimate D2E/DX2                !
 ! D161  D(31,32,34,62)       -169.7025         estimate D2E/DX2                !
 ! D162  D(31,32,34,63)         73.5673         estimate D2E/DX2                !
 ! D163  D(33,32,34,35)         83.3103         estimate D2E/DX2                !
 ! D164  D(33,32,34,62)        -35.2985         estimate D2E/DX2                !
 ! D165  D(33,32,34,63)       -152.0288         estimate D2E/DX2                !
 ! D166  D(32,34,35,29)         54.8499         estimate D2E/DX2                !
 ! D167  D(32,34,35,64)        -61.8214         estimate D2E/DX2                !
 ! D168  D(32,34,35,65)       -177.6139         estimate D2E/DX2                !
 ! D169  D(62,34,35,29)        174.4094         estimate D2E/DX2                !
 ! D170  D(62,34,35,64)         57.7381         estimate D2E/DX2                !
 ! D171  D(62,34,35,65)        -58.0543         estimate D2E/DX2                !
 ! D172  D(63,34,35,29)        -68.3431         estimate D2E/DX2                !
 ! D173  D(63,34,35,64)        174.9856         estimate D2E/DX2                !
 ! D174  D(63,34,35,65)         59.1931         estimate D2E/DX2                !
 --------------------------------------------------------------------------------
 Trust Radius=3.00D-01 FncErr=1.00D-07 GrdErr=1.00D-06
 Number of steps in this run= 400 maximum allowed number of steps= 408.
 GradGradGradGradGradGradGradGradGradGradGradGradGradGradGradGradGradGrad

 Leave Link  103 at Wed Mar 11 00:00:34 2020, MaxMem= 2684354560 cpu:       0.1
 (Enter /opt/g09gh/gaussian/g09/l202.exe)
 Stoichiometry    C29H31N7O
 Framework group  C1[X(C29H31N7O)]
 Deg. of freedom   198
 Full point group                 C1      NOp   1
 Largest Abelian subgroup         C1      NOp   1
 Largest concise Abelian subgroup C1      NOp   1
                         Standard orientation:                         
 ---------------------------------------------------------------------
 Center     Atomic      Atomic             Coordinates (Angstroms)
 Number     Number       Type             X           Y           Z
 ---------------------------------------------------------------------
      1          6           0       -0.620115    4.297157   -0.769572
      2          6           0        0.754861    4.338011   -0.499743
      3          6           0        1.492901    3.140333   -0.416780
      4          6           0        0.757556    1.951345   -0.649307
      5          7           0       -0.553717    1.890047   -0.915562
      6          6           0       -1.225591    3.050680   -0.964882
      7          6           0        2.970646    3.089841   -0.110440
      8          6           0        3.812467    4.203501    0.040871
      9          6           0        5.155586    3.916953    0.309555
     10          7           0        5.652075    2.690223    0.441878
     11          6           0        4.768329    1.679874    0.301837
     12          7           0        3.470237    1.846465    0.030981
     13          7           0        5.290584    0.404249    0.466952
     14          6           0        4.730022   -0.918973    0.338295
     15          6           0        5.598775   -2.045567    0.216049
     16          6           0        4.996871   -3.308859    0.081475
     17          6           0        3.612580   -3.517439    0.057171
     18          6           0        2.775912   -2.405511    0.193605
     19          6           0        3.346583   -1.130694    0.335198
     20          7           0        1.346754   -2.419189    0.176176
     21          6           0        0.445292   -3.416846   -0.112232
     22          6           0       -1.000448   -2.994662   -0.293213
     23          6           0       -1.359294   -1.770329   -0.882255
     24          6           0       -2.700891   -1.406596   -0.997914
     25          6           0       -3.732265   -2.249215   -0.542779
     26          6           0       -3.360311   -3.481403    0.028684
     27          6           0       -2.019194   -3.860444    0.136537
     28          6           0       -5.193510   -1.799941   -0.617157
     29          7           0       -5.745537   -0.944835    0.452251
     30          6           0       -7.024607   -0.253111    0.188788
     31          6           0       -6.859270    1.159135   -0.430026
     32          7           0       -5.936514    2.049968    0.318305
     33          6           0       -6.522994    2.794040    1.439449
     34          6           0       -4.667580    1.331447    0.589367
     35          6           0       -4.850231   -0.064835    1.238658
     36          8           0        0.766958   -4.591542   -0.196927
     37          6           0        7.113888   -1.936006    0.207747
     38          1           0       -1.209333    5.207639   -0.825781
     39          1           0        1.218206    5.308158   -0.338005
     40          1           0        1.266782    0.993736   -0.641677
     41          1           0       -2.291569    2.978256   -1.175634
     42          1           0        3.485186    5.230990   -0.060163
     43          1           0        5.876495    4.725643    0.426681
     44          1           0        6.284884    0.463945    0.628385
     45          1           0        5.628871   -4.189736   -0.023884
     46          1           0        3.187424   -4.506442   -0.064588
     47          1           0        2.707199   -0.269599    0.443266
     48          1           0        0.926750   -1.514908    0.339849
     49          1           0       -0.587259   -1.091866   -1.237660
     50          1           0       -2.934864   -0.440715   -1.444574
     51          1           0       -4.126529   -4.157364    0.406974
     52          1           0       -1.739627   -4.811951    0.581859
     53          1           0       -5.336943   -1.276155   -1.573907
     54          1           0       -5.820807   -2.702623   -0.650612
     55          1           0       -7.833879   -1.042061   -0.660415
     56          1           0       -7.752708   -0.085087    1.505262
     57          1           0       -7.781622    1.643191   -0.580955
     58          1           0       -6.210650    0.930480   -1.836465
     59          1           0       -6.845287    2.113926    2.236245
     60          1           0       -7.389556    3.371345    1.096975
     61          1           0       -5.791673    3.499473    1.850000
     62          1           0       -3.850822    2.159863    1.565867
     63          1           0       -4.084298    1.259769   -0.375628
     64          1           0       -5.551068    0.196392    2.615607
     65          1           0       -3.991925   -0.522526    1.450812
     66          1           0        7.493508   -1.566960    1.171023
     67          1           0        7.464103   -1.245187   -0.572204
     68          1           0        7.612354   -2.897081    0.019988
 ---------------------------------------------------------------------
 Rotational constants (GHZ):      0.1354167      0.0567317      0.0411469
 Leave Link  202 at Wed Mar 11 00:00:34 2020, MaxMem= 2684354560 cpu:       0.1
 (Enter /opt/g09gh/gaussian/g09/l301.exe)
 Standard basis: 6-31G(d) (6D, 7F)
 Ernie: Thresh=  0.10000D-02 Tol=  0.10000D-05 Strict=F.
 There are   617 symmetry adapted basis functions of A   symmetry.
 Integral buffers will be    131072 words long.
 Raffenetti 2 integral format.
 Two-electron integral symmetry is turned on.
   617 basis functions,  1160 primitive gaussians,   617 cartesian basis functions
   131 alpha electrons      131 beta electrons
       nuclear repulsion energy      3734.6924268897 Hartrees.
 IExCor= 4639 DFT=T Ex+Corr=wB97XD ExCW=0 ScaHFX=  1.000000
 ScaDFX=  1.000000  1.000000  1.000000  1.000000 ScalE2=  1.000000  1.000000
 IRadAn=      0 IRanWt=     -1 IRanGd=            0 ICorTp=0
  HFx wShort=  0.000000 wLong=  0.200000 cFull=  0.222036 cShort=  0.000000 cLong=  0.777964
  DFx wShort=  0.000000 wLong=  0.200000 cFull=  0.000000 cShort=  0.000000 cLong=  1.000000
 NAtoms=   68 NActive=   68 NUniq=   68 SFac= 7.50D-01 NAtFMM=   80 NAOKFM=F Big=T
 R6Disp: Dispersion energy =        -0.0571031727 Hartrees.
 Nuclear repulsion after empirical dispersion term =     3734.6353237170 Hartrees.
 Leave Link  301 at Wed Mar 11 00:00:34 2020, MaxMem= 2684354560 cpu:       0.4
 (Enter /opt/g09gh/gaussian/g09/l302.exe)
 NPDir=0 NMtPBC=     1 NCelOv=     1 NCel=       1 NClECP=     1 NCelD=      1
         NCelK=      1 NCelE2=     1 NClLst=     1 CellRange=     0.0.
 One-electron integrals computed using PRISM.
 NBasis=   617 RedAO= T  NBF=   617
 NBsUse=   617 1.00D-06 NBFU=   617
 Precomputing XC quadrature grid using
 IXCGrd= 2 IRadAn=           0 IRanWt=          -1 IRanGd=           0 AccXCQ= 1.00D-10.
 NRdTot=    4386 NPtTot=      560838 NUsed=      592437 NTot=      592469
 NSgBfM=   601   601   601   601   601 NAtAll=    68    68.
 Leave Link  302 at Wed Mar 11 00:00:36 2020, MaxMem= 2684354560 cpu:      10.1
 (Enter /opt/g09gh/gaussian/g09/l303.exe)
 DipDrv:  MaxL=1.
 Leave Link  303 at Wed Mar 11 00:00:36 2020, MaxMem= 2684354560 cpu:       0.7
 (Enter /opt/g09gh/gaussian/g09/l401.exe)
 Harris functional with IExCor= 4639 diagonalized for initial guess.
 ExpMin= 1.61D-01 ExpMax= 5.48D+03 ExpMxC= 8.25D+02 IAcc=1 IRadAn=         1 AccDes= 0.00D+00
 HarFok:  IExCor= 4639 AccDes= 0.00D+00 IRadAn=         1 IDoV= 1
 ScaDFX=  1.000000  1.000000  1.000000  1.000000
 FoFCou: FMM=F IPFlag=           0 FMFlag=      100000 FMFlg1=           1
         NFxFlg=           0 DoJE=T BraDBF=F KetDBF=T FulRan=T
         Omega=  0.000000  0.000000  1.000000  0.000000  0.000000 ICntrl=     500 IOpCl=  0
         NMat0=    1 NMatS0=    1 NMatT0=    0 NMatD0=    1 NMtDS0=    0 NMtDT0=    0
         I1Cent=           4 NGrid=           0.
 Petite list used in FoFCou.
 Harris En= -1512.35946471172    
 Initial guess orbital symmetries:
       Occupied  (A) (A) (A) (A) (A) (A) (A) (A) (A) (A) (A) (A)
                 (A) (A) (A) (A) (A) (A) (A) (A) (A) (A) (A) (A)
                 (A) (A) (A) (A) (A) (A) (A) (A) (A) (A) (A) (A)
                 (A) (A) (A) (A) (A) (A) (A) (A) (A) (A) (A) (A)
                 (A) (A) (A) (A) (A) (A) (A) (A) (A) (A) (A) (A)
                 (A) (A) (A) (A) (A) (A) (A) (A) (A) (A) (A) (A)
                 (A) (A) (A) (A) (A) (A) (A) (A) (A) (A) (A) (A)
                 (A) (A) (A) (A) (A) (A) (A) (A) (A) (A) (A) (A)
                 (A) (A) (A) (A) (A) (A) (A) (A) (A) (A) (A) (A)
                 (A) (A) (A) (A) (A) (A) (A) (A) (A) (A) (A) (A)
                 (A) (A) (A) (A) (A) (A) (A) (A) (A) (A) (A)
       Virtual   (A) (A) (A) (A) (A) (A) (A) (A) (A) (A) (A) (A)
                 (A) (A) (A) (A) (A) (A) (A) (A) (A) (A) (A) (A)
                 (A) (A) (A) (A) (A) (A) (A) (A) (A) (A) (A) (A)
                 (A) (A) (A) (A) (A) (A) (A) (A) (A) (A) (A) (A)
                 (A) (A) (A) (A) (A) (A) (A) (A) (A) (A) (A) (A)
                 (A) (A) (A) (A) (A) (A) (A) (A) (A) (A) (A) (A)
                 (A) (A) (A) (A) (A) (A) (A) (A) (A) (A) (A) (A)
                 (A) (A) (A) (A) (A) (A) (A) (A) (A) (A) (A) (A)
                 (A) (A) (A) (A) (A) (A) (A) (A) (A) (A) (A) (A)
                 (A) (A) (A) (A) (A) (A) (A) (A) (A) (A) (A) (A)
                 (A) (A) (A) (A) (A) (A) (A) (A) (A) (A) (A) (A)
                 (A) (A) (A) (A) (A) (A) (A) (A) (A) (A) (A) (A)
                 (A) (A) (A) (A) (A) (A) (A) (A) (A) (A) (A) (A)
                 (A) (A) (A) (A) (A) (A) (A) (A) (A) (A) (A) (A)
                 (A) (A) (A) (A) (A) (A) (A) (A) (A) (A) (A) (A)
                 (A) (A) (A) (A) (A) (A) (A) (A) (A) (A) (A) (A)
                 (A) (A) (A) (A) (A) (A) (A) (A) (A) (A) (A) (A)
                 (A) (A) (A) (A) (A) (A) (A) (A) (A) (A) (A) (A)
                 (A) (A) (A) (A) (A) (A) (A) (A) (A) (A) (A) (A)
                 (A) (A) (A) (A) (A) (A) (A) (A) (A) (A) (A) (A)
                 (A) (A) (A) (A) (A) (A) (A) (A) (A) (A) (A) (A)
                 (A) (A) (A) (A) (A) (A) (A) (A) (A) (A) (A) (A)
                 (A) (A) (A) (A) (A) (A) (A) (A) (A) (A) (A) (A)
                 (A) (A) (A) (A) (A) (A) (A) (A) (A) (A) (A) (A)
                 (A) (A) (A) (A) (A) (A) (A) (A) (A) (A) (A) (A)
                 (A) (A) (A) (A) (A) (A) (A) (A) (A) (A) (A) (A)
                 (A) (A) (A) (A) (A) (A) (A) (A) (A) (A) (A) (A)
                 (A) (A) (A) (A) (A) (A) (A) (A) (A) (A) (A) (A)
                 (A) (A) (A) (A) (A) (A) (A) (A) (A) (A) (A) (A)
                 (A) (A) (A) (A) (A) (A) (A) (A) (A) (A) (A) (A)
                 (A) (A) (A) (A) (A) (A) (A) (A) (A) (A) (A) (A)
                 (A) (A) (A) (A) (A) (A) (A) (A) (A) (A) (A) (A)
                 (A) (A) (A) (A) (A) (A) (A) (A) (A) (A) (A) (A)
                 (A) (A) (A) (A) (A) (A) (A) (A) (A) (A) (A) (A)
                 (A) (A) (A) (A) (A) (A) (A) (A) (A) (A) (A) (A)
                 (A) (A) (A) (A) (A) (A) (A) (A) (A) (A) (A) (A)
                 (A) (A) (A) (A) (A) (A) (A) (A) (A) (A) (A) (A)
                 (A) (A) (A) (A) (A) (A) (A) (A) (A) (A) (A) (A)
                 (A) (A) (A) (A) (A) (A) (A) (A) (A) (A) (A) (A)
                 (A) (A) (A) (A) (A) (A) (A) (A) (A) (A) (A) (A)
                 (A) (A) (A) (A) (A) (A)
 The electronic state of the initial guess is 1-A.
 Leave Link  401 at Wed Mar 11 00:00:39 2020, MaxMem= 2684354560 cpu:      22.2
 (Enter /opt/g09gh/gaussian/g09/l502.exe)
 Closed shell SCF:
 Requested convergence on RMS density matrix=1.00D-08 within 128 cycles.
 Requested convergence on MAX density matrix=1.00D-06.
 Requested convergence on             energy=1.00D-06.
 No special actions if energy rises.
 Using DIIS extrapolation, IDIIS=  1040.
 Integral symmetry usage will be decided dynamically.
       591812 words used for storage of precomputed grid.
 IEnd=     1760392 IEndB=     1760392 NGot=  2684354560 MDV=  2682992115
 LenX=  2682992115 LenY=  2682610809
 Fock matrices will be formed incrementally for  20 cycles.
 Integral accuracy reduced to 1.0D-05 until final iterations.

 Cycle   1  Pass 0  IDiag  1:
 FoFJK:  IHMeth= 1 ICntrl=     0 DoSepK=T KAlg= 1 I1Cent= 0 FoldK=F
 FoFCou: FMM=T IPFlag=           0 FMFlag=      100000 FMFlg1=           1
         NFxFlg=           0 DoJE=T BraDBF=F KetDBF=F FulRan=T
         Omega=  0.000000  0.000000  1.000000  0.000000  0.000000 ICntrl=     500 IOpCl=  0
         NMat0=    1 NMatS0=    1 NMatT0=    0 NMatD0=    1 NMtDS0=    0 NMtDT0=    0
         I1Cent=           0 NGrid=           0.
 Symmetry not used in FoFCou.
 FMM levels:  10  Number of levels for PrismC:   9
 E= -1581.10986322957    
 DIIS: error= 5.82D-02 at cycle   1 NSaved=   1.
 NSaved= 1 IEnMin= 1 EnMin= -1581.10986322957     IErMin= 1 ErrMin= 5.82D-02
 ErrMax= 5.82D-02 EMaxC= 1.00D-01 BMatC= 1.46D+00 BMatP= 1.46D+00
 IDIUse=3 WtCom= 4.18D-01 WtEn= 5.82D-01
 Coeff-Com:  0.100D+01
 Coeff-En:   0.100D+01
 Coeff:      0.100D+01
 Gap=     0.273 Goal=   None    Shift=    0.000
 GapD=    0.273 DampG=1.000 DampE=0.500 DampFc=0.5000 IDamp=-1.
 Damping current iteration by 5.00D-01
 RMSDP=1.89D-03 MaxDP=8.90D-02              OVMax= 1.71D-01

 Cycle   2  Pass 0  IDiag  1:
 RMSU=  6.69D-04    CP:  1.00D+00
 FoFJK:  IHMeth= 1 ICntrl=     0 DoSepK=T KAlg= 1 I1Cent= 0 FoldK=F
 E= -1581.28739273399     Delta-E=       -0.177529504416 Rises=F Damp=T
 DIIS: error= 2.95D-02 at cycle   2 NSaved=   2.
 NSaved= 2 IEnMin= 2 EnMin= -1581.28739273399     IErMin= 2 ErrMin= 2.95D-02
 ErrMax= 2.95D-02 EMaxC= 1.00D-01 BMatC= 3.22D-01 BMatP= 1.46D+00
 IDIUse=3 WtCom= 7.05D-01 WtEn= 2.95D-01
 Coeff-Com: -0.649D+00 0.165D+01
 Coeff-En:   0.000D+00 0.100D+01
 Coeff:     -0.457D+00 0.146D+01
 Gap=     0.280 Goal=   None    Shift=    0.000
 RMSDP=8.80D-04 MaxDP=3.85D-02 DE=-1.78D-01 OVMax= 1.21D-01

 Cycle   3  Pass 0  IDiag  1:
 RMSU=  5.68D-04    CP:  1.00D+00  1.38D+00
 FoFJK:  IHMeth= 1 ICntrl=     0 DoSepK=T KAlg= 1 I1Cent= 0 FoldK=F
 E= -1581.41885360712     Delta-E=       -0.131460873135 Rises=F Damp=F
 DIIS: error= 8.73D-03 at cycle   3 NSaved=   3.
 NSaved= 3 IEnMin= 3 EnMin= -1581.41885360712     IErMin= 3 ErrMin= 8.73D-03
 ErrMax= 8.73D-03 EMaxC= 1.00D-01 BMatC= 6.20D-02 BMatP= 3.22D-01
 IDIUse=3 WtCom= 9.13D-01 WtEn= 8.73D-02
 Coeff-Com: -0.361D+00 0.746D+00 0.615D+00
 Coeff-En:   0.000D+00 0.000D+00 0.100D+01
 Coeff:     -0.329D+00 0.681D+00 0.648D+00
 Gap=     0.263 Goal=   None    Shift=    0.000
 RMSDP=4.75D-04 MaxDP=3.20D-02 DE=-1.31D-01 OVMax= 6.21D-02

 Cycle   4  Pass 0  IDiag  1:
 RMSU=  1.45D-04    CP:  1.00D+00  1.67D+00  5.93D-01
 FoFJK:  IHMeth= 1 ICntrl=     0 DoSepK=T KAlg= 1 I1Cent= 0 FoldK=F
 E= -1581.47368379381     Delta-E=       -0.054830186684 Rises=F Damp=F
 DIIS: error= 2.30D-03 at cycle   4 NSaved=   4.
 NSaved= 4 IEnMin= 4 EnMin= -1581.47368379381     IErMin= 4 ErrMin= 2.30D-03
 ErrMax= 2.30D-03 EMaxC= 1.00D-01 BMatC= 4.04D-03 BMatP= 6.20D-02
 IDIUse=3 WtCom= 9.77D-01 WtEn= 2.30D-02
 Coeff-Com: -0.162D+00 0.329D+00 0.351D+00 0.481D+00
 Coeff-En:   0.000D+00 0.000D+00 0.000D+00 0.100D+01
 Coeff:     -0.158D+00 0.322D+00 0.343D+00 0.493D+00
 Gap=     0.257 Goal=   None    Shift=    0.000
 RMSDP=1.07D-04 MaxDP=9.28D-03 DE=-5.48D-02 OVMax= 1.06D-02

 Cycle   5  Pass 0  IDiag  1:
 RMSU=  4.65D-05    CP:  1.00D+00  1.65D+00  6.65D-01  7.13D-01
 FoFJK:  IHMeth= 1 ICntrl=     0 DoSepK=T KAlg= 1 I1Cent= 0 FoldK=F
 E= -1581.47721866309     Delta-E=       -0.003534869282 Rises=F Damp=F
 DIIS: error= 5.22D-04 at cycle   5 NSaved=   5.
 NSaved= 5 IEnMin= 5 EnMin= -1581.47721866309     IErMin= 5 ErrMin= 5.22D-04
 ErrMax= 5.22D-04 EMaxC= 1.00D-01 BMatC= 8.98D-05 BMatP= 4.04D-03
 IDIUse=3 WtCom= 9.95D-01 WtEn= 5.22D-03
 Coeff-Com: -0.140D-01 0.275D-01 0.521D-01 0.155D+00 0.780D+00
 Coeff-En:   0.000D+00 0.000D+00 0.000D+00 0.000D+00 0.100D+01
 Coeff:     -0.139D-01 0.273D-01 0.518D-01 0.154D+00 0.781D+00
 Gap=     0.256 Goal=   None    Shift=    0.000
 RMSDP=2.47D-05 MaxDP=2.58D-03 DE=-3.53D-03 OVMax= 2.92D-03

 Cycle   6  Pass 0  IDiag  1:
 RMSU=  1.32D-05    CP:  1.00D+00  1.66D+00  6.72D-01  7.82D-01  9.95D-01
 FoFJK:  IHMeth= 1 ICntrl=     0 DoSepK=T KAlg= 1 I1Cent= 0 FoldK=F
 E= -1581.47730829013     Delta-E=       -0.000089627042 Rises=F Damp=F
 DIIS: error= 2.11D-04 at cycle   6 NSaved=   6.
 NSaved= 6 IEnMin= 6 EnMin= -1581.47730829013     IErMin= 6 ErrMin= 2.11D-04
 ErrMax= 2.11D-04 EMaxC= 1.00D-01 BMatC= 2.68D-05 BMatP= 8.98D-05
 IDIUse=3 WtCom= 9.98D-01 WtEn= 2.11D-03
 Coeff-Com:  0.230D-01-0.476D-01-0.370D-01-0.143D-01 0.396D+00 0.680D+00
 Coeff-En:   0.000D+00 0.000D+00 0.000D+00 0.000D+00 0.000D+00 0.100D+01
 Coeff:      0.230D-01-0.475D-01-0.369D-01-0.142D-01 0.395D+00 0.681D+00
 Gap=     0.256 Goal=   None    Shift=    0.000
 RMSDP=1.32D-05 MaxDP=8.03D-04 DE=-8.96D-05 OVMax= 1.68D-03

 Cycle   7  Pass 0  IDiag  1:
 RMSU=  5.76D-06    CP:  1.00D+00  1.66D+00  6.75D-01  8.08D-01  1.11D+00
                    CP:  8.93D-01
 FoFJK:  IHMeth= 1 ICntrl=     0 DoSepK=T KAlg= 1 I1Cent= 0 FoldK=F
 E= -1581.47733850805     Delta-E=       -0.000030217922 Rises=F Damp=F
 DIIS: error= 7.08D-05 at cycle   7 NSaved=   7.
 NSaved= 7 IEnMin= 7 EnMin= -1581.47733850805     IErMin= 7 ErrMin= 7.08D-05
 ErrMax= 7.08D-05 EMaxC= 1.00D-01 BMatC= 1.74D-06 BMatP= 2.68D-05
 IDIUse=1 WtCom= 1.00D+00 WtEn= 0.00D+00
 Coeff-Com:  0.951D-02-0.195D-01-0.173D-01-0.200D-01 0.646D-01 0.238D+00
 Coeff-Com:  0.745D+00
 Coeff:      0.951D-02-0.195D-01-0.173D-01-0.200D-01 0.646D-01 0.238D+00
 Coeff:      0.745D+00
 Gap=     0.256 Goal=   None    Shift=    0.000
 RMSDP=4.12D-06 MaxDP=2.68D-04 DE=-3.02D-05 OVMax= 6.41D-04

 Initial convergence to 1.0D-05 achieved.  Increase integral accuracy.
 Cycle   8  Pass 1  IDiag  1:
 FoFJK:  IHMeth= 1 ICntrl=     0 DoSepK=T KAlg= 1 I1Cent= 0 FoldK=F
 E= -1581.47620430047     Delta-E=        0.001134207586 Rises=F Damp=F
 DIIS: error= 8.46D-05 at cycle   1 NSaved=   1.
 NSaved= 1 IEnMin= 1 EnMin= -1581.47620430047     IErMin= 1 ErrMin= 8.46D-05
 ErrMax= 8.46D-05 EMaxC= 1.00D-01 BMatC= 1.17D-05 BMatP= 1.17D-05
 IDIUse=1 WtCom= 1.00D+00 WtEn= 0.00D+00
 Coeff-Com:  0.100D+01
 Coeff:      0.100D+01
 Gap=     0.256 Goal=   None    Shift=    0.000
 RMSDP=4.12D-06 MaxDP=2.68D-04 DE= 1.13D-03 OVMax= 3.90D-04

 Cycle   9  Pass 1  IDiag  1:
 RMSU=  1.90D-05    CP:  1.00D+00
 FoFJK:  IHMeth= 1 ICntrl=     0 DoSepK=T KAlg= 1 I1Cent= 0 FoldK=F
 E= -1581.47621384904     Delta-E=       -0.000009548576 Rises=F Damp=F
 DIIS: error= 4.08D-05 at cycle   2 NSaved=   2.
 NSaved= 2 IEnMin= 2 EnMin= -1581.47621384904     IErMin= 2 ErrMin= 4.08D-05
 ErrMax= 4.08D-05 EMaxC= 1.00D-01 BMatC= 7.68D-07 BMatP= 1.17D-05
 IDIUse=1 WtCom= 1.00D+00 WtEn= 0.00D+00
 Coeff-Com:  0.466D-01 0.953D+00
 Coeff:      0.466D-01 0.953D+00
 Gap=     0.257 Goal=   None    Shift=    0.000
 RMSDP=3.13D-06 MaxDP=2.45D-04 DE=-9.55D-06 OVMax= 2.94D-04

 Cycle  10  Pass 1  IDiag  1:
 RMSU=  2.04D-06    CP:  1.00D+00  1.05D+00
 FoFJK:  IHMeth= 1 ICntrl=     0 DoSepK=T KAlg= 1 I1Cent= 0 FoldK=F
 E= -1581.47621397119     Delta-E=       -0.000000122150 Rises=F Damp=F
 DIIS: error= 4.27D-05 at cycle   3 NSaved=   3.
 NSaved= 3 IEnMin= 3 EnMin= -1581.47621397119     IErMin= 2 ErrMin= 4.08D-05
 ErrMax= 4.27D-05 EMaxC= 1.00D-01 BMatC= 8.85D-07 BMatP= 7.68D-07
 IDIUse=1 WtCom= 1.00D+00 WtEn= 0.00D+00
 Coeff-Com: -0.400D-01 0.532D+00 0.508D+00
 Coeff:     -0.400D-01 0.532D+00 0.508D+00
 Gap=     0.257 Goal=   None    Shift=    0.000
 RMSDP=1.54D-06 MaxDP=1.40D-04 DE=-1.22D-07 OVMax= 1.51D-04

 Cycle  11  Pass 1  IDiag  1:
 RMSU=  6.36D-07    CP:  1.00D+00  1.06D+00  5.76D-01
 FoFJK:  IHMeth= 1 ICntrl=     0 DoSepK=T KAlg= 1 I1Cent= 0 FoldK=F
 E= -1581.47621474489     Delta-E=       -0.000000773702 Rises=F Damp=F
 DIIS: error= 7.73D-06 at cycle   4 NSaved=   4.
 NSaved= 4 IEnMin= 4 EnMin= -1581.47621474489     IErMin= 4 ErrMin= 7.73D-06
 ErrMax= 7.73D-06 EMaxC= 1.00D-01 BMatC= 2.39D-08 BMatP= 7.68D-07
 IDIUse=1 WtCom= 1.00D+00 WtEn= 0.00D+00
 Coeff-Com: -0.182D-01 0.134D+00 0.183D+00 0.700D+00
 Coeff:     -0.182D-01 0.134D+00 0.183D+00 0.700D+00
 Gap=     0.256 Goal=   None    Shift=    0.000
 RMSDP=3.55D-07 MaxDP=3.59D-05 DE=-7.74D-07 OVMax= 3.91D-05

 Cycle  12  Pass 1  IDiag  1:
 RMSU=  2.25D-07    CP:  1.00D+00  1.06D+00  6.27D-01  1.04D+00
 FoFJK:  IHMeth= 1 ICntrl=     0 DoSepK=T KAlg= 1 I1Cent= 0 FoldK=F
 E= -1581.47621477018     Delta-E=       -0.000000025289 Rises=F Damp=F
 DIIS: error= 2.83D-06 at cycle   5 NSaved=   5.
 NSaved= 5 IEnMin= 5 EnMin= -1581.47621477018     IErMin= 5 ErrMin= 2.83D-06
 ErrMax= 2.83D-06 EMaxC= 1.00D-01 BMatC= 5.10D-09 BMatP= 2.39D-08
 IDIUse=1 WtCom= 1.00D+00 WtEn= 0.00D+00
 Coeff-Com:  0.927D-03-0.520D-01-0.278D-01 0.298D+00 0.781D+00
 Coeff:      0.927D-03-0.520D-01-0.278D-01 0.298D+00 0.781D+00
 Gap=     0.257 Goal=   None    Shift=    0.000
 RMSDP=2.12D-07 MaxDP=1.29D-05 DE=-2.53D-08 OVMax= 3.22D-05

 Cycle  13  Pass 1  IDiag  1:
 RMSU=  8.93D-08    CP:  1.00D+00  1.06D+00  6.49D-01  1.22D+00  9.65D-01
 FoFJK:  IHMeth= 1 ICntrl=     0 DoSepK=T KAlg= 1 I1Cent= 0 FoldK=F
 E= -1581.47621477812     Delta-E=       -0.000000007940 Rises=F Damp=F
 DIIS: error= 7.09D-07 at cycle   6 NSaved=   6.
 NSaved= 6 IEnMin= 6 EnMin= -1581.47621477812     IErMin= 6 ErrMin= 7.09D-07
 ErrMax= 7.09D-07 EMaxC= 1.00D-01 BMatC= 6.17D-10 BMatP= 5.10D-09
 IDIUse=1 WtCom= 1.00D+00 WtEn= 0.00D+00
 Coeff-Com:  0.241D-02-0.346D-01-0.321D-01 0.332D-01 0.299D+00 0.732D+00
 Coeff:      0.241D-02-0.346D-01-0.321D-01 0.332D-01 0.299D+00 0.732D+00
 Gap=     0.257 Goal=   None    Shift=    0.000
 RMSDP=8.14D-08 MaxDP=3.77D-06 DE=-7.94D-09 OVMax= 1.39D-05

 Cycle  14  Pass 1  IDiag  1:
 RMSU=  3.60D-08    CP:  1.00D+00  1.06D+00  6.53D-01  1.27D+00  1.09D+00
                    CP:  1.05D+00
 FoFJK:  IHMeth= 1 ICntrl=     0 DoSepK=T KAlg= 1 I1Cent= 0 FoldK=F
 E= -1581.47621477935     Delta-E=       -0.000000001231 Rises=F Damp=F
 DIIS: error= 3.94D-07 at cycle   7 NSaved=   7.
 NSaved= 7 IEnMin= 7 EnMin= -1581.47621477935     IErMin= 7 ErrMin= 3.94D-07
 ErrMax= 3.94D-07 EMaxC= 1.00D-01 BMatC= 1.18D-10 BMatP= 6.17D-10
 IDIUse=1 WtCom= 1.00D+00 WtEn= 0.00D+00
 Coeff-Com:  0.690D-03-0.200D-02-0.708D-02-0.567D-01-0.570D-01 0.275D+00
 Coeff-Com:  0.847D+00
 Coeff:      0.690D-03-0.200D-02-0.708D-02-0.567D-01-0.570D-01 0.275D+00
 Coeff:      0.847D+00
 Gap=     0.257 Goal=   None    Shift=    0.000
 RMSDP=4.79D-08 MaxDP=1.69D-06 DE=-1.23D-09 OVMax= 7.91D-06

 Cycle  15  Pass 1  IDiag  1:
 RMSU=  1.53D-08    CP:  1.00D+00  1.06D+00  6.57D-01  1.30D+00  1.15D+00
                    CP:  1.28D+00  1.06D+00
 FoFJK:  IHMeth= 1 ICntrl=     0 DoSepK=T KAlg= 1 I1Cent= 0 FoldK=F
 E= -1581.47621477973     Delta-E=       -0.000000000379 Rises=F Damp=F
 DIIS: error= 1.26D-07 at cycle   8 NSaved=   8.
 NSaved= 8 IEnMin= 8 EnMin= -1581.47621477973     IErMin= 8 ErrMin= 1.26D-07
 ErrMax= 1.26D-07 EMaxC= 1.00D-01 BMatC= 1.77D-11 BMatP= 1.18D-10
 IDIUse=1 WtCom= 1.00D+00 WtEn= 0.00D+00
 Coeff-Com: -0.937D-04 0.434D-02 0.222D-02-0.242D-01-0.603D-01-0.591D-02
 Coeff-Com:  0.317D+00 0.767D+00
 Coeff:     -0.937D-04 0.434D-02 0.222D-02-0.242D-01-0.603D-01-0.591D-02
 Coeff:      0.317D+00 0.767D+00
 Gap=     0.257 Goal=   None    Shift=    0.000
 RMSDP=1.60D-08 MaxDP=6.96D-07 DE=-3.79D-10 OVMax= 3.39D-06

 Cycle  16  Pass 1  IDiag  1:
 RMSU=  6.19D-09    CP:  1.00D+00  1.06D+00  6.58D-01  1.30D+00  1.16D+00
                    CP:  1.33D+00  1.23D+00  1.07D+00
 FoFJK:  IHMeth= 1 ICntrl=     0 DoSepK=T KAlg= 1 I1Cent= 0 FoldK=F
 E= -1581.47621477975     Delta-E=       -0.000000000014 Rises=F Damp=F
 DIIS: error= 6.70D-08 at cycle   9 NSaved=   9.
 NSaved= 9 IEnMin= 9 EnMin= -1581.47621477975     IErMin= 9 ErrMin= 6.70D-08
 ErrMax= 6.70D-08 EMaxC= 1.00D-01 BMatC= 3.27D-12 BMatP= 1.77D-11
 IDIUse=1 WtCom= 1.00D+00 WtEn= 0.00D+00
 Coeff-Com: -0.173D-03 0.209D-02 0.230D-02 0.120D-02-0.140D-01-0.607D-01
 Coeff-Com: -0.417D-01 0.293D+00 0.818D+00
 Coeff:     -0.173D-03 0.209D-02 0.230D-02 0.120D-02-0.140D-01-0.607D-01
 Coeff:     -0.417D-01 0.293D+00 0.818D+00
 Gap=     0.257 Goal=   None    Shift=    0.000
 RMSDP=7.57D-09 MaxDP=3.52D-07 DE=-1.36D-11 OVMax= 1.59D-06

 SCF Done:  E(RwB97XD) =  -1581.47621478     A.U. after   16 cycles
             Convg  =    0.7566D-08             -V/T =  2.0110
 KE= 1.564331517582D+03 PE=-1.113728240993D+04 EE= 4.256839353850D+03
 Leave Link  502 at Wed Mar 11 00:04:28 2020, MaxMem= 2684354560 cpu:    1371.7
 (Enter /opt/g09gh/gaussian/g09/l601.exe)
 Copying SCF densities to generalized density rwf, IOpCl= 0 IROHF=0.

 **********************************************************************

            Population analysis using the SCF density.

 **********************************************************************

 Orbital symmetries:
       Occupied  (A) (A) (A) (A) (A) (A) (A) (A) (A) (A) (A) (A)
                 (A) (A) (A) (A) (A) (A) (A) (A) (A) (A) (A) (A)
                 (A) (A) (A) (A) (A) (A) (A) (A) (A) (A) (A) (A)
                 (A) (A) (A) (A) (A) (A) (A) (A) (A) (A) (A) (A)
                 (A) (A) (A) (A) (A) (A) (A) (A) (A) (A) (A) (A)
                 (A) (A) (A) (A) (A) (A) (A) (A) (A) (A) (A) (A)
                 (A) (A) (A) (A) (A) (A) (A) (A) (A) (A) (A) (A)
                 (A) (A) (A) (A) (A) (A) (A) (A) (A) (A) (A) (A)
                 (A) (A) (A) (A) (A) (A) (A) (A) (A) (A) (A) (A)
                 (A) (A) (A) (A) (A) (A) (A) (A) (A) (A) (A) (A)
                 (A) (A) (A) (A) (A) (A) (A) (A) (A) (A) (A)
       Virtual   (A) (A) (A) (A) (A) (A) (A) (A) (A) (A) (A) (A)
                 (A) (A) (A) (A) (A) (A) (A) (A) (A) (A) (A) (A)
                 (A) (A) (A) (A) (A) (A) (A) (A) (A) (A) (A) (A)
                 (A) (A) (A) (A) (A) (A) (A) (A) (A) (A) (A) (A)
                 (A) (A) (A) (A) (A) (A) (A) (A) (A) (A) (A) (A)
                 (A) (A) (A) (A) (A) (A) (A) (A) (A) (A) (A) (A)
                 (A) (A) (A) (A) (A) (A) (A) (A) (A) (A) (A) (A)
                 (A) (A) (A) (A) (A) (A) (A) (A) (A) (A) (A) (A)
                 (A) (A) (A) (A) (A) (A) (A) (A) (A) (A) (A) (A)
                 (A) (A) (A) (A) (A) (A) (A) (A) (A) (A) (A) (A)
                 (A) (A) (A) (A) (A) (A) (A) (A) (A) (A) (A) (A)
                 (A) (A) (A) (A) (A) (A) (A) (A) (A) (A) (A) (A)
                 (A) (A) (A) (A) (A) (A) (A) (A) (A) (A) (A) (A)
                 (A) (A) (A) (A) (A) (A) (A) (A) (A) (A) (A) (A)
                 (A) (A) (A) (A) (A) (A) (A) (A) (A) (A) (A) (A)
                 (A) (A) (A) (A) (A) (A) (A) (A) (A) (A) (A) (A)
                 (A) (A) (A) (A) (A) (A) (A) (A) (A) (A) (A) (A)
                 (A) (A) (A) (A) (A) (A) (A) (A) (A) (A) (A) (A)
                 (A) (A) (A) (A) (A) (A) (A) (A) (A) (A) (A) (A)
                 (A) (A) (A) (A) (A) (A) (A) (A) (A) (A) (A) (A)
                 (A) (A) (A) (A) (A) (A) (A) (A) (A) (A) (A) (A)
                 (A) (A) (A) (A) (A) (A) (A) (A) (A) (A) (A) (A)
                 (A) (A) (A) (A) (A) (A) (A) (A) (A) (A) (A) (A)
                 (A) (A) (A) (A) (A) (A) (A) (A) (A) (A) (A) (A)
                 (A) (A) (A) (A) (A) (A) (A) (A) (A) (A) (A) (A)
                 (A) (A) (A) (A) (A) (A) (A) (A) (A) (A) (A) (A)
                 (A) (A) (A) (A) (A) (A) (A) (A) (A) (A) (A) (A)
                 (A) (A) (A) (A) (A) (A) (A) (A) (A) (A) (A) (A)
                 (A) (A) (A) (A) (A) (A) (A) (A) (A) (A) (A) (A)
                 (A) (A) (A) (A) (A) (A) (A) (A) (A) (A) (A) (A)
                 (A) (A) (A) (A) (A) (A) (A) (A) (A) (A) (A) (A)
                 (A) (A) (A) (A) (A) (A) (A) (A) (A) (A) (A) (A)
                 (A) (A) (A) (A) (A) (A) (A) (A) (A) (A) (A) (A)
                 (A) (A) (A) (A) (A) (A) (A) (A) (A) (A) (A) (A)
                 (A) (A) (A) (A) (A) (A) (A) (A) (A) (A) (A) (A)
                 (A) (A) (A) (A) (A) (A) (A) (A) (A) (A) (A) (A)
                 (A) (A) (A) (A) (A) (A) (A) (A) (A) (A) (A) (A)
                 (A) (A) (A) (A) (A) (A) (A) (A) (A) (A) (A) (A)
                 (A) (A) (A) (A) (A) (A) (A) (A) (A) (A) (A) (A)
                 (A) (A) (A) (A) (A) (A) (A) (A) (A) (A) (A) (A)
                 (A) (A) (A) (A) (A) (A)
 The electronic state is 1-A.
 Alpha  occ. eigenvalues --  -19.23654 -14.49558 -14.49049 -14.46627 -14.46210
 Alpha  occ. eigenvalues --  -14.46155 -14.45883 -14.45628 -10.42167 -10.40742
 Alpha  occ. eigenvalues --  -10.38898 -10.38310 -10.36551 -10.36487 -10.36351
 Alpha  occ. eigenvalues --  -10.35862 -10.35198 -10.35180 -10.35149 -10.35088
 Alpha  occ. eigenvalues --  -10.34315 -10.34201 -10.33837 -10.32838 -10.32484
 Alpha  occ. eigenvalues --  -10.32280 -10.32000 -10.31781 -10.31485 -10.31360
 Alpha  occ. eigenvalues --  -10.31168 -10.31088 -10.31079 -10.30404 -10.30281
 Alpha  occ. eigenvalues --  -10.29765 -10.29263  -1.13701  -1.11613  -1.05583
 Alpha  occ. eigenvalues --   -1.03834  -1.03767  -1.03187  -1.00173  -0.99893
 Alpha  occ. eigenvalues --   -0.96232  -0.94623  -0.92481  -0.89417  -0.88191
 Alpha  occ. eigenvalues --   -0.87146  -0.86495  -0.84957  -0.84177  -0.83933
 Alpha  occ. eigenvalues --   -0.82063  -0.79744  -0.78148  -0.77927  -0.76048
 Alpha  occ. eigenvalues --   -0.73516  -0.73418  -0.72490  -0.71746  -0.70713
 Alpha  occ. eigenvalues --   -0.70240  -0.69690  -0.68326  -0.66420  -0.64738
 Alpha  occ. eigenvalues --   -0.63367  -0.62428  -0.61672  -0.61406  -0.59978
 Alpha  occ. eigenvalues --   -0.58621  -0.58152  -0.57072  -0.56365  -0.56097
 Alpha  occ. eigenvalues --   -0.55955  -0.55851  -0.54789  -0.54448  -0.54333
 Alpha  occ. eigenvalues --   -0.53455  -0.53419  -0.52651  -0.52308  -0.51950
 Alpha  occ. eigenvalues --   -0.51644  -0.51434  -0.51282  -0.51089  -0.50443
 Alpha  occ. eigenvalues --   -0.50154  -0.50095  -0.50083  -0.49531  -0.48164
 Alpha  occ. eigenvalues --   -0.47859  -0.47436  -0.46588  -0.46199  -0.46071
 Alpha  occ. eigenvalues --   -0.45399  -0.44732  -0.43988  -0.43876  -0.43672
 Alpha  occ. eigenvalues --   -0.43236  -0.42894  -0.42247  -0.41521  -0.40700
 Alpha  occ. eigenvalues --   -0.40172  -0.38124  -0.37879  -0.37345  -0.36221
 Alpha  occ. eigenvalues --   -0.35691  -0.35206  -0.34059  -0.33709  -0.33330
 Alpha  occ. eigenvalues --   -0.33234  -0.32279  -0.31573  -0.29513  -0.27565
 Alpha  occ. eigenvalues --   -0.26317
 Alpha virt. eigenvalues --   -0.00666   0.02545   0.03028   0.04490   0.05906
 Alpha virt. eigenvalues --    0.07073   0.07315   0.07607   0.09212   0.09860
 Alpha virt. eigenvalues --    0.10933   0.12090   0.13615   0.13824   0.14706
 Alpha virt. eigenvalues --    0.15737   0.16459   0.17098   0.18746   0.19079
 Alpha virt. eigenvalues --    0.19745   0.19989   0.20416   0.21211   0.21700
 Alpha virt. eigenvalues --    0.22248   0.22559   0.23034   0.23160   0.23833
 Alpha virt. eigenvalues --    0.24267   0.24660   0.24997   0.25165   0.25462
 Alpha virt. eigenvalues --    0.25766   0.26135   0.26545   0.26802   0.27470
 Alpha virt. eigenvalues --    0.27708   0.27847   0.28032   0.28464   0.28594
 Alpha virt. eigenvalues --    0.29297   0.29643   0.30244   0.30613   0.31009
 Alpha virt. eigenvalues --    0.31158   0.31474   0.33011   0.33085   0.33955
 Alpha virt. eigenvalues --    0.34198   0.34746   0.35508   0.36076   0.36599
 Alpha virt. eigenvalues --    0.37263   0.37721   0.38441   0.39081   0.39471
 Alpha virt. eigenvalues --    0.40199   0.41133   0.41292   0.41499   0.41692
 Alpha virt. eigenvalues --    0.43571   0.44906   0.45236   0.46141   0.47087
 Alpha virt. eigenvalues --    0.47892   0.49455   0.51717   0.52555   0.53340
 Alpha virt. eigenvalues --    0.55207   0.55886   0.57049   0.57185   0.58285
 Alpha virt. eigenvalues --    0.58718   0.58852   0.59578   0.59697   0.59996
 Alpha virt. eigenvalues --    0.60819   0.60904   0.61671   0.61879   0.62154
 Alpha virt. eigenvalues --    0.62641   0.63046   0.63166   0.63579   0.63800
 Alpha virt. eigenvalues --    0.64206   0.64784   0.64855   0.65346   0.65379
 Alpha virt. eigenvalues --    0.65703   0.65999   0.66319   0.66576   0.66676
 Alpha virt. eigenvalues --    0.66958   0.67198   0.67561   0.67672   0.68040
 Alpha virt. eigenvalues --    0.68354   0.69338   0.69408   0.70210   0.70419
 Alpha virt. eigenvalues --    0.70461   0.70640   0.70976   0.71141   0.71718
 Alpha virt. eigenvalues --    0.72209   0.72323   0.72808   0.72978   0.73872
 Alpha virt. eigenvalues --    0.74409   0.75249   0.75377   0.75440   0.76213
 Alpha virt. eigenvalues --    0.76588   0.77274   0.77681   0.78852   0.78961
 Alpha virt. eigenvalues --    0.80546   0.80705   0.81492   0.81794   0.81852
 Alpha virt. eigenvalues --    0.82417   0.83161   0.83595   0.83691   0.84634
 Alpha virt. eigenvalues --    0.85257   0.85479   0.86368   0.86533   0.87818
 Alpha virt. eigenvalues --    0.88175   0.88729   0.88931   0.89388   0.90237
 Alpha virt. eigenvalues --    0.90993   0.91098   0.91706   0.92074   0.92320
 Alpha virt. eigenvalues --    0.92420   0.93125   0.93299   0.93692   0.93982
 Alpha virt. eigenvalues --    0.94651   0.94853   0.95219   0.95474   0.96055
 Alpha virt. eigenvalues --    0.96697   0.96936   0.97038   0.97675   0.98247
 Alpha virt. eigenvalues --    0.98975   0.99539   0.99976   1.00084   1.00506
 Alpha virt. eigenvalues --    1.01073   1.01913   1.01972   1.02510   1.02796
 Alpha virt. eigenvalues --    1.04204   1.04813   1.05570   1.06245   1.06349
 Alpha virt. eigenvalues --    1.06689   1.07566   1.07735   1.08063   1.08639
[...]
                 (A) (A) (A) (A) (A) (A) (A) (A) (A) (A) (A) (A)
                 (A) (A) (A) (A) (A) (A) (A) (A) (A) (A) (A) (A)
                 (A) (A) (A) (A) (A) (A) (A) (A) (A) (A) (A) (A)
                 (A) (A) (A) (A) (A) (A) (A) (A) (A) (A) (A) (A)
                 (A) (A) (A) (A) (A) (A) (A) (A) (A) (A) (A) (A)
                 (A) (A) (A) (A) (A) (A) (A) (A) (A) (A) (A) (A)
                 (A) (A) (A) (A) (A) (A) (A) (A) (A) (A) (A) (A)
                 (A) (A) (A) (A) (A) (A) (A) (A) (A) (A) (A) (A)
                 (A) (A) (A) (A) (A) (A) (A) (A) (A) (A) (A) (A)
                 (A) (A) (A) (A) (A) (A) (A) (A) (A) (A) (A) (A)
                 (A) (A) (A) (A) (A) (A) (A) (A) (A) (A) (A) (A)
                 (A) (A) (A) (A) (A) (A) (A) (A) (A) (A) (A) (A)
                 (A) (A) (A) (A) (A) (A) (A) (A) (A) (A) (A) (A)
                 (A) (A) (A) (A) (A) (A) (A) (A) (A) (A) (A) (A)
                 (A) (A) (A) (A) (A) (A) (A) (A) (A) (A) (A) (A)
                 (A) (A) (A) (A) (A) (A) (A) (A) (A) (A) (A) (A)
                 (A) (A) (A) (A) (A) (A) (A) (A) (A) (A) (A) (A)
                 (A) (A) (A) (A) (A) (A) (A) (A) (A) (A) (A) (A)
                 (A) (A) (A) (A) (A) (A) (A) (A) (A) (A) (A) (A)
                 (A) (A) (A) (A) (A) (A) (A) (A) (A) (A) (A) (A)
                 (A) (A) (A) (A) (A) (A) (A) (A) (A) (A) (A) (A)
                 (A) (A) (A) (A) (A) (A) (A) (A) (A) (A) (A) (A)
                 (A) (A) (A) (A) (A) (A) (A) (A) (A) (A) (A) (A)
                 (A) (A) (A) (A) (A) (A) (A) (A) (A) (A) (A) (A)
                 (A) (A) (A) (A) (A) (A) (A) (A) (A) (A) (A) (A)
                 (A) (A) (A) (A) (A) (A) (A) (A) (A) (A) (A) (A)
                 (A) (A) (A) (A) (A) (A) (A) (A) (A) (A) (A) (A)
                 (A) (A) (A) (A) (A) (A) (A) (A) (A) (A) (A) (A)
                 (A) (A) (A) (A) (A) (A) (A) (A) (A) (A) (A) (A)
                 (A) (A) (A) (A) (A) (A) (A) (A) (A) (A) (A) (A)
                 (A) (A) (A) (A) (A) (A) (A) (A) (A) (A) (A) (A)
                 (A) (A) (A) (A) (A) (A) (A) (A) (A) (A) (A) (A)
                 (A) (A) (A) (A) (A) (A)
 The electronic state is 1-A.
 Alpha  occ. eigenvalues --  -19.23157 -14.49129 -14.48282 -14.46602 -14.45982
 Alpha  occ. eigenvalues --  -14.45622 -14.43981 -14.43583 -10.41640 -10.39921
 Alpha  occ. eigenvalues --  -10.37508 -10.36238 -10.35179 -10.34891 -10.34525
 Alpha  occ. eigenvalues --  -10.34035 -10.33979 -10.33487 -10.32738 -10.32325
 Alpha  occ. eigenvalues --  -10.31758 -10.31457 -10.31351 -10.31233 -10.31032
 Alpha  occ. eigenvalues --  -10.30985 -10.30672 -10.30559 -10.30283 -10.30275
 Alpha  occ. eigenvalues --  -10.29955 -10.29787 -10.29727 -10.29440 -10.29336
 Alpha  occ. eigenvalues --  -10.28823 -10.28225  -1.13295  -1.12192  -1.06193
 Alpha  occ. eigenvalues --   -1.04437  -1.04368  -1.03419  -1.00606  -0.99923
 Alpha  occ. eigenvalues --   -0.95688  -0.94558  -0.92982  -0.89650  -0.87971
 Alpha  occ. eigenvalues --   -0.87275  -0.86222  -0.85512  -0.84126  -0.83659
 Alpha  occ. eigenvalues --   -0.81594  -0.79582  -0.78168  -0.77972  -0.76215
 Alpha  occ. eigenvalues --   -0.73736  -0.73442  -0.72822  -0.72523  -0.71149
 Alpha  occ. eigenvalues --   -0.69932  -0.69368  -0.67930  -0.66242  -0.65045
 Alpha  occ. eigenvalues --   -0.63796  -0.63203  -0.62023  -0.61689  -0.59965
 Alpha  occ. eigenvalues --   -0.58712  -0.58436  -0.57517  -0.56511  -0.55968
 Alpha  occ. eigenvalues --   -0.55707  -0.55216  -0.55115  -0.54965  -0.54204
 Alpha  occ. eigenvalues --   -0.53877  -0.53511  -0.53006  -0.52281  -0.52067
 Alpha  occ. eigenvalues --   -0.51680  -0.51422  -0.51133  -0.50850  -0.50613
 Alpha  occ. eigenvalues --   -0.50341  -0.49977  -0.49642  -0.49465  -0.48073
 Alpha  occ. eigenvalues --   -0.47669  -0.47140  -0.46762  -0.46489  -0.46049
 Alpha  occ. eigenvalues --   -0.45860  -0.45513  -0.44378  -0.43822  -0.43294
 Alpha  occ. eigenvalues --   -0.43170  -0.42749  -0.41928  -0.41849  -0.41525
 Alpha  occ. eigenvalues --   -0.41184  -0.40713  -0.39881  -0.38086  -0.37469
 Alpha  occ. eigenvalues --   -0.35660  -0.35148  -0.33891  -0.33274  -0.33180
 Alpha  occ. eigenvalues --   -0.32639  -0.31971  -0.31136  -0.29039  -0.27003
 Alpha  occ. eigenvalues --   -0.25680
 Alpha virt. eigenvalues --   -0.00248   0.03015   0.03659   0.04708   0.07082
 Alpha virt. eigenvalues --    0.07448   0.08504   0.10470   0.14824   0.15099
 Alpha virt. eigenvalues --    0.15583   0.16320   0.17435   0.17465   0.18664
 Alpha virt. eigenvalues --    0.19707   0.19899   0.20356   0.20440   0.21663
 Alpha virt. eigenvalues --    0.21930   0.22128   0.22500   0.22783   0.23333
 Alpha virt. eigenvalues --    0.23498   0.23612   0.24333   0.24483   0.24682
 Alpha virt. eigenvalues --    0.24961   0.25309   0.25659   0.26197   0.26470
 Alpha virt. eigenvalues --    0.27024   0.27288   0.27537   0.28171   0.28457
 Alpha virt. eigenvalues --    0.28692   0.29131   0.29620   0.29784   0.30260
 Alpha virt. eigenvalues --    0.31104   0.31441   0.31884   0.32091   0.32323
 Alpha virt. eigenvalues --    0.32856   0.33183   0.33374   0.34024   0.34171
 Alpha virt. eigenvalues --    0.34614   0.34944   0.36023   0.36368   0.36886
 Alpha virt. eigenvalues --    0.38504   0.38693   0.38839   0.39582   0.40386
 Alpha virt. eigenvalues --    0.41335   0.41572   0.42174   0.43038   0.43396
 Alpha virt. eigenvalues --    0.43685   0.45203   0.46685   0.47314   0.47767
 Alpha virt. eigenvalues --    0.48609   0.50203   0.52632   0.53099   0.54515
 Alpha virt. eigenvalues --    0.56041   0.56613   0.57211   0.58434   0.58893
 Alpha virt. eigenvalues --    0.59358   0.59682   0.60160   0.60284   0.60858
 Alpha virt. eigenvalues --    0.61426   0.62260   0.62462   0.62930   0.63106
 Alpha virt. eigenvalues --    0.63396   0.63505   0.64223   0.64270   0.64864
 Alpha virt. eigenvalues --    0.64998   0.65366   0.65624   0.65714   0.65967
 Alpha virt. eigenvalues --    0.66402   0.66576   0.66737   0.67113   0.67301
 Alpha virt. eigenvalues --    0.67785   0.68060   0.68429   0.68838   0.69251
 Alpha virt. eigenvalues --    0.69690   0.70048   0.70445   0.70851   0.71253
 Alpha virt. eigenvalues --    0.71338   0.71684   0.71886   0.72855   0.73021
 Alpha virt. eigenvalues --    0.73183   0.73343   0.73537   0.74611   0.75064
 Alpha virt. eigenvalues --    0.75172   0.75767   0.76066   0.76418   0.77522
 Alpha virt. eigenvalues --    0.77763   0.78563   0.79742   0.80592   0.80885
 Alpha virt. eigenvalues --    0.81391   0.81794   0.82344   0.83289   0.84316
 Alpha virt. eigenvalues --    0.84740   0.85760   0.86043   0.87056   0.87761
 Alpha virt. eigenvalues --    0.88051   0.88223   0.88804   0.89562   0.89881
 Alpha virt. eigenvalues --    0.90632   0.90762   0.91409   0.91774   0.92535
 Alpha virt. eigenvalues --    0.92898   0.93030   0.93218   0.93697   0.94063
 Alpha virt. eigenvalues --    0.94216   0.94424   0.94658   0.94717   0.95128
 Alpha virt. eigenvalues --    0.95490   0.95951   0.96645   0.96988   0.97318
 Alpha virt. eigenvalues --    0.97905   0.98319   0.98977   0.99210   0.99527
 Alpha virt. eigenvalues --    1.00370   1.00693   1.01348   1.01455   1.02044
 Alpha virt. eigenvalues --    1.02273   1.02956   1.03687   1.04065   1.04755
 Alpha virt. eigenvalues --    1.05477   1.05871   1.06107   1.06661   1.07491
 Alpha virt. eigenvalues --    1.07769   1.08139   1.08374   1.08644   1.09032
 Alpha virt. eigenvalues --    1.09244   1.09738   1.10745   1.11457   1.11879
 Alpha virt. eigenvalues --    1.12165   1.12520   1.13969   1.14422   1.14590
 Alpha virt. eigenvalues --    1.15821   1.16583   1.17206   1.17648   1.19073
 Alpha virt. eigenvalues --    1.20412   1.21187   1.22311   1.22930   1.23524
 Alpha virt. eigenvalues --    1.24007   1.25685   1.26095   1.26822   1.28042
 Alpha virt. eigenvalues --    1.28870   1.29333   1.29844   1.30339   1.30707
 Alpha virt. eigenvalues --    1.31160   1.32886   1.33571   1.34020   1.34531
 Alpha virt. eigenvalues --    1.35681   1.36910   1.37371   1.37886   1.38390
 Alpha virt. eigenvalues --    1.39543   1.40008   1.43576   1.44051   1.45058
 Alpha virt. eigenvalues --    1.46443   1.46717   1.47544   1.48223   1.48815
 Alpha virt. eigenvalues --    1.49029   1.49187   1.49530   1.51249   1.52011
 Alpha virt. eigenvalues --    1.52587   1.52808   1.53315   1.54090   1.54230
 Alpha virt. eigenvalues --    1.54754   1.55137   1.55655   1.56278   1.56991
 Alpha virt. eigenvalues --    1.57127   1.57650   1.58038   1.58174   1.59255
 Alpha virt. eigenvalues --    1.59628   1.60127   1.61424   1.62018   1.62631
 Alpha virt. eigenvalues --    1.64156   1.65186   1.65469   1.66512   1.66586
 Alpha virt. eigenvalues --    1.68153   1.69986   1.72142   1.75504   1.76304
 Alpha virt. eigenvalues --    1.78680   1.80577   1.82290   1.83507   1.84951
 Alpha virt. eigenvalues --    1.85100   1.85953   1.86590   1.86811   1.87721
 Alpha virt. eigenvalues --    1.87839   1.88101   1.89360   1.90148   1.90883
 Alpha virt. eigenvalues --    1.91617   1.91979   1.92610   1.92743   1.94066
 Alpha virt. eigenvalues --    1.94401   1.94778   1.95150   1.95664   1.97568
 Alpha virt. eigenvalues --    1.98504   1.99553   1.99595   2.00805   2.00987
 Alpha virt. eigenvalues --    2.01675   2.01771   2.02126   2.02605   2.03239
 Alpha virt. eigenvalues --    2.03874   2.05682   2.06256   2.06304   2.07412
 Alpha virt. eigenvalues --    2.08630   2.08953   2.09633   2.10222   2.12312
 Alpha virt. eigenvalues --    2.12418   2.13029   2.13446   2.14758   2.14963
 Alpha virt. eigenvalues --    2.15560   2.16130   2.16834   2.19582   2.19810
 Alpha virt. eigenvalues --    2.20348   2.20603   2.21282   2.22534   2.22669
 Alpha virt. eigenvalues --    2.22799   2.23113   2.24038   2.24173   2.25039
 Alpha virt. eigenvalues --    2.25464   2.25996   2.26253   2.27006   2.27280
 Alpha virt. eigenvalues --    2.28033   2.29186   2.29476   2.31735   2.32695
 Alpha virt. eigenvalues --    2.33661   2.34114   2.34681   2.35173   2.37012
 Alpha virt. eigenvalues --    2.37678   2.37912   2.38665   2.39182   2.40237
 Alpha virt. eigenvalues --    2.40860   2.41314   2.42103   2.42565   2.43262
 Alpha virt. eigenvalues --    2.43543   2.44072   2.44461   2.45065   2.45529
 Alpha virt. eigenvalues --    2.45898   2.47508   2.48434   2.49530   2.49933
 Alpha virt. eigenvalues --    2.50523   2.51688   2.52224   2.53661   2.56438
 Alpha virt. eigenvalues --    2.58830   2.60026   2.61736   2.61906   2.63906
 Alpha virt. eigenvalues --    2.64826   2.65562   2.65829   2.66147   2.68186
 Alpha virt. eigenvalues --    2.68791   2.70034   2.70636   2.71897   2.72307
 Alpha virt. eigenvalues --    2.74027   2.74480   2.75325   2.76011   2.76150
 Alpha virt. eigenvalues --    2.76509   2.77248   2.78925   2.81713   2.82087
 Alpha virt. eigenvalues --    2.82835   2.83197   2.84495   2.85070   2.85354
 Alpha virt. eigenvalues --    2.85964   2.86585   2.87017   2.87906   2.88430
 Alpha virt. eigenvalues --    2.89401   2.90696   2.92584   2.94189   2.94649
 Alpha virt. eigenvalues --    2.94988   2.96438   2.98994   3.03657   3.04541
 Alpha virt. eigenvalues --    3.05080   3.07143   3.09696   3.10178   3.13411
 Alpha virt. eigenvalues --    3.18927   3.28022   3.29623   3.39186   3.41525
 Alpha virt. eigenvalues --    3.44794   3.54221   3.56492   3.57691   4.13404
 Alpha virt. eigenvalues --    4.15197   4.15772   4.18238   4.18576   4.19141
 Alpha virt. eigenvalues --    4.19507   4.20799   4.22156   4.23001   4.23226
 Alpha virt. eigenvalues --    4.25039   4.26056   4.27505   4.30298   4.31776
 Alpha virt. eigenvalues --    4.32381   4.33939   4.36802   4.39433   4.40311
 Alpha virt. eigenvalues --    4.41890   4.44394   4.44546   4.46431   4.49015
 Alpha virt. eigenvalues --    4.50066   4.54602   4.55496   4.57543   4.61133
 Alpha virt. eigenvalues --    4.62219   4.67484   4.68974   4.79170   4.84462
 Alpha virt. eigenvalues --    4.89571
          Condensed to atoms (all electrons):
 Mulliken atomic charges:
              1
     1  C   -0.198603
     2  C   -0.155444
     3  C    0.033855
     4  C    0.007596
     5  N   -0.435225
     6  C    0.031681
     7  C    0.297154
     8  C   -0.253913
     9  C    0.047962
    10  N   -0.492516
    11  C    0.708986
    12  N   -0.568233
    13  N   -0.795712
    14  C    0.287709
    15  C    0.120507
    16  C   -0.239977
    17  C   -0.190363
    18  C    0.354731
    19  C   -0.264155
    20  N   -0.766860
    21  C    0.598058
    22  C    0.018168
    23  C   -0.211526
    24  C   -0.228184
    25  C    0.114966
    26  C   -0.195493
    27  C   -0.183670
    28  C   -0.219580
    29  N   -0.401027
    30  C   -0.185380
    31  C   -0.187074
    32  N   -0.385142
    33  C   -0.350559
    34  C   -0.186534
    35  C   -0.193028
    36  O   -0.516860
    37  C   -0.607124
    38  H    0.186186
    39  H    0.185495
    40  H    0.201631
    41  H    0.181936
    42  H    0.180053
    43  H    0.188930
    44  H    0.368657
    45  H    0.160521
    46  H    0.216164
    47  H    0.193174
    48  H    0.358690
    49  H    0.186789
    50  H    0.165249
    51  H    0.183184
    52  H    0.196165
    53  H    0.136883
    54  H    0.178421
    55  H    0.158853
    56  H    0.163645
    57  H    0.158650
    58  H    0.160860
    59  H    0.136512
    60  H    0.168234
    61  H    0.168883
    62  H    0.159520
    63  H    0.158737
    64  H    0.162582
    65  H    0.175181
    66  H    0.177531
    67  H    0.183320
    68  H    0.190173
 Sum of Mulliken atomic charges =   0.00000
 Mulliken charges with hydrogens summed into heavy atoms:
              1
     1  C   -0.012418
     2  C    0.030051
     3  C    0.033855
     4  C    0.209227
     5  N   -0.435225
     6  C    0.213618
     7  C    0.297154
     8  C   -0.073859
     9  C    0.236892
    10  N   -0.492516
    11  C    0.708986
    12  N   -0.568233
    13  N   -0.427054
    14  C    0.287709
    15  C    0.120507
    16  C   -0.079456
    17  C    0.025801
    18  C    0.354731
    19  C   -0.070981
    20  N   -0.408170
    21  C    0.598058
    22  C    0.018168
    23  C   -0.024737
    24  C   -0.062934
    25  C    0.114966
    26  C   -0.012308
    27  C    0.012494
    28  C    0.095724
    29  N   -0.401027
    30  C    0.137118
    31  C    0.132435
    32  N   -0.385142
    33  C    0.123069
    34  C    0.131723
    35  C    0.144735
    36  O   -0.516860
    37  C   -0.056100
 Sum of Mulliken charges with hydrogens summed into heavy atoms =   0.00000
 Electronic spatial extent (au):  <R**2>=          27481.2189
 Charge=              0.0000 electrons
 Dipole moment (field-independent basis, Debye):
    X=              0.6175    Y=              6.3864    Z=              1.0076  Tot=              6.4948
 Quadrupole moment (field-independent basis, Debye-Ang):
   XX=           -182.4149   YY=           -204.7112   ZZ=           -218.5663
   XY=              7.6573   XZ=              1.9662   YZ=             -4.8069
 Traceless Quadrupole moment (field-independent basis, Debye-Ang):
   XX=             19.4826   YY=             -2.8137   ZZ=            -16.6688
   XY=              7.6573   XZ=              1.9662   YZ=             -4.8069
 Octapole moment (field-independent basis, Debye-Ang**2):
  XXX=            -25.2827  YYY=            171.3677  ZZZ=             14.0208  XYY=            110.2889
  XXY=            -35.5642  XXZ=             -1.7626  XZZ=            -41.8168  YZZ=              0.7078
  YYZ=              9.5319  XYZ=             10.4530
 Hexadecapole moment (field-independent basis, Debye-Ang**3):
 XXXX=         -26252.5184 YYYY=          -7382.1775 ZZZZ=          -1124.4550 XXXY=             98.7427
 XXXZ=             80.3586 YYYX=            315.2786 YYYZ=            -55.9909 ZZZX=            -61.4473
 ZZZY=             29.7998 XXYY=          -5654.9830 XXZZ=          -4820.6218 YYZZ=          -1599.4447
 XXYZ=            -82.2103 YYXZ=             52.8417 ZZXY=            -28.5121
 N-N= 3.711524242065D+03 E-N=-1.109481829735D+04  KE= 1.567150491197D+03
 No NMR shielding tensors so no spin-rotation constants.
 Leave Link  601 at Wed Mar 11 02:57:29 2020, MaxMem= 2684354560 cpu:       2.8
 (Enter /opt/g09gh/gaussian/g09/l9999.exe)
 1\1\GINC-NODE37\FOpt\RwB97XD\6-31G(d)\C29H31N7O1\BDW2292\11-Mar-2020\0
 \\#P opt=(,maxcycle=400) wB97XD/6-31G* MaxDisk=100GB\\MOLECULE0 Rotata
 ble Bond Optimization on g2-node38.bme.utexas.edu\\0,1\C,1.0131688797,
 4.7304586632,-1.6680641423\C,2.3085882355,4.4527345696,-1.2499071275\C
 ,2.7272093051,3.1249454167,-1.1788567536\C,1.8043775464,2.1381044793,-
 1.5503920544\N,0.5567212817,2.3884145671,-1.9428020384\C,0.176024442,3
 .6684492179,-1.993192758\C,4.0707400586,2.7222444858,-0.6924965565\C,5
 .1809083792,3.5622801529,-0.684176037\C,6.3535958147,3.0208606856,-0.1
 592889275\N,6.4546150318,1.7801124446,0.2980371917\C,5.3268240167,1.04
 45505004,0.2215646123\N,4.151197526,1.4689396105,-0.2394668561\N,5.448
 5309861,-0.2411731167,0.6715052545\C,4.529515023,-1.3069770587,0.61549
 37406\C,5.0307744091,-2.6205333916,0.7078110273\C,4.116933161,-3.66686
 67231,0.624578652\C,2.7500717892,-3.4750828296,0.4402724447\C,2.276021
 7155,-2.1678563107,0.3597566255\C,3.1619184627,-1.0956280738,0.4762450
 354\N,0.9312328225,-1.8189648981,0.1419632304\C,-0.1295042686,-2.62168
 60467,-0.1926877005\C,-1.3755839602,-1.8676028218,-0.5624178916\C,-1.3
 594796547,-0.5819261803,-1.1075310619\C,-2.5529902945,0.0604687589,-1.
 4191957776\C,-3.7789362689,-0.5652123458,-1.2062211855\C,-3.7901088634
 ,-1.860448795,-0.6790360773\C,-2.6033954997,-2.5063352988,-0.367461242
 9\C,-5.0752124115,0.1299669365,-1.564014686\N,-6.1060956653,-0.0801647
 352,-0.5563064858\C,-7.4444512696,0.3142748567,-0.9946054774\C,-7.6545
 502817,1.8367605041,-0.984973297\N,-7.3471693313,2.4503844104,0.305683
 8771\C,-8.378128356,2.2434580983,1.3073686295\C,-6.012449466,2.0501524
 599,0.7498589626\C,-5.8008895928,0.5293330576,0.741256759\O,-0.0900499
 387,-3.8415709283,-0.1812717928\C,6.5046210477,-2.8892909234,0.8762046
 401\H,0.6501977226,5.7509844819,-1.7259229383\H,2.9733421686,5.2604167
 022,-0.9573856672\H,2.1082107662,1.094945597,-1.5279708145\H,-0.849306
 3603,3.8509000136,-2.3062309265\H,5.155246663,4.5738074989,-1.06973167
 92\H,7.2609914241,3.6195464516,-0.110230343\H,6.3918685495,-0.46172871
 38,0.9535171531\H,4.49147114,-4.6852308003,0.6910519422\H,2.0690534872
 ,-4.3097144747,0.3538528245\H,2.7900806144,-0.0831080816,0.4228995435\
 H,0.7418407783,-0.829011568,0.1841225043\H,-0.4317395735,-0.0608102525
 ,-1.3301103788\H,-2.5162820729,1.0631263935,-1.8379029345\H,-4.7463405
 466,-2.3430596337,-0.5015821959\H,-2.6051016338,-3.5150502512,0.032698
 4407\H,-4.8587606063,1.1926787572,-1.7743927133\H,-5.4555279667,-0.293
 0302099,-2.5032565689\H,-7.6248129108,-0.0916121098,-1.9967579822\H,-8
 .1676192468,-0.1624831777,-0.3195618054\H,-8.6878768834,2.0818331112,-
 1.2566038582\H,-7.0049507331,2.3013510049,-1.7395762846\H,-8.548679754
 ,1.1934926199,1.6039461088\H,-9.3270965623,2.6407031902,0.9312726477\H
 ,-8.1167488338,2.8051032113,2.2106264793\H,-5.8377514562,2.4526253588,
 1.7542245298\H,-5.2812986522,2.5275519896,0.0831342332\H,-6.4533051794
 ,0.058494711,1.4880634034\H,-4.7705014222,0.2827612176,1.0162065385\H,
 6.8973151281,-2.4818751462,1.8179312681\H,7.0958883156,-2.4608452059,0
 .0567836429\H,6.6981968256,-3.9648350839,0.8896510753\\Version=EM64L-G
 09RevA.02\State=1-A\HF=-1581.7642333\RMSD=4.740e-09\RMSF=5.921e-06\Dip
 ole=0.405589,2.5226949,-0.0282418\Quadrupole=15.1206688,-4.2780433,-10
 .8426255,4.82467,0.9739784,-4.9728126\PG=C01 [X(C29H31N7O1)]\\@


 THE RED LIGHT IS ALWAYS LONGER THAN THE GREEN LIGHT.

                     -- PETER'S THEORY OF RELATIVITY
 Job cpu time:  0 days 17 hours 36 minutes 38.9 seconds.
 File lengths (MBytes):  RWF=    244 Int=      0 D2E=      0 Chk=     25 Scr=      1
 Normal termination of Gaussian 09 at Wed Mar 11 02:57:29 2020.
