
    -----------------------------------------------------------------------
          Psi4: An Open-Source Ab Initio Electronic Structure Package
                               Psi4 1.3.2 release

                         Git: Rev {HEAD} ecbda83 


    R. M. Parrish, L. A. Burns, D. G. A. Smith, A. C. Simmonett,
    A. E. DePrince III, E. G. Hohenstein, U. Bozkaya, A. Yu. Sokolov,
    R. Di Remigio, R. M. Richard, J. F. Gonthier, A. M. James,
    H. R. McAlexander, A. Kumar, M. Saitow, X. Wang, B. P. Pritchard,
    P. Verma, H. F. Schaefer III, K. Patkowski, R. A. King, E. F. Valeev,
    F. A. Evangelista, J. M. Turney, T. D. Crawford, and C. D. Sherrill,
    J. Chem. Theory Comput. 13(7) pp 3185--3197 (2017).
    (doi: 10.1021/acs.jctc.7b00174)


                         Additional Contributions by
    P. Kraus, H. Kruse, M. H. Lechner, M. C. Schieber, R. A. Shaw,
    A. Alenaizan, R. Galvelis, Z. L. Glick, S. Lehtola, and J. P. Misiewicz

    -----------------------------------------------------------------------


    Psi4 started on: Friday, 24 April 2020 12:00PM

    Process ID: 95575
    Host:       node84.bme.utexas.edu
    PSIDATADIR: /home/bdw2292/miniconda3/envs/p4env/share/psi4
    Memory:     500.0 MiB
    Threads:    1
    
  ==> Input File <==

--------------------------------------------------------------------------
molecule { 
0 1
 C    0.318838    4.673251   -1.813869
 C    1.644712    4.540578   -1.379567
 C    2.179572    3.260350   -1.137176
 C    1.309932    2.170510   -1.388909
 N    0.041977    2.276360   -1.806914
 C   -0.439504    3.512942   -2.007649
 C    3.589557    3.015109   -0.660965
 C    4.592130    3.992166   -0.547339
 C    5.847288    3.532377   -0.129960
 N    6.123043    2.263545    0.165210
 C    5.096597    1.397154    0.048961
 N    3.868298    1.737671   -0.343963
 N    5.386133    0.082432    0.370383
 C    4.621975   -1.139772    0.315064
 C    5.295901   -2.397375    0.372836
 C    4.507553   -3.556579    0.273716
 C    3.114596   -3.546911    0.133770
 C    2.460097   -2.310852    0.124349
 C    3.225167   -1.136911    0.208913
 N    1.047620   -2.112149    0.003554
 C    0.019089   -2.983408   -0.273577
 C   -1.327452   -2.360738   -0.593005
 C   -1.472232   -1.157045   -1.304220
 C   -2.736864   -0.596687   -1.495892
 C   -3.901192   -1.227633   -1.017807
 C   -3.745367   -2.462240   -0.357671
 C   -2.483867   -3.028724   -0.158165
 C   -5.272305   -0.560816   -1.158590
 N   -5.717400    0.451813   -0.178200
 C   -4.737129    1.069558    0.745398
 C   -4.573461    0.297232    2.080912
 N   -5.848283    0.042976    2.798083
 C   -6.342325    1.129789    3.651888
 C   -6.829268   -0.556484    1.859216
 C   -6.995279    0.229491    0.534111
 O    0.155716   -4.196648   -0.251184
 C    6.803973   -2.528707    0.503867
 H   -0.116737    5.650660   -1.999002
 H    2.232708    5.441218   -1.220537
 H    1.661272    1.150092   -1.272357
 H   -1.473615    3.563278   -2.345454
 H    4.458145    5.040152   -0.785593
 H    6.698621    4.204360   -0.024342
 H    6.363564    0.004352    0.607426
 H    4.993912   -4.530869    0.297498
 H    2.543836   -4.463393    0.048952
 H    2.722251   -0.184383    0.207774
 H    0.762880   -1.144633    0.064999
 H   -0.592095   -0.638652   -1.677585
 H   -2.807909    0.363241   -2.007451
 H   -4.619583   -2.984823    0.029789
 H   -2.375792   -3.977925    0.361023
 H   -5.324358   -0.073212   -2.142302
 H   -6.020554   -1.365644   -1.149557
 H   -3.802909    1.221064    0.258913
 H   -5.245886    2.430432    1.080568
 H   -3.743335    0.979523    2.900369
 H   -3.999124   -0.908067    1.843739
 H   -6.613916    2.006287    3.052578
 H   -5.573883    1.420820    4.377440
 H   -7.223764    0.798723    4.213281
 H   -7.908373   -0.679718    2.427531
 H   -6.341966   -1.905051    1.538152
 H   -7.563530    1.499146    0.825312
 H   -7.891690   -0.420451   -0.299403
 H    7.190073   -2.075639    1.428078
 H    7.315455   -2.042720   -0.331761
 H    7.137576   -3.569601    0.510996
}
memory 20GB
set_num_threads(6)
psi4_io.set_default_path("/scratch/bdw2292")
set freeze_core True
E, wfn = energy('mp2/6-311+G*',return_wfn=True)
oeprop(wfn,"WIBERG_LOWDIN_INDICES")
clean()
--------------------------------------------------------------------------

  Memory set to  18.626 GiB by Python driver.
  Threads set to 6 by Python driver.
    SCF Algorithm Type (re)set to DF.

*** tstart() called on node84.bme.utexas.edu
*** at Fri Apr 24 12:00:18 2020

   => Loading Basis Set <=

    Name: 6-311+G*
    Role: ORBITAL
    Keyword: BASIS
    atoms 1-4, 6-9, 11, 14-19, 21-28, 30-31, 33-35, 37 entry C          line   130 file /home/bdw2292/miniconda3/envs/p4env/share/psi4/basis/6-311pgs.gbs 
    atoms 5, 10, 12-13, 20, 29, 32                     entry N          line   151 file /home/bdw2292/miniconda3/envs/p4env/share/psi4/basis/6-311pgs.gbs 
    atoms 36                                           entry O          line   172 file /home/bdw2292/miniconda3/envs/p4env/share/psi4/basis/6-311pgs.gbs 
    atoms 38-68                                        entry H          line    47 file /home/bdw2292/miniconda3/envs/p4env/share/psi4/basis/6-311pgs.gbs 


         ---------------------------------------------------------
                                   SCF
               by Justin Turney, Rob Parrish, Andy Simmonett
                          and Daniel G. A. Smith
                              RHF Reference
                        6 Threads,  19073 MiB Core
         ---------------------------------------------------------

  ==> Geometry <==

    Molecular point group: c1
    Full point group: C1

    Geometry (in Angstrom), charge = 0, multiplicity = 1:

       Center              X                  Y                   Z               Mass       
    ------------   -----------------  -----------------  -----------------  -----------------
         C            0.154745502083     4.633984978854    -1.745237689936    12.000000000000
         C            1.480619502083     4.501311978854    -1.310935689936    12.000000000000
         C            2.015479502083     3.221083978854    -1.068544689936    12.000000000000
         C            1.145839502083     2.131243978854    -1.320277689936    12.000000000000
         N           -0.122115497917     2.237093978854    -1.738282689936    14.003074004430
         C           -0.603596497917     3.473675978854    -1.939017689936    12.000000000000
         C            3.425464502083     2.975842978854    -0.592333689936    12.000000000000
         C            4.428037502083     3.952899978854    -0.478707689936    12.000000000000
         C            5.683195502083     3.493110978854    -0.061328689936    12.000000000000
         N            5.958950502083     2.224278978854     0.233841310064    14.003074004430
         C            4.932504502083     1.357887978854     0.117592310064    12.000000000000
         N            3.704205502083     1.698404978854    -0.275331689936    14.003074004430
         N            5.222040502083     0.043165978854     0.439014310064    14.003074004430
         C            4.457882502083    -1.179038021146     0.383695310064    12.000000000000
         C            5.131808502083    -2.436641021146     0.441467310064    12.000000000000
         C            4.343460502083    -3.595845021146     0.342347310064    12.000000000000
         C            2.950503502083    -3.586177021146     0.202401310064    12.000000000000
         C            2.296004502083    -2.350118021146     0.192980310064    12.000000000000
         C            3.061074502083    -1.176177021146     0.277544310064    12.000000000000
         N            0.883527502083    -2.151415021146     0.072185310064    14.003074004430
         C           -0.145003497917    -3.022674021146    -0.204945689936    12.000000000000
         C           -1.491544497917    -2.400004021146    -0.524373689936    12.000000000000
         C           -1.636324497917    -1.196311021146    -1.235588689936    12.000000000000
         C           -2.900956497917    -0.635953021146    -1.427260689936    12.000000000000
         C           -4.065284497917    -1.266899021146    -0.949175689936    12.000000000000
         C           -3.909459497917    -2.501506021146    -0.289039689936    12.000000000000
         C           -2.647959497917    -3.067990021146    -0.089533689936    12.000000000000
         C           -5.436397497917    -0.600082021146    -1.089958689936    12.000000000000
         N           -5.881492497917     0.412546978854    -0.109568689936    14.003074004430
         C           -4.901221497917     1.030291978854     0.814029310064    12.000000000000
         C           -4.737553497917     0.257965978854     2.149543310064    12.000000000000
         N           -6.012375497917     0.003709978854     2.866714310064    14.003074004430
         C           -6.506417497917     1.090522978854     3.720519310064    12.000000000000
         C           -6.993360497917    -0.595750021146     1.927847310064    12.000000000000
         C           -7.159371497917     0.190224978854     0.602742310064    12.000000000000
         O           -0.008376497917    -4.235914021146    -0.182552689936    15.994914619570
         C            6.639880502083    -2.567973021146     0.572498310064    12.000000000000
         H           -0.280829497917     5.611393978854    -1.930370689936     1.007825032230
         H            2.068615502083     5.401951978854    -1.151905689936     1.007825032230
         H            1.497179502083     1.110825978854    -1.203725689936     1.007825032230
         H           -1.637707497917     3.524011978854    -2.276822689936     1.007825032230
         H            4.294052502083     5.000885978854    -0.716961689936     1.007825032230
         H            6.534528502083     4.165093978854     0.044289310064     1.007825032230
         H            6.199471502083    -0.034914021146     0.676057310064     1.007825032230
         H            4.829819502083    -4.570135021146     0.366129310064     1.007825032230
         H            2.379743502083    -4.502659021146     0.117583310064     1.007825032230
         H            2.558158502083    -0.223649021146     0.276405310064     1.007825032230
         H            0.598787502083    -1.183899021146     0.133630310064     1.007825032230
         H           -0.756187497917    -0.677918021146    -1.608953689936     1.007825032230
         H           -2.972001497917     0.323974978854    -1.938819689936     1.007825032230
         H           -4.783675497917    -3.024089021146     0.098420310064     1.007825032230
         H           -2.539884497917    -4.017191021146     0.429654310064     1.007825032230
         H           -5.488450497917    -0.112478021146    -2.073670689936     1.007825032230
         H           -6.184646497917    -1.404910021146    -1.080925689936     1.007825032230
         H           -3.967001497917     1.181797978854     0.327544310064     1.007825032230
         H           -5.409978497917     2.391165978854     1.149199310064     1.007825032230
         H           -3.907427497917     0.940256978854     2.969000310064     1.007825032230
         H           -4.163216497917    -0.947333021146     1.912370310064     1.007825032230
         H           -6.778008497917     1.967020978854     3.121209310064     1.007825032230
         H           -5.737975497917     1.381553978854     4.446071310064     1.007825032230
         H           -7.387856497917     0.759456978854     4.281912310064     1.007825032230
         H           -8.072465497917    -0.718984021146     2.496162310064     1.007825032230
         H           -6.506058497917    -1.944317021146     1.606783310064     1.007825032230
         H           -7.727622497917     1.459879978854     0.893943310064     1.007825032230
         H           -8.055782497917    -0.459717021146    -0.230771689936     1.007825032230
         H            7.025980502083    -2.114905021146     1.496709310064     1.007825032230
         H            7.151362502083    -2.081986021146    -0.263129689936     1.007825032230
         H            6.973483502083    -3.608867021146     0.579627310064     1.007825032230

  Running in c1 symmetry.

  Rotational constants: A =      0.00452  B =      0.00174  C =      0.00140 [cm^-1]
  Rotational constants: A =    135.61706  B =     52.23303  C =     41.84276 [MHz]
  Nuclear repulsion = 3715.808417328170435

  Charge       = 0
  Multiplicity = 1
  Electrons    = 262
  Nalpha       = 131
  Nbeta        = 131

  ==> Algorithm <==

  SCF Algorithm Type is DF.
  DIIS enabled.
  MOM disabled.
  Fractional occupation disabled.
  Guess Type is SAD.
  Energy threshold   = 1.00e-08
  Density threshold  = 1.00e-08
  Integral threshold = 0.00e+00

  ==> Primary Basis <==

  Basis Set: 6-311+G*
    Blend: 6-311+G*
    Number of shells: 463
    Number of basis function: 907
    Number of Cartesian functions: 944
    Spherical Harmonics?: true
    Max angular momentum: 2

   => Loading Basis Set <=

    Name: (6-311+G* AUX)
    Role: JKFIT
    Keyword: DF_BASIS_SCF
    atoms 1-4, 6-9, 11, 14-19, 21-28, 30-31, 33-35, 37 entry C          line   200 file /home/bdw2292/miniconda3/envs/p4env/share/psi4/basis/heavy-aug-cc-pvtz-jkfit.gbs 
    atoms 5, 10, 12-13, 20, 29, 32                     entry N          line   262 file /home/bdw2292/miniconda3/envs/p4env/share/psi4/basis/heavy-aug-cc-pvtz-jkfit.gbs 
    atoms 36                                           entry O          line   324 file /home/bdw2292/miniconda3/envs/p4env/share/psi4/basis/heavy-aug-cc-pvtz-jkfit.gbs 
    atoms 38-68                                        entry H          line   116 file /home/bdw2292/miniconda3/envs/p4env/share/psi4/basis/heavy-aug-cc-pvtz-jkfit.gbs 

  ==> Pre-Iterations <==

   -------------------------------------------------------
    Irrep   Nso     Nmo     Nalpha   Nbeta   Ndocc  Nsocc
   -------------------------------------------------------
     A        907     907       0       0       0       0
   -------------------------------------------------------
    Total     907     907     131     131     131       0
   -------------------------------------------------------

  ==> Integral Setup <==

  ==> DiskDFJK: Density-Fitted J/K Matrices <==

    J tasked:                  Yes
    K tasked:                  Yes
    wK tasked:                  No
    OpenMP threads:              6
    Integrals threads:           6
    Memory [MiB]:            14305
    Algorithm:                Core
    Integral Cache:           NONE
    Schwarz Cutoff:          1E-12
    Fitting Condition:       1E-10

   => Auxiliary Basis Set <=

  Basis Set: (6-311+G* AUX)
    Blend: HEAVY-AUG-CC-PVTZ-JKFIT
    Number of shells: 1420
    Number of basis function: 4778
    Number of Cartesian functions: 5932
    Spherical Harmonics?: true
    Max angular momentum: 4

  Minimum eigenvalue in the overlap matrix is 1.5530889243E-07.
  Using Symmetric Orthogonalization.

  SCF Guess: Superposition of Atomic Densities via on-the-fly atomic UHF.

  ==> Iterations <==

                           Total Energy        Delta E     RMS |[F,P]|

   @DF-RHF iter SAD: -1570.99327208885984   -1.57099e+03   0.00000e+00 
   @DF-RHF iter   1: -1571.30726855466878   -3.13996e-01   1.37452e-03 DIIS
   @DF-RHF iter   2: -1572.06602522112803   -7.58757e-01   7.25860e-04 DIIS
   @DF-RHF iter   3: -1572.25704097830840   -1.91016e-01   1.83968e-04 DIIS
   @DF-RHF iter   4: -1572.27342065815992   -1.63797e-02   7.27995e-05 DIIS
   @DF-RHF iter   5: -1572.27584340345288   -2.42275e-03   1.51369e-05 DIIS
   @DF-RHF iter   6: -1572.27598932708293   -1.45924e-04   6.69492e-06 DIIS
   @DF-RHF iter   7: -1572.27602357917203   -3.42521e-05   2.20260e-06 DIIS
   @DF-RHF iter   8: -1572.27602897194197   -5.39277e-06   8.80723e-07 DIIS
   @DF-RHF iter   9: -1572.27602989041839   -9.18476e-07   3.58886e-07 DIIS
   @DF-RHF iter  10: -1572.27603006889740   -1.78479e-07   1.60958e-07 DIIS
   @DF-RHF iter  11: -1572.27603010509483   -3.61974e-08   7.64958e-08 DIIS
   @DF-RHF iter  12: -1572.27603011478141   -9.68657e-09   2.99585e-08 DIIS
   @DF-RHF iter  13: -1572.27603011652354   -1.74214e-09   1.28071e-08 DIIS
   @DF-RHF iter  14: -1572.27603011697897   -4.55429e-10   6.09556e-09 DIIS
  Energy and wave function converged.


  ==> Post-Iterations <==

    Orbital Energies [Eh]
    ---------------------

    Doubly Occupied:                                                      

       1A    -20.522484     2A    -15.605004     3A    -15.602840  
       4A    -15.587457     5A    -15.574043     6A    -15.568795  
       7A    -15.564647     8A    -15.559941     9A    -11.375152  
      10A    -11.365304    11A    -11.335098    12A    -11.327036  
      13A    -11.315184    14A    -11.314797    15A    -11.308964  
      16A    -11.302506    17A    -11.302259    18A    -11.301458  
      19A    -11.298710    20A    -11.293553    21A    -11.290608  
      22A    -11.280961    23A    -11.274165    24A    -11.266764  
      25A    -11.260197    26A    -11.258186    27A    -11.254217  
      28A    -11.253624    29A    -11.250210    30A    -11.249856  
      31A    -11.247502    32A    -11.247159    33A    -11.246568  
      34A    -11.240848    35A    -11.234531    36A    -11.231804  
      37A    -11.225829    38A     -1.386954    39A     -1.345957  
      40A     -1.279371    41A     -1.252482    42A     -1.245274  
      43A     -1.242878    44A     -1.210268    45A     -1.199878  
      46A     -1.162588    47A     -1.140675    48A     -1.116954  
      49A     -1.076234    50A     -1.060392    51A     -1.049184  
      52A     -1.038406    53A     -1.024065    54A     -1.008806  
      55A     -0.994645    56A     -0.975881    57A     -0.947912  
      58A     -0.928520    59A     -0.927291    60A     -0.901803  
      61A     -0.873718    62A     -0.867917    63A     -0.859031  
      64A     -0.843775    65A     -0.836350    66A     -0.826933  
      67A     -0.822903    68A     -0.805037    69A     -0.779091  
      70A     -0.755700    71A     -0.740162    72A     -0.731750  
      73A     -0.723279    74A     -0.702075    75A     -0.696586  
      76A     -0.683947    77A     -0.672124    78A     -0.666263  
      79A     -0.660355    80A     -0.657669    81A     -0.653355  
      82A     -0.641087    83A     -0.638576    84A     -0.630761  
      85A     -0.622477    86A     -0.618328    87A     -0.614431  
      88A     -0.608058    89A     -0.606406    90A     -0.603903  
      91A     -0.600127    92A     -0.597479    93A     -0.594877  
      94A     -0.592730    95A     -0.589714    96A     -0.583729  
      97A     -0.581633    98A     -0.574110    99A     -0.564564  
     100A     -0.562203   101A     -0.549458   102A     -0.545820  
     103A     -0.540711   104A     -0.524729   105A     -0.520880  
     106A     -0.515542   107A     -0.514737   108A     -0.509813  
     109A     -0.506124   110A     -0.503183   111A     -0.501714  
     112A     -0.491609   113A     -0.485441   114A     -0.481072  
     115A     -0.458349   116A     -0.452369   117A     -0.443662  
     118A     -0.432427   119A     -0.428186   120A     -0.426125  
     121A     -0.414793   122A     -0.409889   123A     -0.400859  
     124A     -0.382058   125A     -0.374144   126A     -0.346828  
     127A     -0.345977   128A     -0.341583   129A     -0.316265  
     130A     -0.314243   131A     -0.290491  

    Virtual:                                                              

     132A      0.042071   133A      0.047621   134A      0.057033  
     135A      0.063381   136A      0.066098   137A      0.067085  
     138A      0.070408   139A      0.073424   140A      0.074360  
     141A      0.079335   142A      0.082005   143A      0.082265  
     144A      0.084864   145A      0.087887   146A      0.091212  
     147A      0.093466   148A      0.095008   149A      0.095672  
     150A      0.099459   151A      0.102375   152A      0.103132  
     153A      0.104769   154A      0.107797   155A      0.111480  
     156A      0.112582   157A      0.115166   158A      0.116553  
     159A      0.117645   160A      0.121782   161A      0.124057  
     162A      0.127730   163A      0.129465   164A      0.132007  
     165A      0.134559   166A      0.136575   167A      0.137316  
     168A      0.142902   169A      0.144301   170A      0.147690  
     171A      0.149109   172A      0.149877   173A      0.153738  
     174A      0.155091   175A      0.158893   176A      0.162078  
     177A      0.162749   178A      0.167005   179A      0.169943  
     180A      0.172341   181A      0.175023   182A      0.176097  
     183A      0.179072   184A      0.181452   185A      0.181884  
     186A      0.186340   187A      0.189385   188A      0.191967  
     189A      0.195320   190A      0.197647   191A      0.200940  
     192A      0.202211   193A      0.204872   194A      0.206906  
     195A      0.210296   196A      0.212844   197A      0.213761  
     198A      0.216467   199A      0.221812   200A      0.223949  
     201A      0.224242   202A      0.226902   203A      0.229527  
     204A      0.231877   205A      0.234191   206A      0.237802  
     207A      0.238538   208A      0.241415   209A      0.246790  
     210A      0.248087   211A      0.249916   212A      0.252096  
     213A      0.255244   214A      0.257166   215A      0.259171  
     216A      0.263099   217A      0.264743   218A      0.266664  
     219A      0.269428   220A      0.270874   221A      0.272879  
     222A      0.274047   223A      0.278092   224A      0.279161  
     225A      0.281591   226A      0.283251   227A      0.285689  
     228A      0.286521   229A      0.288382   230A      0.291660  
     231A      0.292377   232A      0.294641   233A      0.297190  
     234A      0.299004   235A      0.300749   236A      0.302067  
     237A      0.305143   238A      0.307416   239A      0.309995  
     240A      0.312245   241A      0.314721   242A      0.316642  
     243A      0.317806   244A      0.320751   245A      0.323067  
     246A      0.325241   247A      0.326497   248A      0.327960  
     249A      0.329200   250A      0.331267   251A      0.333051  
     252A      0.335529   253A      0.336423   254A      0.339332  
     255A      0.341042   256A      0.343925   257A      0.344975  
     258A      0.346493   259A      0.349404   260A      0.350368  
     261A      0.352716   262A      0.354357   263A      0.354558  
     264A      0.356336   265A      0.360655   266A      0.361071  
     267A      0.363438   268A      0.366001   269A      0.367853  
     270A      0.368849   271A      0.371177   272A      0.372653  
     273A      0.375505   274A      0.375937   275A      0.379826  
     276A      0.380436   277A      0.382270   278A      0.383018  
     279A      0.387019   280A      0.387924   281A      0.391033  
     282A      0.392044   283A      0.392987   284A      0.395995  
     285A      0.397929   286A      0.398983   287A      0.400024  
     288A      0.402879   289A      0.403326   290A      0.404185  
     291A      0.407347   292A      0.411439   293A      0.413956  
     294A      0.415085   295A      0.418305   296A      0.419861  
     297A      0.421782   298A      0.422195   299A      0.427350  
     300A      0.430011   301A      0.434172   302A      0.434581  
     303A      0.435649   304A      0.437442   305A      0.440799  
     306A      0.444908   307A      0.448656   308A      0.451725  
     309A      0.453357   310A      0.454513   311A      0.459785  
     312A      0.465161   313A      0.465941   314A      0.466982  
     315A      0.470824   316A      0.473134   317A      0.475460  
     318A      0.478453   319A      0.481878   320A      0.485897  
     321A      0.486507   322A      0.488081   323A      0.497925  
     324A      0.499975   325A      0.500977   326A      0.502169  
     327A      0.506729   328A      0.509374   329A      0.514581  
     330A      0.518139   331A      0.523023   332A      0.525200  
     333A      0.525685   334A      0.530755   335A      0.533337  
     336A      0.535136   337A      0.542091   338A      0.543836  
     339A      0.545960   340A      0.547820   341A      0.551568  
     342A      0.554416   343A      0.569811   344A      0.573993  
     345A      0.580558   346A      0.583304   347A      0.585513  
     348A      0.591180   349A      0.594331   350A      0.597294  
     351A      0.606192   352A      0.608732   353A      0.614076  
     354A      0.616303   355A      0.625353   356A      0.628345  
     357A      0.643260   358A      0.653938   359A      0.660147  
     360A      0.663758   361A      0.669881   362A      0.675408  
     363A      0.681569   364A      0.692703   365A      0.694035  
     366A      0.697989   367A      0.700977   368A      0.704895  
     369A      0.710728   370A      0.718947   371A      0.723650  
     372A      0.724910   373A      0.727129   374A      0.731476  
     375A      0.740054   376A      0.741363   377A      0.747708  
     378A      0.749467   379A      0.753872   380A      0.758029  
     381A      0.759364   382A      0.761432   383A      0.767003  
     384A      0.767224   385A      0.769581   386A      0.774374  
     387A      0.777135   388A      0.784789   389A      0.789202  
     390A      0.795132   391A      0.796355   392A      0.800017  
     393A      0.801220   394A      0.808452   395A      0.810894  
     396A      0.813500   397A      0.820744   398A      0.824366  
     399A      0.829380   400A      0.833347   401A      0.835450  
     402A      0.837762   403A      0.840771   404A      0.845115  
     405A      0.851857   406A      0.852750   407A      0.853845  
     408A      0.856953   409A      0.861228   410A      0.865121  
     411A      0.869656   412A      0.872600   413A      0.878889  
     414A      0.881475   415A      0.883431   416A      0.886222  
     417A      0.891296   418A      0.894301   419A      0.899346  
     420A      0.899951   421A      0.902649   422A      0.908873  
     423A      0.912505   424A      0.915589   425A      0.916899  
     426A      0.918315   427A      0.920680   428A      0.923231  
     429A      0.924138   430A      0.928953   431A      0.931776  
     432A      0.934412   433A      0.937468   434A      0.943219  
     435A      0.944547   436A      0.947534   437A      0.950203  
     438A      0.952491   439A      0.958353   440A      0.962775  
     441A      0.965669   442A      0.969248   443A      0.972690  
     444A      0.976163   445A      0.979926   446A      0.983613  
     447A      0.984419   448A      0.989613   449A      0.991840  
     450A      0.995624   451A      1.000558   452A      1.007693  
     453A      1.013308   454A      1.015609   455A      1.021430  
     456A      1.031169   457A      1.031810   458A      1.033565  
     459A      1.047269   460A      1.051465   461A      1.052869  
     462A      1.057590   463A      1.060222   464A      1.067635  
     465A      1.073278   466A      1.074104   467A      1.079630  
     468A      1.083342   469A      1.088409   470A      1.093954  
     471A      1.101824   472A      1.103702   473A      1.110736  
     474A      1.112005   475A      1.119233   476A      1.121545  
     477A      1.128056   478A      1.129491   479A      1.134840  
     480A      1.137432   481A      1.139556   482A      1.141941  
     483A      1.157427   484A      1.159082   485A      1.165174  
     486A      1.167660   487A      1.171172   488A      1.172832  
     489A      1.177557   490A      1.180361   491A      1.186112  
     492A      1.188983   493A      1.191360   494A      1.197347  
     495A      1.200977   496A      1.208136   497A      1.214954  
     498A      1.217493   499A      1.218980   500A      1.228844  
     501A      1.230859   502A      1.233528   503A      1.236653  
     504A      1.242346   505A      1.247265   506A      1.253031  
     507A      1.256570   508A      1.266873   509A      1.272313  
     510A      1.274163   511A      1.277392   512A      1.281894  
     513A      1.286564   514A      1.292893   515A      1.297079  
     516A      1.301457   517A      1.306375   518A      1.310061  
     519A      1.315196   520A      1.322667   521A      1.329368  
     522A      1.332230   523A      1.345488   524A      1.357517  
     525A      1.365006   526A      1.375308   527A      1.382659  
     528A      1.383699   529A      1.386681   530A      1.403162  
     531A      1.405521   532A      1.419600   533A      1.428811  
     534A      1.436100   535A      1.441789   536A      1.450074  
     537A      1.454422   538A      1.458977   539A      1.461608  
     540A      1.471481   541A      1.472623   542A      1.480312  
     543A      1.481853   544A      1.498042   545A      1.499363  
     546A      1.503298   547A      1.516724   548A      1.520827  
     549A      1.527828   550A      1.534273   551A      1.544466  
     552A      1.547892   553A      1.559620   554A      1.565281  
     555A      1.579154   556A      1.582115   557A      1.588530  
     558A      1.598471   559A      1.605744   560A      1.609420  
     561A      1.628400   562A      1.633122   563A      1.644662  
     564A      1.657667   565A      1.670293   566A      1.691902  
     567A      1.699253   568A      1.711117   569A      1.719730  
     570A      1.741504   571A      1.748075   572A      1.764847  
     573A      1.771441   574A      1.773559   575A      1.788482  
     576A      1.788981   577A      1.797194   578A      1.801670  
     579A      1.809561   580A      1.815541   581A      1.820436  
     582A      1.827899   583A      1.832913   584A      1.842143  
     585A      1.842491   586A      1.848087   587A      1.853446  
     588A      1.856549   589A      1.859932   590A      1.862463  
     591A      1.864236   592A      1.867045   593A      1.869380  
     594A      1.877028   595A      1.877839   596A      1.887746  
     597A      1.889518   598A      1.892904   599A      1.920404  
     600A      1.923914   601A      1.935469   602A      1.943246  
     603A      1.957460   604A      1.963664   605A      1.971691  
     606A      1.985947   607A      1.989659   608A      1.997878  
     609A      2.007309   610A      2.018640   611A      2.026720  
     612A      2.031449   613A      2.035005   614A      2.037904  
     615A      2.045612   616A      2.058025   617A      2.067291  
     618A      2.078114   619A      2.084072   620A      2.089615  
     621A      2.090659   622A      2.094949   623A      2.102820  
     624A      2.110083   625A      2.112652   626A      2.121696  
     627A      2.128188   628A      2.139713   629A      2.149190  
     630A      2.154036   631A      2.160224   632A      2.167365  
     633A      2.179288   634A      2.186393   635A      2.192919  
     636A      2.200902   637A      2.206333   638A      2.215568  
     639A      2.218621   640A      2.221656   641A      2.231333  
     642A      2.235390   643A      2.239934   644A      2.243079  
     645A      2.250165   646A      2.253054   647A      2.255291  
     648A      2.259134   649A      2.263281   650A      2.269166  
     651A      2.277798   652A      2.282368   653A      2.290855  
     654A      2.298728   655A      2.315144   656A      2.325191  
     657A      2.370598   658A      2.376948   659A      2.380086  
     660A      2.391654   661A      2.406100   662A      2.428965  
     663A      2.434830   664A      2.444018   665A      2.457637  
     666A      2.461137   667A      2.477976   668A      2.497533  
     669A      2.502767   670A      2.508293   671A      2.528807  
     672A      2.543065   673A      2.552697   674A      2.568724  
     675A      2.598316   676A      2.622612   677A      2.636132  
     678A      2.642052   679A      2.645764   680A      2.650062  
     681A      2.651294   682A      2.658643   683A      2.662175  
     684A      2.666274   685A      2.671857   686A      2.677461  
     687A      2.684583   688A      2.687634   689A      2.690754  
     690A      2.704484   691A      2.712425   692A      2.723775  
     693A      2.738411   694A      2.763698   695A      2.769061  
     696A      2.783787   697A      2.786263   698A      2.792506  
     699A      2.800246   700A      2.806121   701A      2.815979  
     702A      2.828004   703A      2.846069   704A      2.857058  
     705A      2.870121   706A      2.878379   707A      2.880312  
     708A      2.883876   709A      2.890533   710A      2.900338  
     711A      2.905575   712A      2.917460   713A      2.921143  
     714A      2.930991   715A      2.940209   716A      2.951281  
     717A      2.956955   718A      2.957720   719A      2.976670  
     720A      2.988637   721A      2.992732   722A      3.005961  
     723A      3.015546   724A      3.028182   725A      3.032782  
     726A      3.035258   727A      3.038666   728A      3.041111  
     729A      3.048692   730A      3.068560   731A      3.075807  
     732A      3.081077   733A      3.082717   734A      3.095652  
     735A      3.099277   736A      3.100327   737A      3.121949  
     738A      3.141178   739A      3.149958   740A      3.154609  
     741A      3.157137   742A      3.170437   743A      3.174805  
     744A      3.186345   745A      3.192510   746A      3.207963  
     747A      3.216059   748A      3.222061   749A      3.224118  
     750A      3.237578   751A      3.240699   752A      3.249288  
     753A      3.258098   754A      3.267041   755A      3.281384  
     756A      3.291161   757A      3.298918   758A      3.307313  
     759A      3.318450   760A      3.327224   761A      3.335751  
     762A      3.341501   763A      3.352073   764A      3.361331  
     765A      3.364632   766A      3.366003   767A      3.378517  
     768A      3.384175   769A      3.390731   770A      3.395667  
     771A      3.407767   772A      3.420765   773A      3.426785  
     774A      3.431528   775A      3.477880   776A      3.478984  
     777A      3.501164   778A      3.506159   779A      3.534040  
     780A      3.560109   781A      3.564573   782A      3.567310  
     783A      3.574894   784A      3.595453   785A      3.595983  
     786A      3.625849   787A      3.630357   788A      3.638919  
     789A      3.644392   790A      3.648071   791A      3.684477  
     792A      3.686681   793A      3.697699   794A      3.706001  
     795A      3.719539   796A      3.721912   797A      3.732463  
     798A      3.750419   799A      3.756363   800A      3.761294  
     801A      3.767380   802A      3.771723   803A      3.776538  
     804A      3.788129   805A      3.790327   806A      3.800761  
     807A      3.808687   808A      3.813278   809A      3.819587  
     810A      3.828506   811A      3.857819   812A      3.872308  
     813A      3.875987   814A      3.876912   815A      3.899955  
     816A      3.908649   817A      3.923843   818A      3.956819  
     819A      3.963510   820A      4.002028   821A      4.016238  
     822A      4.026262   823A      4.049712   824A      4.063271  
     825A      4.084449   826A      4.096370   827A      4.110044  
     828A      4.126915   829A      4.157421   830A      4.183925  
     831A      4.221009   832A      4.312270   833A      4.338750  
     834A      4.357700   835A      4.382059   836A      4.399160  
     837A      4.402566   838A      4.413238   839A      4.418614  
     840A      4.423328   841A      4.438588   842A      4.458312  
     843A      4.480837   844A      4.494025   845A      4.517838  
     846A      4.543514   847A      4.596613   848A      4.614738  
     849A      4.682718   850A      4.739943   851A      4.849057  
     852A      4.872189   853A      4.947854   854A      4.992255  
     855A      5.020075   856A      5.051932   857A      5.105312  
     858A      5.179080   859A      5.199720   860A      5.215307  
     861A      5.242903   862A      5.281881   863A      5.342215  
     864A      5.573069   865A      5.642664   866A      5.687996  
     867A      5.768039   868A      5.828625   869A      5.848294  
     870A      6.375466   871A     24.544047   872A     24.593644  
     873A     24.636522   874A     24.660539   875A     24.696525  
     876A     24.721963   877A     24.793447   878A     24.806139  
     879A     24.811780   880A     24.870904   881A     24.882553  
     882A     24.970377   883A     25.001529   884A     25.008433  
     885A     25.012391   886A     25.021599   887A     25.039778  
     888A     25.056828   889A     25.069122   890A     25.079038  
     891A     25.130042   892A     25.150267   893A     25.174411  
     894A     25.181944   895A     25.193694   896A     25.196017  
     897A     25.201108   898A     25.273549   899A     25.277917  
     900A     36.911444   901A     36.949351   902A     36.970203  
     903A     36.994485   904A     37.039772   905A     37.097919  
     906A     37.141069   907A     51.752662  

    Final Occupation by Irrep:
              A 
    DOCC [   131 ]

  @DF-RHF Final Energy: -1572.27603011697897

   => Energetics <=

    Nuclear Repulsion Energy =           3715.8084173281704352
    One-Electron Energy =               -9529.5549627130276349
    Two-Electron Energy =                4241.4705152678779996
    Total Energy =                      -1572.2760301169792001

Computation Completed


Properties will be evaluated at   0.000000,   0.000000,   0.000000 [a0]

Properties computed using the SCF density matrix

  Nuclear Dipole Moment: [e a0]
     X:   -37.7400      Y:     3.3334      Z:    12.1319

  Electronic Dipole Moment: [e a0]
     X:    38.1458      Y:    -0.4964      Z:   -12.2948

  Dipole Moment: [e a0]
     X:     0.4059      Y:     2.8370      Z:    -0.1629     Total:     2.8705

  Dipole Moment: [D]
     X:     1.0316      Y:     7.2109      Z:    -0.4140     Total:     7.2961


*** tstop() called on node84.bme.utexas.edu at Fri Apr 24 12:10:21 2020
Module time:
	user time   =    3371.03 seconds =      56.18 minutes
	system time =      25.16 seconds =       0.42 minutes
	total time  =        603 seconds =      10.05 minutes
Total time:
	user time   =    3371.03 seconds =      56.18 minutes
	system time =      25.16 seconds =       0.42 minutes
	total time  =        603 seconds =      10.05 minutes

*** tstart() called on node84.bme.utexas.edu
*** at Fri Apr 24 12:10:21 2020


  //>>>>>>>>>>>>>>>>>>>>>>>>>>>>>>>>>>>//
  //               DFMP2               //
  //<<<<<<<<<<<<<<<<<<<<<<<<<<<<<<<<<<<//

   => Loading Basis Set <=

    Name: (6-311+G* AUX)
    Role: RIFIT
    Keyword: DF_BASIS_MP2
    atoms 1-4, 6-9, 11, 14-19, 21-28, 30-31, 33-35, 37 entry C          line   148 file /home/bdw2292/miniconda3/envs/p4env/share/psi4/basis/heavy-aug-cc-pvtz-ri.gbs 
    atoms 5, 10, 12-13, 20, 29, 32                     entry N          line   206 file /home/bdw2292/miniconda3/envs/p4env/share/psi4/basis/heavy-aug-cc-pvtz-ri.gbs 
    atoms 36                                           entry O          line   264 file /home/bdw2292/miniconda3/envs/p4env/share/psi4/basis/heavy-aug-cc-pvtz-ri.gbs 
    atoms 38-68                                        entry H          line    44 file /home/bdw2292/miniconda3/envs/p4env/share/psi4/basis/heavy-aug-cc-pvtz-ri.gbs 

	 --------------------------------------------------------
	                          DF-MP2                         
	      2nd-Order Density-Fitted Moller-Plesset Theory     
	              RMP2 Wavefunction,   6 Threads             
	                                                         
	        Rob Parrish, Justin Turney, Andy Simmonett,      
	           Ed Hohenstein, and C. David Sherrill          
	 --------------------------------------------------------

   => Auxiliary Basis Set <=

  Basis Set: (6-311+G* AUX)
    Blend: HEAVY-AUG-CC-PVTZ-RI
    Number of shells: 1346
    Number of basis function: 4852
    Number of Cartesian functions: 6117
    Spherical Harmonics?: true
    Max angular momentum: 4

	 --------------------------------------------------------
	                 NBF =   907, NAUX =  4852
	 --------------------------------------------------------
	   CLASS    FOCC     OCC    AOCC    AVIR     VIR    FVIR
	   PAIRS      37     131      94     776     776       0
	 --------------------------------------------------------

	-----------------------------------------------------------
	 ==================> DF-MP2 Energies <==================== 
	-----------------------------------------------------------
	 Reference Energy          =   -1572.2760301169789727 [Eh]
	 Singles Energy            =      -0.0000000000000000 [Eh]
	 Same-Spin Energy          =      -1.4485715007933408 [Eh]
	 Opposite-Spin Energy      =      -3.8938927835902377 [Eh]
	 Correlation Energy        =      -5.3424642843835786 [Eh]
	 Total Energy              =   -1577.6184944013625682 [Eh]
	-----------------------------------------------------------
	 ================> DF-SCS-MP2 Energies <================== 
	-----------------------------------------------------------
	 SCS Same-Spin Scale       =       0.3333333333333333 [-]
	 SCS Opposite-Spin Scale   =       1.2000000000000000 [-]
	 SCS Same-Spin Energy      =      -0.4828571669311136 [Eh]
	 SCS Opposite-Spin Energy  =      -4.6726713403082849 [Eh]
	 SCS Correlation Energy    =      -5.1555285072393984 [Eh]
	 SCS Total Energy          =   -1577.4315586242182690 [Eh]
	-----------------------------------------------------------


*** tstop() called on node84.bme.utexas.edu at Fri Apr 24 12:16:22 2020
Module time:
	user time   =    1998.44 seconds =      33.31 minutes
	system time =      18.02 seconds =       0.30 minutes
	total time  =        361 seconds =       6.02 minutes
Total time:
	user time   =    5369.47 seconds =      89.49 minutes
	system time =      43.18 seconds =       0.72 minutes
	total time  =        964 seconds =      16.07 minutes


Properties will be evaluated at   0.000000,   0.000000,   0.000000 [a0]
OEProp: No title given, name of density matrix used for the following properties is 'SCF density'


  Wiberg Bond Indices using Orthogonal Lowdin Orbitals:

  Irrep: 1 Size: 68 x 68

                 1                   2                   3                   4                   5

    1     0.00000000000000     1.51007844581251     0.12964379768379     0.14776717038846     0.12900165831809
    2     1.51007844581251     0.00000000000000     1.42417428933610     0.13160664273662     0.12518691331410
    3     0.12964379768379     1.42417428933610     0.00000000000000     1.38276787903736     0.12262909641145
    4     0.14776717038846     0.13160664273662     1.38276787903736     0.00000000000000     1.68364890071250
    5     0.12900165831809     0.12518691331410     0.12262909641145     1.68364890071250     0.00000000000000
    6     1.51070410400570     0.14379503444664     0.13983420263980     0.15764275363051     1.64805878067688
    7     0.01548693105524     0.10568645168778     1.02711212082125     0.10684991664761     0.01455054565419
    8     0.00401764300972     0.04581849622269     0.10068122262443     0.02498733564965     0.00237955134094
    9     0.00044960018223     0.00515161998909     0.01546968087599     0.00436469277406     0.00073907666750
   10     0.00044847360738     0.00555903672074     0.00601096122568     0.00625214026065     0.00035141409105
   11     0.00094655039934     0.00352113302868     0.01844372068705     0.00740725685741     0.00050054065207
   12     0.00300046243506     0.02259431993673     0.12099800364191     0.06507647888944     0.00431791396285
   13     0.00018316375079     0.00053401463709     0.00172123047485     0.00097685726946     0.00009744767406
   14     0.00004428570566     0.00012329824718     0.00064361676849     0.00151934261240     0.00012861138423
   15     0.00001361898597     0.00003124894156     0.00009077334053     0.00018739779780     0.00002036618767
   16     0.00000373792090     0.00000919167485     0.00005659085846     0.00031469759542     0.00001503699745
   17     0.00001366261364     0.00002360856019     0.00007133773499     0.00032548452502     0.00004522669315
   18     0.00003866110207     0.00006958886829     0.00033997965994     0.00212078231686     0.00022944389906
   19     0.00021462417976     0.00030121820602     0.00229426797348     0.01185495317877     0.00063610223541
   20     0.00007400716859     0.00007893384884     0.00035538098044     0.00329823111061     0.00057934485681
   21     0.00001948191424     0.00001852494262     0.00006094417669     0.00047192355133     0.00021599142892
   22     0.00006506468373     0.00004824842472     0.00005697911178     0.00072958467134     0.00162222060280
   23     0.00056124294333     0.00035329098718     0.00049223703859     0.00748749136300     0.02234010157889
   24     0.00030543419162     0.00026352824058     0.00035407937707     0.00179889542238     0.01360854112677
   25     0.00002529754310     0.00002338540027     0.00002968645804     0.00015910737841     0.00077369564746
   26     0.00001671559054     0.00000931977693     0.00002355400042     0.00026831302535     0.00065696450291
   27     0.00001567961635     0.00000908688238     0.00002342822527     0.00022474121352     0.00063694794625
   28     0.00001158903105     0.00000615550141     0.00000538021699     0.00003391392466     0.00008512714303
   29     0.00001235695938     0.00000220408874     0.00000247286485     0.00001193755960     0.00004706373864
   30     0.00004477567252     0.00007634292490     0.00009870495880     0.00003368269960     0.00019397164594
   31     0.00001441717265     0.00001218374594     0.00001188963401     0.00001472024834     0.00004228860382
   32     0.00000341461113     0.00000112430304     0.00000091442395     0.00000279348514     0.00001216281349
   33     0.00000091974611     0.00000050405247     0.00000052346738     0.00000221927246     0.00000389751928
   34     0.00000311895876     0.00000104786969     0.00000092081250     0.00000803166523     0.00001248721409
   35     0.00000272859604     0.00000101236115     0.00000086858101     0.00000731377840     0.00001315325651
   36     0.00000287857502     0.00000313300325     0.00001733575657     0.00013179657661     0.00004787828100
   37     0.00000382489291     0.00001098280502     0.00004983676914     0.00005602134791     0.00000443221027
   38     0.84204123863601     0.05680595567561     0.00960184804845     0.00272200557919     0.00791194190474
   39     0.05348954930558     0.82963819874687     0.05225719305018     0.00960471510249     0.00126852235372
   40     0.00207470875310     0.00820285978875     0.04945400292236     0.80965881748920     0.06247819944793
   41     0.05483195859717     0.00970528088773     0.00258798252914     0.01284665986048     0.06485164009744
   42     0.00072891299714     0.01047322668533     0.01112734848047     0.00057449453508     0.00016418283511
   43     0.00003719302787     0.00020747212463     0.00109552430979     0.00026240025798     0.00006340106947
   44     0.00001364985780     0.00005052064093     0.00023508416072     0.00004213933995     0.00000595137540
   45     0.00000067274705     0.00000170492035     0.00000878557939     0.00001991393503     0.00000196403353
   46     0.00000126368069     0.00000212300445     0.00000722001254     0.00002280029185     0.00000745960162
   47     0.00005510518303     0.00007575440182     0.00140573014243     0.00534500332630     0.00028623056175
   48     0.00003708913352     0.00002676235414     0.00010279138656     0.00115595995118     0.00026805585705
   49     0.00015889019634     0.00005664042992     0.00011018320836     0.00330813798402     0.00603340143482
   50     0.00002617162350     0.00001812029987     0.00004737825069     0.00017086639177     0.00161716722346
   51     0.00000167754373     0.00000099270532     0.00000241118172     0.00001723756489     0.00002612250560
   52     0.00000181257846     0.00000094508992     0.00000236003328     0.00000764739477     0.00003060549422
   53     0.00000176902549     0.00000047975528     0.00000058256932     0.00000478186214     0.00000775719655
   54     0.00000065588311     0.00000018266683     0.00000044050926     0.00000918815657     0.00000965497365
   55     0.00000544997515     0.00000337177921     0.00000488795193     0.00000997338454     0.00005521548892
   56     0.00000200032776     0.00000086812716     0.00000110757149     0.00000192168004     0.00000976688342
   57     0.00000086894820     0.00000046337921     0.00000037219516     0.00000073059058     0.00000214987576
   58     0.00000180423524     0.00000066788397     0.00000120236571     0.00000431231520     0.00001167749827
   59     0.00000023375852     0.00000007157254     0.00000011021792     0.00000061099834     0.00000139630830
   60     0.00000015433211     0.00000003380728     0.00000002728099     0.00000029183957     0.00000042945596
   61     0.00000016789767     0.00000009315454     0.00000008813994     0.00000042189993     0.00000048091722
   62     0.00000046517643     0.00000010588631     0.00000009361958     0.00000048974225     0.00000171038877
   63     0.00000234904615     0.00000087871114     0.00000062896444     0.00000686204412     0.00000903390141
   64     0.00000177540154     0.00000074619731     0.00000059579329     0.00000680646691     0.00000714178731
   65     0.00000016255249     0.00000011865487     0.00000009815020     0.00000023659689     0.00000107335539
   66     0.00000077956462     0.00000149698611     0.00001078031381     0.00000860325942     0.00000061782585
   67     0.00000070820979     0.00000139577213     0.00000616343369     0.00000962701688     0.00000044404905
   68     0.00000032066698     0.00000078246054     0.00000415224020     0.00000857517947     0.00000042713189

                 6                   7                   8                   9                  10

    1     1.51070410400570     0.01548693105524     0.00401764300972     0.00044960018223     0.00044847360738
    2     0.14379503444664     0.10568645168778     0.04581849622269     0.00515161998909     0.00555903672074
    3     0.13983420263980     1.02711212082125     0.10068122262443     0.01546968087599     0.00601096122568
    4     0.15764275363051     0.10684991664761     0.02498733564965     0.00436469277406     0.00625214026065
    5     1.64805878067688     0.01455054565419     0.00237955134094     0.00073907666750     0.00035141409105
    6     0.00000000000000     0.01020293419480     0.00729294605510     0.00129614219441     0.00343725580619
    7     0.01020293419480     0.00000000000000     1.40995890351813     0.15010771815645     0.11308775546279
    8     0.00729294605510     1.40995890351813     0.00000000000000     1.47458499096694     0.13558240473182
    9     0.00129614219441     0.15010771815645     1.47458499096694     0.00000000000000     1.68222478052133
   10     0.00343725580619     0.11308775546279     0.13558240473182     1.68222478052133     0.00000000000000
   11     0.00091101604346     0.14258141100745     0.11672436141662     0.15486847863898     1.51473706693163
   12     0.00631106417639     1.53530029063341     0.12935101858602     0.11365239078727     0.11135190227355
   13     0.00008496879214     0.01988002753587     0.02218463547365     0.02541016341771     0.16589426970500
   14     0.00006018923016     0.00308875799982     0.00263400103565     0.00345332132354     0.01750446457557
   15     0.00000915025207     0.00056009760238     0.00155350020179     0.00100874426130     0.00334303785775
   16     0.00000592106188     0.00019226804910     0.00021784088930     0.00018937588295     0.00053872500241
   17     0.00000886813076     0.00028428743790     0.00141176483281     0.00047411565390     0.00135222390763
   18     0.00005490880561     0.00061493471810     0.00029600499605     0.00017047225500     0.00047078135753
   19     0.00024257678863     0.00631372064971     0.00347235259158     0.00169423316629     0.00462828871496
   20     0.00007846738845     0.00014284118238     0.00003440351123     0.00002336598467     0.00006859281150
   21     0.00003241617394     0.00002713857141     0.00001089777764     0.00000774586535     0.00002027061140
   22     0.00017648891844     0.00001156150444     0.00000506579395     0.00000248266941     0.00000468495191
   23     0.00219569848352     0.00008306231583     0.00002469812960     0.00000741449985     0.00000521230380
   24     0.00310228434317     0.00004339521968     0.00002376005703     0.00000418544906     0.00000306526406
   25     0.00029307168278     0.00000539793324     0.00000318397900     0.00000062407081     0.00000072101571
   26     0.00017620215010     0.00000432565448     0.00000119881290     0.00000051289330     0.00000052301269
   27     0.00015077243142     0.00000520596277     0.00000214677014     0.00000084818876     0.00000147207781
   28     0.00007525079645     0.00000144984835     0.00000052799631     0.00000013772807     0.00000011793619
   29     0.00015106082255     0.00000063300154     0.00000044052944     0.00000009870383     0.00000005983259
   30     0.00044085452924     0.00000475508710     0.00000954513010     0.00000143805584     0.00000425334192
   31     0.00012885454723     0.00000131042377     0.00000069758832     0.00000021169756     0.00000015518522
   32     0.00004442826282     0.00000024809586     0.00000013414283     0.00000002868698     0.00000002599929
   33     0.00000958747182     0.00000014216408     0.00000004862688     0.00000001556642     0.00000001207656
   34     0.00002936075516     0.00000030156678     0.00000014165742     0.00000002447204     0.00000002368716
   35     0.00003574252754     0.00000018709837     0.00000014084746     0.00000002386423     0.00000003538792
   36     0.00001179957684     0.00001383193160     0.00000916304298     0.00000530624640     0.00001270467301
   37     0.00000333938213     0.00018403254810     0.00016654614526     0.00016346149892     0.00083610468357
   38     0.05962946314077     0.00092315366498     0.00017235327944     0.00003357067716     0.00001757721361
   39     0.00970355234696     0.01302740828566     0.01093237578943     0.00075040857724     0.00018839010130
   40     0.01187944234067     0.01222598015114     0.00075404154225     0.00020235441636     0.00022974254935
   41     0.83968117248423     0.00033588902752     0.00007915920470     0.00002588879200     0.00001158186279
   42     0.00020851130701     0.05545112950213     0.82744198768822     0.05776617396610     0.00715758940136
   43     0.00003587941366     0.00943340332909     0.05384500559911     0.83794141402200     0.06626032129031
   44     0.00000446570056     0.00114470495184     0.00061776152481     0.00199680906378     0.01837090992204
   45     0.00000070329711     0.00001899746909     0.00000785761279     0.00002394843271     0.00005158303329
   46     0.00000160575721     0.00001850698380     0.00000619126598     0.00000530963436     0.00001298628384
   47     0.00008741770204     0.00284377802526     0.00042495279178     0.00023281869467     0.00022110343729
   48     0.00002742988473     0.00004331641392     0.00000992872893     0.00000279955927     0.00001203840310
   49     0.00058697151084     0.00001715914318     0.00000443651950     0.00000134547461     0.00000133306635
   50     0.00111668215542     0.00000539546167     0.00000213860786     0.00000038572517     0.00000020102319
   51     0.00000549039645     0.00000031256356     0.00000012991974     0.00000005791826     0.00000004169596
   52     0.00001325112496     0.00000092683617     0.00000018972524     0.00000011095464     0.00000013891991
   53     0.00000537821774     0.00000006835775     0.00000004630339     0.00000001060794     0.00000001731939
   54     0.00000400103101     0.00000010250158     0.00000007169496     0.00000001146709     0.00000001128688
   55     0.00014557168869     0.00000050370854     0.00000031416085     0.00000004287956     0.00000017895825
   56     0.00002176213533     0.00000026401942     0.00000007950370     0.00000002218957     0.00000003749761
   57     0.00000191339445     0.00000011781319     0.00000004586309     0.00000002677179     0.00000001185394
   58     0.00001672970732     0.00000037346171     0.00000004722220     0.00000001150989     0.00000001921332
   59     0.00000090709789     0.00000001053784     0.00000001305828     0.00000000260323     0.00000000358152
   60     0.00000092991259     0.00000002435369     0.00000000537810     0.00000000272799     0.00000000302060
   61     0.00000387642098     0.00000003032033     0.00000000542519     0.00000000162282     0.00000000047412
   62     0.00000655033090     0.00000002229575     0.00000002300170     0.00000000126247     0.00000000209156
   63     0.00002553924275     0.00000018870185     0.00000007786248     0.00000001662248     0.00000001324606
   64     0.00001788716538     0.00000008242633     0.00000005471426     0.00000001645402     0.00000000989336
   65     0.00000181534304     0.00000001606163     0.00000003508293     0.00000000206835     0.00000000326892
   66     0.00000029575001     0.00003420737358     0.00006149093042     0.00001864739745     0.00010706188841
   67     0.00000038677669     0.00002766438249     0.00009473987732     0.00001641359685     0.00014773607627
   68     0.00000019686603     0.00001452347379     0.00000465969399     0.00000354561057     0.00003206626086

                11                  12                  13                  14                  15

    1     0.00094655039934     0.00300046243506     0.00018316375079     0.00004428570566     0.00001361898597
    2     0.00352113302868     0.02259431993673     0.00053401463709     0.00012329824718     0.00003124894156
    3     0.01844372068705     0.12099800364191     0.00172123047485     0.00064361676849     0.00009077334053
    4     0.00740725685741     0.06507647888944     0.00097685726946     0.00151934261240     0.00018739779780
    5     0.00050054065207     0.00431791396285     0.00009744767406     0.00012861138423     0.00002036618767
    6     0.00091101604346     0.00631106417639     0.00008496879214     0.00006018923016     0.00000915025207
    7     0.14258141100745     1.53530029063341     0.01988002753587     0.00308875799982     0.00056009760238
    8     0.11672436141662     0.12935101858602     0.02218463547365     0.00263400103565     0.00155350020179
    9     0.15486847863898     0.11365239078727     0.02541016341771     0.00345332132354     0.00100874426130
   10     1.51473706693163     0.11135190227355     0.16589426970500     0.01750446457557     0.00334303785775
   11     0.00000000000000     1.53744987492540     1.30195185601208     0.08526145514184     0.01831184857580
   12     1.53744987492540     0.00000000000000     0.14476544308664     0.03045497560436     0.00368760947253
   13     1.30195185601208     0.14476544308664     0.00000000000000     1.14919404009378     0.10872142032559
   14     0.08526145514184     0.03045497560436     1.14919404009378     0.00000000000000     1.32588974630051
   15     0.01831184857580     0.00368760947253     0.10872142032559     1.32588974630051     0.00000000000000
   16     0.00256791566914     0.00127278237873     0.01514332013252     0.12879658393630     1.46788067189380
   17     0.00432130020264     0.00266125667267     0.01289187661516     0.12367871835722     0.12844085758318
   18     0.00267501173736     0.00521508549613     0.01375245080305     0.12574285377752     0.12158639205959
   19     0.03023326140165     0.05899136217990     0.11395282796885     1.42797401068274     0.12203253044031
   20     0.00038764899269     0.00110746954711     0.00140180101363     0.01590978294034     0.01201500044416
   21     0.00008054732721     0.00014338587508     0.00033853157787     0.00293702311523     0.00585579405629
   22     0.00001802038157     0.00002865336060     0.00006801843965     0.00041782671247     0.00038428420169
   23     0.00001801785492     0.00010946919862     0.00001948675626     0.00014759569715     0.00040405273736
   24     0.00000432223483     0.00001805459562     0.00000419946191     0.00001877822476     0.00004178291249
   25     0.00000129869978     0.00000322188866     0.00000237193703     0.00002650193771     0.00014672888723
   26     0.00000135047835     0.00000183916080     0.00000305839154     0.00002337874374     0.00003604326557
   27     0.00000552611778     0.00000563857281     0.00001694901018     0.00011688036295     0.00031469007733
   28     0.00000028858090     0.00000067104122     0.00000037643450     0.00000318983530     0.00001146833546
   29     0.00000009955701     0.00000028111989     0.00000015504447     0.00000143337900     0.00000720858740
   30     0.00000066026611     0.00000487615658     0.00000032969986     0.00000091320501     0.00000236696485
   31     0.00000013517362     0.00000066602611     0.00000012434642     0.00000084786621     0.00000123175480
   32     0.00000003576693     0.00000008959525     0.00000003362897     0.00000025252450     0.00000024354173
   33     0.00000001681198     0.00000003751899     0.00000001562166     0.00000006976252     0.00000009266038
   34     0.00000005871372     0.00000008014117     0.00000005285724     0.00000027490152     0.00000036878781
   35     0.00000006614545     0.00000009218930     0.00000005409104     0.00000036107097     0.00000103822897
   36     0.00005088064232     0.00006601921923     0.00017208779781     0.00108579717923     0.00346281463303
   37     0.00418793030078     0.00095778447123     0.04266074100041     0.10135257843224     1.11513111835232
   38     0.00007149579324     0.00024874207795     0.00001161109014     0.00000762898386     0.00000086476172
   39     0.00014582337365     0.00037365214277     0.00005111707036     0.00002294591934     0.00000449056954
   40     0.00184339927185     0.01783498752209     0.00022201564224     0.00080054656018     0.00007950539120
   41     0.00002593750628     0.00009199782037     0.00000417378745     0.00000379735773     0.00000072990763
   42     0.00286088693450     0.00759525290751     0.00030571178206     0.00004402818452     0.00001462051189
   43     0.01303778840015     0.00139417957251     0.00080754801080     0.00029589238313     0.00004403959622
   44     0.04492497355657     0.00616324901444     0.79179347647683     0.03757130725471     0.00969629490615
   45     0.00033110559048     0.00004116021497     0.00088621592335     0.00939890389289     0.05406360517485
   46     0.00003977232328     0.00009807616117     0.00014322790316     0.00216465119239     0.00827440165121
   47     0.00730358948752     0.02562248503163     0.01181347273156     0.05079148985746     0.00746813466874
   48     0.00006290387503     0.00044055275541     0.00007627031861     0.00122517197864     0.00033435660462
   49     0.00000287758510     0.00002229482620     0.00000276789040     0.00001504998463     0.00008570293067
   50     0.00000056540660     0.00000207577019     0.00000030912805     0.00000186469294     0.00000079398419
   51     0.00000018841641     0.00000010090689     0.00000051250867     0.00000318517207     0.00000314638702
   52     0.00000068733806     0.00000070371380     0.00000133323629     0.00001121124453     0.00000755954340
   53     0.00000004489621     0.00000007584131     0.00000006860444     0.00000044813565     0.00000133449518
   54     0.00000003632088     0.00000004116932     0.00000006056412     0.00000046730086     0.00000198019042
   55     0.00000004105694     0.00000029635351     0.00000002114121     0.00000017875685     0.00000026739674
   56     0.00000002475953     0.00000003885370     0.00000002649605     0.00000006142931     0.00000034317601
   57     0.00000001465085     0.00000003106087     0.00000000653418     0.00000004219750     0.00000010856365
   58     0.00000002874232     0.00000026082854     0.00000002696856     0.00000023201050     0.00000034149472
   59     0.00000000239513     0.00000001587676     0.00000000130112     0.00000000443432     0.00000001375910
   60     0.00000000358244     0.00000000443112     0.00000000082119     0.00000000887077     0.00000001027172
   61     0.00000000381091     0.00000000412554     0.00000000056279     0.00000000599339     0.00000002255669
   62     0.00000000598942     0.00000001043869     0.00000000284643     0.00000001547829     0.00000002779114
   63     0.00000003624780     0.00000005576542     0.00000002491078     0.00000008100579     0.00000019509062
   64     0.00000003899460     0.00000004066605     0.00000001533371     0.00000007347142     0.00000031878852
   65     0.00000000297437     0.00000000817304     0.00000000431219     0.00000002481577     0.00000006298965
   66     0.00064637643143     0.00019221934875     0.00736769921826     0.01387225262708     0.04144104584667
   67     0.00073486966260     0.00021043105238     0.00778408795300     0.01374620352728     0.04198644291992
   68     0.00019226390273     0.00006117993155     0.00163038227209     0.00680553661982     0.04513585726471

                16                  17                  18                  19                  20

    1     0.00000373792090     0.00001366261364     0.00003866110207     0.00021462417976     0.00007400716859
    2     0.00000919167485     0.00002360856019     0.00006958886829     0.00030121820602     0.00007893384884
    3     0.00005659085846     0.00007133773499     0.00033997965994     0.00229426797348     0.00035538098044
    4     0.00031469759542     0.00032548452502     0.00212078231686     0.01185495317877     0.00329823111061
    5     0.00001503699745     0.00004522669315     0.00022944389906     0.00063610223541     0.00057934485681
    6     0.00000592106188     0.00000886813076     0.00005490880561     0.00024257678863     0.00007846738845
    7     0.00019226804910     0.00028428743790     0.00061493471810     0.00631372064971     0.00014284118238
    8     0.00021784088930     0.00141176483281     0.00029600499605     0.00347235259158     0.00003440351123
    9     0.00018937588295     0.00047411565390     0.00017047225500     0.00169423316629     0.00002336598467
   10     0.00053872500241     0.00135222390763     0.00047078135753     0.00462828871496     0.00006859281150
   11     0.00256791566914     0.00432130020264     0.00267501173736     0.03023326140165     0.00038764899269
   12     0.00127278237873     0.00266125667267     0.00521508549613     0.05899136217990     0.00110746954711
   13     0.01514332013252     0.01289187661516     0.01375245080305     0.11395282796885     0.00140180101363
   14     0.12879658393630     0.12367871835722     0.12574285377752     1.42797401068274     0.01590978294034
   15     1.46788067189380     0.12844085758318     0.12158639205959     0.12203253044031     0.01201500044416
   16     0.00000000000000     1.48948164607793     0.13701097970242     0.13226729337054     0.01465355909097
   17     1.48948164607793     0.00000000000000     1.42432738487729     0.12545631932088     0.10830821925569
   18     0.13701097970242     1.42432738487729     0.00000000000000     1.38774825358682     1.15250257044931
   19     0.13226729337054     0.12545631932088     1.38774825358682     0.00000000000000     0.13110254188046
   20     0.01465355909097     0.10830821925569     1.15250257044931     0.13110254188046     0.00000000000000
   21     0.00303624826018     0.03315451709495     0.08896049269452     0.02366260047665     1.34174151502717
   22     0.00042342246814     0.00364081968182     0.01534448149491     0.00240313115785     0.10955558997092
   23     0.00019259918199     0.00142516019012     0.00469209125137     0.00157620428497     0.04771125714074
   24     0.00003175325453     0.00020666390565     0.00052483443786     0.00017086195259     0.00423497596319
   25     0.00003046496763     0.00027242603626     0.00051569715913     0.00023383439715     0.00366733211919
   26     0.00002885109577     0.00017509109128     0.00057227744511     0.00013289329788     0.00275946242905
   27     0.00013442817001     0.00098885269903     0.00252528242750     0.00073930294995     0.01908708164879
   28     0.00000373423401     0.00002793895819     0.00005898478655     0.00002458555743     0.00031466735376
   29     0.00000157540114     0.00001155042985     0.00002386651507     0.00001182333788     0.00016143934982
   30     0.00000097749422     0.00000635086398     0.00001090354669     0.00000537589454     0.00005666666083
   31     0.00000100324329     0.00000615152840     0.00001087822091     0.00000436127506     0.00003984414424
   32     0.00000023726974     0.00000081509146     0.00000337227936     0.00000209249307     0.00000714305879
   33     0.00000006249404     0.00000054477402     0.00000128439766     0.00000035198214     0.00000260626335
   34     0.00000041836518     0.00000154937429     0.00000483891226     0.00000177648026     0.00002138505670
   35     0.00000046636448     0.00000277258747     0.00000611937929     0.00000260204228     0.00002831704879
   36     0.00359913073447     0.05013371764570     0.03217578010635     0.00560272964553     0.19692598721275
   37     0.12253645663842     0.01588420925038     0.00766429264230     0.01537729897867     0.00081737192919
   38     0.00000053302065     0.00000083203541     0.00000710599244     0.00002512607130     0.00000611864436
   39     0.00000155097764     0.00000211752099     0.00000483980694     0.00002900877056     0.00000592499236
   40     0.00015561482503     0.00013870811725     0.00135306370242     0.00594450322024     0.00125777677619
   41     0.00000062849980     0.00000114050999     0.00000274493178     0.00001277962141     0.00000476366320
   42     0.00000494261941     0.00000562003283     0.00002416891547     0.00012784445661     0.00000805448279
   43     0.00001108377689     0.00000468326042     0.00001304893530     0.00007036897812     0.00000118970049
   44     0.00066676163421     0.00027051321921     0.00075804191502     0.00649553617653     0.00018489123226
   45     0.83154486393489     0.05594085307958     0.00975645176966     0.00230338893732     0.00072661621727
   46     0.05502611066433     0.81154725189766     0.05444425123621     0.00892511793468     0.01072088843359
   47     0.00222765396716     0.00805680409983     0.05139693536965     0.78935536337030     0.01937765941627
   48     0.00072920229429     0.00605331490043     0.03914835968259     0.01508249584419     0.79672902987347
   49     0.00002656423233     0.00025363864387     0.00123008200987     0.00048256483150     0.01222895155615
   50     0.00000183645599     0.00000957897912     0.00002354949128     0.00000792810683     0.00011131788272
   51     0.00000251990915     0.00001675448050     0.00005841720347     0.00001896270913     0.00024049722782
   52     0.00002088650151     0.00009055368379     0.00012250632742     0.00004592070493     0.00064013890187
   53     0.00000066771947     0.00000403635661     0.00000915633247     0.00000331002713     0.00003260840164
   54     0.00000056493263     0.00000411983951     0.00000837554638     0.00000388325223     0.00004555145401
   55     0.00000010473108     0.00000076079788     0.00000146656257     0.00000082313526     0.00000827685026
   56     0.00000017244393     0.00000080934937     0.00000084538163     0.00000079645226     0.00000690553918
   57     0.00000005612426     0.00000022794015     0.00000030107422     0.00000022711699     0.00000182699000
   58     0.00000012129308     0.00000157421325     0.00000317329391     0.00000094435131     0.00001868492194
   59     0.00000000812665     0.00000005056338     0.00000006651428     0.00000002675442     0.00000035717488
   60     0.00000000489700     0.00000011322596     0.00000022871785     0.00000001632550     0.00000018742092
   61     0.00000000536647     0.00000008924010     0.00000014369193     0.00000003217491     0.00000033092610
   62     0.00000001255167     0.00000004486232     0.00000028453243     0.00000005747327     0.00000053261512
   63     0.00000024441199     0.00000089638372     0.00000230573165     0.00000108591257     0.00001214536887
   64     0.00000018241889     0.00000104182460     0.00000360402061     0.00000122036430     0.00001345420795
   65     0.00000002182656     0.00000014791505     0.00000034226790     0.00000028383478     0.00000124466281
   66     0.01273345606780     0.00085882029827     0.00279906317862     0.00079586389492     0.00036424397819
   67     0.01280010537337     0.00082143171085     0.00273151131706     0.00086158251414     0.00033621137463
   68     0.01949943638654     0.00142128361877     0.00033688045387     0.00073145601265     0.00006846414855

                21                  22                  23                  24                  25

    1     0.00001948191424     0.00006506468373     0.00056124294333     0.00030543419162     0.00002529754310
    2     0.00001852494262     0.00004824842472     0.00035329098718     0.00026352824058     0.00002338540027
    3     0.00006094417669     0.00005697911178     0.00049223703859     0.00035407937707     0.00002968645804
    4     0.00047192355133     0.00072958467134     0.00748749136300     0.00179889542238     0.00015910737841
    5     0.00021599142892     0.00162222060280     0.02234010157889     0.01360854112677     0.00077369564746
    6     0.00003241617394     0.00017648891844     0.00219569848352     0.00310228434317     0.00029307168278
    7     0.00002713857141     0.00001156150444     0.00008306231583     0.00004339521968     0.00000539793324
    8     0.00001089777764     0.00000506579395     0.00002469812960     0.00002376005703     0.00000318397900
    9     0.00000774586535     0.00000248266941     0.00000741449985     0.00000418544906     0.00000062407081
   10     0.00002027061140     0.00000468495191     0.00000521230380     0.00000306526406     0.00000072101571
   11     0.00008054732721     0.00001802038157     0.00001801785492     0.00000432223483     0.00000129869978
   12     0.00014338587508     0.00002865336060     0.00010946919862     0.00001805459562     0.00000322188866
   13     0.00033853157787     0.00006801843965     0.00001948675626     0.00000419946191     0.00000237193703
   14     0.00293702311523     0.00041782671247     0.00014759569715     0.00001877822476     0.00002650193771
   15     0.00585579405629     0.00038428420169     0.00040405273736     0.00004178291249     0.00014672888723
   16     0.00303624826018     0.00042342246814     0.00019259918199     0.00003175325453     0.00003046496763
   17     0.03315451709495     0.00364081968182     0.00142516019012     0.00020666390565     0.00027242603626
   18     0.08896049269452     0.01534448149491     0.00469209125137     0.00052483443786     0.00051569715913
   19     0.02366260047665     0.00240313115785     0.00157620428497     0.00017086195259     0.00023383439715
   20     1.34174151502717     0.10955558997092     0.04771125714074     0.00423497596319     0.00366733211919
   21     0.00000000000000     0.98013672741682     0.10753864088980     0.01537468682321     0.01156764563794
   22     0.98013672741682     0.00000000000000     1.42640068538334     0.13228426498622     0.12597481061841
   23     0.10753864088980     1.42640068538334     0.00000000000000     1.50188122749395     0.13117853289917
   24     0.01537468682321     0.13228426498622     1.50188122749395     0.00000000000000     1.43636231665208
   25     0.01156764563794     0.12597481061841     0.13117853289917     1.43636231665208     0.00000000000000
   26     0.01568536518214     0.13171089095056     0.13802892892741     0.13014476012889     1.42131150556366
   27     0.11450969466029     1.40784724183330     0.12792836105386     0.13848502709368     0.13102075882686
   28     0.00085504078593     0.00962110595029     0.01606380572057     0.11619469392950     1.05814942407030
   29     0.00036347285244     0.00408301840035     0.00201099790509     0.02248520343136     0.07870921922013
   30     0.00017407294508     0.00184104055555     0.00553373123691     0.02661781970800     0.03630784722337
   31     0.00015929658754     0.00262328032259     0.00272850527774     0.00885934745374     0.02433632305399
   32     0.00004155300139     0.00038271003548     0.00033892223075     0.00113863800681     0.00334383614799
   33     0.00001246248577     0.00012418771220     0.00012645490786     0.00034610537318     0.00109294530479
   34     0.00005413411222     0.00032855788896     0.00040627530414     0.00117238245678     0.00820444936255
   35     0.00007439288055     0.00070815203553     0.00056056801425     0.00357968550378     0.01517832029982
   36     2.18579206676239     0.13797874511605     0.02560378524163     0.00324466292682     0.00625086056956
   37     0.00034578211854     0.00004757487616     0.00003137987492     0.00000441596774     0.00000786288744
   38     0.00000254224114     0.00000400317524     0.00002228538617     0.00001224486409     0.00000148452211
   39     0.00000116318844     0.00000262458731     0.00002078151664     0.00001611881125     0.00000178275441
   40     0.00018343656560     0.00010922681389     0.00093167147581     0.00008230028761     0.00001853987155
   41     0.00000111055602     0.00000814841112     0.00006058798284     0.00019004742163     0.00001124256989
   42     0.00000182498415     0.00000087233962     0.00000700164178     0.00000254605136     0.00000017645352
   43     0.00000082814695     0.00000036283793     0.00000172723413     0.00000105662208     0.00000005054639
   44     0.00004591449160     0.00001151396897     0.00000370424690     0.00000073204712     0.00000062823899
   45     0.00017252946190     0.00004328261381     0.00003601160741     0.00000614829471     0.00000235260018
   46     0.00711761157166     0.00041033253339     0.00010267489527     0.00003166945370     0.00001820624688
   47     0.00165254030426     0.00019239592497     0.00021523533411     0.00001414507190     0.00000916650828
   48     0.04561792926726     0.01173771539712     0.00953325773616     0.00093068603694     0.00037702405075
   49     0.01351633664860     0.05347658982531     0.81509641505067     0.05404720358665     0.00866864073483
   50     0.00094252338388     0.00921259806954     0.05556208954091     0.82151989161840     0.05380353631497
   51     0.00095472506386     0.00924808980843     0.00212603043797     0.00910665626755     0.05366181796588
   52     0.01617947951957     0.05309944490114     0.00900633156125     0.00206141152883     0.00879400048388
   53     0.00012804341862     0.00090723551597     0.00108924185014     0.01617970222480     0.04414990834989
   54     0.00009098200671     0.00066984277945     0.00074357827954     0.00709220602644     0.04130926041532
   55     0.00002632318462     0.00038258476910     0.00194671356178     0.01056816014408     0.00947459753880
   56     0.00001392791995     0.00010439036863     0.00029061584783     0.00042565688358     0.00104954347346
   57     0.00000505981360     0.00006649511261     0.00007819878296     0.00018433380813     0.00057905223644
   58     0.00008241891078     0.00166384904249     0.00148950284106     0.00373188008342     0.01105046410887
   59     0.00000127394815     0.00000572219711     0.00001387677464     0.00006939144026     0.00007656755563
   60     0.00000180483608     0.00001446869329     0.00001300539055     0.00002789526921     0.00006496912058
   61     0.00000055622308     0.00000533954434     0.00000441793907     0.00001528385224     0.00004668407731
[...]
   15     0.00000034317601     0.00000010856365     0.00000034149472     0.00000001375910     0.00000001027172
   16     0.00000017244393     0.00000005612426     0.00000012129308     0.00000000812665     0.00000000489700
   17     0.00000080934937     0.00000022794015     0.00000157421325     0.00000005056338     0.00000011322596
   18     0.00000084538163     0.00000030107422     0.00000317329391     0.00000006651428     0.00000022871785
   19     0.00000079645226     0.00000022711699     0.00000094435131     0.00000002675442     0.00000001632550
   20     0.00000690553918     0.00000182699000     0.00001868492194     0.00000035717488     0.00000018742092
   21     0.00001392791995     0.00000505981360     0.00008241891078     0.00000127394815     0.00000180483608
   22     0.00010439036863     0.00006649511261     0.00166384904249     0.00000572219711     0.00001446869329
   23     0.00029061584783     0.00007819878296     0.00148950284106     0.00001387677464     0.00001300539055
   24     0.00042565688358     0.00018433380813     0.00373188008342     0.00006939144026     0.00002789526921
   25     0.00104954347346     0.00057905223644     0.01105046410887     0.00007656755563     0.00006496912058
   26     0.00086037528140     0.00030411832010     0.01594257302163     0.00004491740579     0.00005947605888
   27     0.00070714791143     0.00011113455208     0.00591046333712     0.00001507668601     0.00002888377729
   28     0.01174152389422     0.00073083283752     0.00532571187655     0.00022047297892     0.00004814277647
   29     0.05804096303175     0.01075003627893     0.00977454927834     0.00103808578839     0.00013944458176
   30     0.79235595721941     0.04789505458457     0.03503097310090     0.00812513479752     0.00218887950298
   31     0.04331840783968     0.83064625238931     0.78316391781597     0.01277198639637     0.01547111077384
   32     0.01156829101995     0.04448480606614     0.05051129963267     0.04918451300393     0.04757324395209
   33     0.01258130288924     0.02025164325126     0.01017978556058     0.89192978123403     0.90384311738100
   34     0.00703956135607     0.01283209192538     0.01455890198414     0.01310711716861     0.01038354346294
   35     0.02005977445104     0.00126205693802     0.00509041832082     0.00793055274527     0.00094650445829
   36     0.00000456528907     0.00000411244802     0.00003515168672     0.00000032875463     0.00000040993314
   37     0.00000004540691     0.00000000786973     0.00000002974877     0.00000000178540     0.00000000561208
   38     0.00000007356006     0.00000002393426     0.00000001734528     0.00000000827256     0.00000000094894
   39     0.00000006475582     0.00000000241850     0.00000002644296     0.00000000367077     0.00000000492165
   40     0.00000016155894     0.00000001588139     0.00000078864794     0.00000003085878     0.00000000616105
   41     0.00000014890867     0.00000045972836     0.00000017734179     0.00000009078679     0.00000002346927
   42     0.00000000398393     0.00000000301327     0.00000000163994     0.00000000030013     0.00000000015966
   43     0.00000000055389     0.00000000037350     0.00000000115390     0.00000000005267     0.00000000005549
   44     0.00000000138416     0.00000000124275     0.00000000174935     0.00000000011914     0.00000000028578
   45     0.00000000316172     0.00000000492419     0.00000000667518     0.00000000049474     0.00000000018646
   46     0.00000010845721     0.00000000938705     0.00000004115116     0.00000001133439     0.00000000809951
   47     0.00000004983449     0.00000001715509     0.00000003498246     0.00000000209555     0.00000000092148
   48     0.00000237110503     0.00000010189568     0.00000302507827     0.00000028479517     0.00000002252119
   49     0.00000780073193     0.00000410026306     0.00000070155866     0.00000015454679     0.00000003002054
   50     0.00003874508194     0.00001846711564     0.00004755525641     0.00001759126532     0.00000274867884
   51     0.00001561809045     0.00003672508416     0.00084962955341     0.00001122953735     0.00000153799663
   52     0.00000110148670     0.00001164766830     0.00014470778177     0.00000040384307     0.00000023831614
   53     0.00038438325018     0.00023098750998     0.00004713654080     0.00002392278825     0.00000685651214
   54     0.00045205155298     0.00009780569647     0.00036243436988     0.00004103614865     0.00000521408166
   55     0.00678368851689     0.00179170087796     0.00312569024383     0.00014692055344     0.00001737127269
   56     0.00000000000000     0.00431951548228     0.01615748433946     0.00159880980734     0.00025366204435
   57     0.00431951548228     0.00000000000000     0.00697563041455     0.00107556121245     0.00213229174453
   58     0.01615748433946     0.00697563041455     0.00000000000000     0.00008835581156     0.00060598341526
   59     0.00159880980734     0.00107556121245     0.00008835581156     0.00000000000000     0.00740218837325
   60     0.00025366204435     0.00213229174453     0.00060598341526     0.00740218837325     0.00000000000000
   61     0.00008154271038     0.00064061429654     0.00014870166099     0.00744351693533     0.00938094018282
   62     0.00002901214778     0.00054840550062     0.00039655030395     0.00097018382510     0.00056272070882
   63     0.00009713975117     0.00062802533331     0.00083782875544     0.00011811153658     0.00015566897313
   64     0.00110317223915     0.00006903136959     0.00009486112827     0.00131802699847     0.00007698370574
   65     0.00093011788197     0.00065584846253     0.00008358363513     0.00009907196987     0.00021479022257
   66     0.00000000034445     0.00000000430297     0.00000001414612     0.00000000053627     0.00000000037685
   67     0.00000000068868     0.00000000360796     0.00000000329924     0.00000000033556     0.00000000037041
   68     0.00000000239826     0.00000000058109     0.00000000295170     0.00000000012190     0.00000000029566

                61                  62                  63                  64                  65

    1     0.00000016789767     0.00000046517643     0.00000234904615     0.00000177540154     0.00000016255249
    2     0.00000009315454     0.00000010588631     0.00000087871114     0.00000074619731     0.00000011865487
    3     0.00000008813994     0.00000009361958     0.00000062896444     0.00000059579329     0.00000009815020
    4     0.00000042189993     0.00000048974225     0.00000686204412     0.00000680646691     0.00000023659689
    5     0.00000048091722     0.00000171038877     0.00000903390141     0.00000714178731     0.00000107335539
    6     0.00000387642098     0.00000655033090     0.00002553924275     0.00001788716538     0.00000181534304
    7     0.00000003032033     0.00000002229575     0.00000018870185     0.00000008242633     0.00000001606163
    8     0.00000000542519     0.00000002300170     0.00000007786248     0.00000005471426     0.00000003508293
    9     0.00000000162282     0.00000000126247     0.00000001662248     0.00000001645402     0.00000000206835
   10     0.00000000047412     0.00000000209156     0.00000001324606     0.00000000989336     0.00000000326892
   11     0.00000000381091     0.00000000598942     0.00000003624780     0.00000003899460     0.00000000297437
   12     0.00000000412554     0.00000001043869     0.00000005576542     0.00000004066605     0.00000000817304
   13     0.00000000056279     0.00000000284643     0.00000002491078     0.00000001533371     0.00000000431219
   14     0.00000000599339     0.00000001547829     0.00000008100579     0.00000007347142     0.00000002481577
   15     0.00000002255669     0.00000002779114     0.00000019509062     0.00000031878852     0.00000006298965
   16     0.00000000536647     0.00000001255167     0.00000024441199     0.00000018241889     0.00000002182656
   17     0.00000008924010     0.00000004486232     0.00000089638372     0.00000104182460     0.00000014791505
   18     0.00000014369193     0.00000028453243     0.00000230573165     0.00000360402061     0.00000034226790
   19     0.00000003217491     0.00000005747327     0.00000108591257     0.00000122036430     0.00000028383478
   20     0.00000033092610     0.00000053261512     0.00001214536887     0.00001345420795     0.00000124466281
   21     0.00000055622308     0.00000170385064     0.00002590968865     0.00002756508749     0.00000403363024
   22     0.00000533954434     0.00000977833909     0.00009386293477     0.00022656494955     0.00001817490993
   23     0.00000441793907     0.00000958634639     0.00009906576236     0.00013904617502     0.00004267788962
   24     0.00001528385224     0.00003885677648     0.00029026373418     0.00050074870401     0.00023878968336
   25     0.00004668407731     0.00015356133931     0.00441024868022     0.00182468502288     0.00141933358497
   26     0.00006971847326     0.00025666627877     0.01015937654687     0.00101169314161     0.00026283474915
   27     0.00000747909999     0.00002673579926     0.00091336361011     0.00019501660156     0.00002436434753
   28     0.00008203578059     0.00080059937830     0.00941833429036     0.01090864549706     0.02227008809755
   29     0.00012189980789     0.00953990303074     0.01224902501398     0.05390240677860     0.04511799664596
   30     0.00100477498713     0.00140875303241     0.00696910708096     0.01887417758995     0.01276724740361
   31     0.01050028637505     0.01158535987447     0.01743105844588     0.00664093335813     0.00118134544199
   32     0.04779552182249     0.04394075824036     0.05654253943121     0.01081486434011     0.01106919953163
   33     0.90396797930433     0.01715457980288     0.01196298998321     0.01096597769689     0.00089876602417
   34     0.01467061732720     0.84467877787368     0.78457321062586     0.04035657383526     0.04756784385933
   35     0.00225604889810     0.04435403309676     0.04164152306434     0.79740230784056     0.82677362379206
   36     0.00000020664763     0.00000038009928     0.00000788113952     0.00001676074836     0.00000113317699
   37     0.00000000643563     0.00000000965506     0.00000002013274     0.00000002734990     0.00000000597255
   38     0.00000000123113     0.00000000118480     0.00000000124831     0.00000000371746     0.00000000613137
   39     0.00000000111134     0.00000000629582     0.00000004495997     0.00000002209707     0.00000000591317
   40     0.00000000502481     0.00000000260278     0.00000007159619     0.00000003867397     0.00000000271437
   41     0.00000003690355     0.00000005254664     0.00000021392834     0.00000010943844     0.00000006051112
   42     0.00000000088229     0.00000000050548     0.00000000140212     0.00000000092841     0.00000000044572
   43     0.00000000002125     0.00000000018448     0.00000000135557     0.00000000075333     0.00000000028023
   44     0.00000000026552     0.00000000016191     0.00000000211119     0.00000000485868     0.00000000024769
   45     0.00000000127541     0.00000000205957     0.00000001923441     0.00000000470725     0.00000000036625
   46     0.00000000628170     0.00000000306426     0.00000010748790     0.00000003669384     0.00000004424534
   47     0.00000000102438     0.00000000782537     0.00000004140165     0.00000010788994     0.00000000539232
   48     0.00000004421332     0.00000016367935     0.00000173269689     0.00000260079028     0.00000020775071
   49     0.00000016828048     0.00000008130552     0.00000701386340     0.00000774879050     0.00000428237132
   50     0.00000127416002     0.00000214760496     0.00004850333782     0.00009758770726     0.00006099962279
   51     0.00001313808159     0.00008176499336     0.00135051170618     0.00016588228837     0.00009782719074
   52     0.00000016738268     0.00000136677800     0.00001092709912     0.00000659375295     0.00000155666612
   53     0.00000655033235     0.00021655033909     0.00003502436622     0.00019914283410     0.00006089801928
   54     0.00001109363915     0.00014804784019     0.00065172568507     0.00034656585155     0.00311059985835
   55     0.00012612775285     0.00027598790204     0.00004895256871     0.00025077631192     0.00049838954686
   56     0.00008154271038     0.00002901214778     0.00009713975117     0.00110317223915     0.00093011788197
   57     0.00064061429654     0.00054840550062     0.00062802533331     0.00006903136959     0.00065584846253
   58     0.00014870166099     0.00039655030395     0.00083782875544     0.00009486112827     0.00008358363513
   59     0.00744351693533     0.00097018382510     0.00011811153658     0.00131802699847     0.00009907196987
   60     0.00938094018282     0.00056272070882     0.00015566897313     0.00007698370574     0.00021479022257
   61     0.00000000000000     0.00178980599561     0.00075349739849     0.00023055768545     0.00004200783008
   62     0.00178980599561     0.00000000000000     0.00660084839981     0.00324721241646     0.00173717961512
   63     0.00075349739849     0.00660084839981     0.00000000000000     0.01853477965533     0.00419853190534
   64     0.00023055768545     0.00324721241646     0.01853477965533     0.00000000000000     0.00723254400417
   65     0.00004200783008     0.00173717961512     0.00419853190534     0.00723254400417     0.00000000000000
   66     0.00000000007513     0.00000000029268     0.00000000496503     0.00000001903889     0.00000000063157
   67     0.00000000076024     0.00000000072139     0.00000000043895     0.00000000880080     0.00000000191551
   68     0.00000000046076     0.00000000008019     0.00000000127297     0.00000000128782     0.00000000155588

                66                  67                  68

    1     0.00000077956462     0.00000070820979     0.00000032066698
    2     0.00000149698611     0.00000139577213     0.00000078246054
    3     0.00001078031381     0.00000616343369     0.00000415224020
    4     0.00000860325942     0.00000962701688     0.00000857517947
    5     0.00000061782585     0.00000044404905     0.00000042713189
    6     0.00000029575001     0.00000038677669     0.00000019686603
    7     0.00003420737358     0.00002766438249     0.00001452347379
    8     0.00006149093042     0.00009473987732     0.00000465969399
    9     0.00001864739745     0.00001641359685     0.00000354561057
   10     0.00010706188841     0.00014773607627     0.00003206626086
   11     0.00064637643143     0.00073486966260     0.00019226390273
   12     0.00019221934875     0.00021043105238     0.00006117993155
   13     0.00736769921826     0.00778408795300     0.00163038227209
   14     0.01387225262708     0.01374620352728     0.00680553661982
   15     0.04144104584667     0.04198644291992     0.04513585726471
   16     0.01273345606780     0.01280010537337     0.01949943638654
   17     0.00085882029827     0.00082143171085     0.00142128361877
   18     0.00279906317862     0.00273151131706     0.00033688045387
   19     0.00079586389492     0.00086158251414     0.00073145601265
   20     0.00036424397819     0.00033621137463     0.00006846414855
   21     0.00020817646714     0.00020102771960     0.00002685064077
   22     0.00001036139935     0.00001616278189     0.00000769277148
   23     0.00001538476610     0.00001550829741     0.00000317097157
   24     0.00000152007177     0.00000185293361     0.00000042792858
   25     0.00000605518854     0.00000583733756     0.00000026367729
   26     0.00000116975964     0.00000131947362     0.00000039643299
   27     0.00001085818207     0.00001281232273     0.00000163818508
   28     0.00000049404240     0.00000046541928     0.00000005428388
   29     0.00000028352216     0.00000029915282     0.00000001009934
   30     0.00000007228702     0.00000009739898     0.00000001905193
   31     0.00000002523536     0.00000008464947     0.00000002102862
   32     0.00000000867317     0.00000001013708     0.00000000320699
   33     0.00000000400290     0.00000000282997     0.00000000254101
   34     0.00000000758072     0.00000001009560     0.00000000388589
   35     0.00000003204088     0.00000005422931     0.00000001118007
   36     0.00012076618911     0.00012355854910     0.00001334258117
   37     0.89908033041876     0.89802176721621     0.90344706836544
   38     0.00000008071875     0.00000007817040     0.00000001863882
   39     0.00000014021376     0.00000003663926     0.00000007005425
   40     0.00000130710073     0.00000583017297     0.00000334471407
   41     0.00000005445589     0.00000001177969     0.00000005188866
   42     0.00000026341541     0.00000079051970     0.00000008637310
   43     0.00000064891490     0.00000069197146     0.00000021611887
   44     0.00140724891982     0.00110601507309     0.00043278670285
   45     0.00011276653050     0.00009231094279     0.00219507325379
   46     0.00013797425522     0.00013541372034     0.00003010233978
   47     0.00007047610942     0.00007074933761     0.00025842771183
   48     0.00000719837540     0.00000898806720     0.00001739621728
   49     0.00000377003736     0.00000192535346     0.00000010086676
   50     0.00000002973326     0.00000006031915     0.00000003392665
   51     0.00000023884859     0.00000005685690     0.00000004143089
   52     0.00000056051809     0.00000011194525     0.00000017366975
   53     0.00000003353030     0.00000006661343     0.00000000967197
   54     0.00000006216571     0.00000010052506     0.00000000704969
   55     0.00000000637163     0.00000000754866     0.00000000023359
   56     0.00000000034445     0.00000000068868     0.00000000239826
   57     0.00000000430297     0.00000000360796     0.00000000058109
   58     0.00000001414612     0.00000000329924     0.00000000295170
   59     0.00000000053627     0.00000000033556     0.00000000012190
   60     0.00000000037685     0.00000000037041     0.00000000029566
   61     0.00000000007513     0.00000000076024     0.00000000046076
   62     0.00000000029268     0.00000000072139     0.00000000008019
   63     0.00000000496503     0.00000000043895     0.00000000127297
   64     0.00000001903889     0.00000000880080     0.00000000128782
   65     0.00000000063157     0.00000000191551     0.00000000155588
   66     0.00000000000000     0.00692290124028     0.00910878661632
   67     0.00692290124028     0.00000000000000     0.00919150855052
   68     0.00910878661632     0.00919150855052     0.00000000000000



  Atomic Valences: 

 #  #
 Irrep: 1
      1:  4.4067591
      2:  4.4404619
      3:  4.6226451
      4:  4.5962436
      5:  3.9185667
      6:  4.5603243
      7:  4.7579572
      8:  4.3779019
      9:  4.5345497
     10:  3.8665557
     11:  5.0203968
     12:  3.9592948
     13:  3.9649306
     14:  4.6850191
     15:  4.6498320
     16:  4.4560959
     17:  4.4150251
     18:  4.6923033
     19:  4.4426911
     20:  4.0124096
     21:  5.0207172
     22:  4.6388594
     23:  4.4749266
     24:  4.4903285
     25:  4.7362004
     26:  4.5052741
     27:  4.4542733
     28:  4.5329709
     29:  4.2497216
     30:  4.6051288
     31:  4.5959797
     32:  4.2487492
     33:  4.3050379
     34:  4.6105416
     35:  4.5998087
     36:  2.7515115
     37:  4.1579071
     38:  0.9886830
     39:  0.9887383
     40:  0.9909500
     41:  0.9894027
     42:  0.9880001
     43:  0.9887356
     44:  0.9340475
     45:  0.9903440
     46:  0.9825172
     47:  0.9931705
     48:  0.9439492
     49:  0.9896257
     50:  0.9863449
     51:  0.9899149
     52:  0.9821997
     53:  0.9941627
     54:  0.9957388
     55:  1.0017916
     56:  0.9924667
     57:  0.9894318
     58:  0.9835751
     59:  1.0048942
     60:  1.0016267
     61:  1.0012245
     62:  0.9905786
     63:  0.9909298
     64:  0.9868475
     65:  0.9886917
     66:  0.9985452
     67:  0.9982567
     68:  1.0006912


    Psi4 stopped on: Friday, 24 April 2020 12:16PM
    Psi4 wall time for execution: 0:16:04.98

*** Psi4 exiting successfully. Buy a developer a beer!
