 Entering Gaussian System, Link 0=g09
 Input=MOLECULE0-opt-25-28-29-35-352.com
 Output=MOLECULE0-opt-25-28-29-35-352.log
 Initial command:
 /opt/g09gh/gaussian/g09/l1.exe /scratch/bdw2292/Gau-MOLECULE0/Gau-56805.inp -scrdir=/scratch/bdw2292/Gau-MOLECULE0/
 Entering Link 1 = /opt/g09gh/gaussian/g09/l1.exe PID=     56806.
  
 Copyright (c) 1988,1990,1992,1993,1995,1998,2003,2009, Gaussian, Inc.
                  All Rights Reserved.
  
 This is part of the Gaussian(R) 09 program.  It is based on
 the Gaussian(R) 03 system (copyright 2003, Gaussian, Inc.),
 the Gaussian(R) 98 system (copyright 1998, Gaussian, Inc.),
 the Gaussian(R) 94 system (copyright 1995, Gaussian, Inc.),
 the Gaussian 92(TM) system (copyright 1992, Gaussian, Inc.),
 the Gaussian 90(TM) system (copyright 1990, Gaussian, Inc.),
 the Gaussian 88(TM) system (copyright 1988, Gaussian, Inc.),
 the Gaussian 86(TM) system (copyright 1986, Carnegie Mellon
 University), and the Gaussian 82(TM) system (copyright 1983,
 Carnegie Mellon University). Gaussian is a federally registered
 trademark of Gaussian, Inc.
  
 This software contains proprietary and confidential information,
 including trade secrets, belonging to Gaussian, Inc.
  
 This software is provided under written license and may be
 used, copied, transmitted, or stored only in accord with that
 written license.
  
 The following legend is applicable only to US Government
 contracts under FAR:
  
                    RESTRICTED RIGHTS LEGEND
  
 Use, reproduction and disclosure by the US Government is
 subject to restrictions as set forth in subparagraphs (a)
 and (c) of the Commercial Computer Software - Restricted
 Rights clause in FAR 52.227-19.
  
 Gaussian, Inc.
 340 Quinnipiac St., Bldg. 40, Wallingford CT 06492
  
  
 ---------------------------------------------------------------
 Warning -- This program may not be used in any manner that
 competes with the business of Gaussian, Inc. or will provide
 assistance to any competitor of Gaussian, Inc.  The licensee
 of this program is prohibited from giving any competitor of
 Gaussian, Inc. access to this program.  By using this program,
 the user acknowledges that Gaussian, Inc. is engaged in the
 business of creating and licensing software in the field of
 computational chemistry and represents and warrants to the
 licensee that it is not a competitor of Gaussian, Inc. and that
 it will not use this program in any manner prohibited above.
 ---------------------------------------------------------------
  

 Cite this work as:
 Gaussian 09, Revision A.02,
 M. J. Frisch, G. W. Trucks, H. B. Schlegel, G. E. Scuseria, 
 M. A. Robb, J. R. Cheeseman, G. Scalmani, V. Barone, B. Mennucci, 
 G. A. Petersson, H. Nakatsuji, M. Caricato, X. Li, H. P. Hratchian, 
 A. F. Izmaylov, J. Bloino, G. Zheng, J. L. Sonnenberg, M. Hada, 
 M. Ehara, K. Toyota, R. Fukuda, J. Hasegawa, M. Ishida, T. Nakajima, 
 Y. Honda, O. Kitao, H. Nakai, T. Vreven, J. A. Montgomery, Jr., 
 J. E. Peralta, F. Ogliaro, M. Bearpark, J. J. Heyd, E. Brothers, 
 K. N. Kudin, V. N. Staroverov, R. Kobayashi, J. Normand, 
 K. Raghavachari, A. Rendell, J. C. Burant, S. S. Iyengar, J. Tomasi, 
 M. Cossi, N. Rega, J. M. Millam, M. Klene, J. E. Knox, J. B. Cross, 
 V. Bakken, C. Adamo, J. Jaramillo, R. Gomperts, R. E. Stratmann, 
 O. Yazyev, A. J. Austin, R. Cammi, C. Pomelli, J. W. Ochterski, 
 R. L. Martin, K. Morokuma, V. G. Zakrzewski, G. A. Voth, 
 P. Salvador, J. J. Dannenberg, S. Dapprich, A. D. Daniels, 
 O. Farkas, J. B. Foresman, J. V. Ortiz, J. Cioslowski, 
 and D. J. Fox, Gaussian, Inc., Wallingford CT, 2009.
 
 ******************************************
 Gaussian 09:  EM64L-G09RevA.02 11-Jun-2009
                 8-Apr-2020 
 ******************************************
 %RWF=/scratch/bdw2292/Gau-MOLECULE0/,100GB
 %Nosave
 %Chk=MOLECULE0-opt-25-28-29-35-352.chk
 %Mem=20GB
 %Nproc=6
 Will use up to    6 processors via shared memory.
 --------------------------------------------------
 #P opt=(,maxcycle=400) wB97XD/6-31G* MaxDisk=100GB
 --------------------------------------------------
 1/6=400,14=-1,18=20,19=15,26=3,38=1/1,3;
 2/9=110,12=2,17=6,18=5,40=1/2;
 3/5=1,6=6,7=1,11=2,16=1,25=1,30=1,71=1,74=-58/1,2,3;
 4//1;
 5/5=2,38=5/2;
 6/7=2,8=2,9=2,10=2,28=1/1;
 7//1,2,3,16;
 1/6=400,14=-1,18=20,19=15/3(2);
 2/9=110/2;
 99//99;
 2/9=110/2;
 3/5=1,6=6,7=1,11=2,16=1,25=1,30=1,71=1,74=-58/1,2,3;
 4/5=5,16=3/1;
 5/5=2,38=5/2;
 7//1,2,3,16;
 1/6=400,14=-1,18=20,19=15/3(-5);
 2/9=110/2;
 6/7=2,8=2,9=2,10=2,19=2,28=1/1;
 99/9=1/99;
 Leave Link    1 at Wed Apr  8 22:20:55 2020, MaxMem= 2684354560 cpu:       0.5
 (Enter /opt/g09gh/gaussian/g09/l101.exe)
 --------------------------------------------------------------
 MOLECULE0 Rotatable Bond Optimization on node37.bme.utexas.edu
 --------------------------------------------------------------
 Symbolic Z-matrix:
 Charge =  0 Multiplicity = 1
 C                    -1.03046   2.30154   4.69331 
 C                     0.32443   2.06905   4.97063 
 C                     1.08605   1.24957   4.11442 
 C                     0.39672   0.74321   2.98509 
 N                    -0.89255   0.95453   2.6988 
 C                    -1.59458   1.71573   3.55341 
 C                     2.53214   0.89082   4.35994 
 C                     3.33004   1.36624   5.41254 
 C                     4.64031   0.87432   5.45042 
 N                     5.14511  -0.00073   4.584 
 C                     4.30315  -0.41598   3.61452 
 N                     3.04426   0.00851   3.48038 
 N                     4.81811  -1.34787   2.72085 
 C                     4.28068  -1.97066   1.53345 
 C                     5.15481  -2.61616   0.60691 
 C                     4.56738  -3.20344  -0.52856 
 C                     3.19345  -3.17965  -0.80342 
 C                     2.35673  -2.53589   0.11196 
 C                     2.90803  -1.96275   1.26539 
 N                     0.95369  -2.35456  -0.00368 
 C                    -0.06198  -3.22153  -0.31853 
 C                    -1.41889  -2.6071   -0.60633 
 C                    -1.57845  -1.36955  -1.25196 
 C                    -2.85242  -0.83929  -1.46445 
 C                    -4.00946  -1.52452  -1.05027 
 C                    -3.83531  -2.76489  -0.40594 
 C                    -2.56561  -3.31374  -0.20963 
 C                    -5.39829  -0.91418  -1.24173 
 N                    -5.92552   0.05428  -0.26459 
 C                    -5.39543   1.43801  -0.26394 
 C                    -4.3267    1.75265   0.81364 
 N                    -4.69609   1.36887   2.19409 
 C                    -5.60524   2.2764    2.90656 
 C                    -5.09544  -0.05992   2.17313 
 C                    -6.18267  -0.40143   1.12063 
 O                     0.09074  -4.4303   -0.34662 
 C                     6.65992  -2.69003   0.79579 
 H                    -1.64284   2.91111   5.351 
 H                     0.74988   2.50999   5.86889 
 H                     0.92175   0.13122   2.26232 
 H                    -2.64671   1.8561    3.31486 
 H                     2.98824   2.07047   6.16091 
 H                     5.3246    1.20086   6.23326 
 H                     5.78636  -1.53064   2.93804 
 H                     5.20562  -3.70542  -1.25507 
 H                     2.7828   -3.63423  -1.69659 
 H                     2.25022  -1.48947   1.97498 
 H                     0.67958  -1.38688   0.1009 
 H                    -0.70045  -0.82292  -1.58656 
 H                    -2.94068   0.12835  -1.95847 
 H                    -4.70308  -3.32625  -0.06066 
 H                    -2.43954  -4.27558   0.28135 
 H                    -5.42005  -0.41778  -2.2232 
 H                    -6.12743  -1.73629  -1.2861 
 H                    -5.07571   1.71903  -1.23861 
 H                    -6.61945   2.38234   0.09425 
 H                    -4.04245   3.11772   0.78329 
 H                    -3.09377   1.018     0.47866 
 H                    -6.58509   2.32006   2.41823 
 H                    -5.18143   3.28674   2.9368 
 H                    -5.74128   1.9383    3.94034 
 H                    -5.36977  -0.3734    3.15636 
 H                    -3.80762  -0.8803    1.75556 
 H                    -7.47612   0.2893    1.59679 
 H                    -6.40756  -1.7624    1.13702 
 H                     6.92234  -3.2661    1.69435 
 H                     7.10198  -1.68957   0.90393 
 H                     7.17487  -3.17063  -0.04743 
 
 NAtoms=     68 NQM=     68 NQMF=      0 NMic=      0 NMicF=      0 NTot=     68.
                    Isotopes and Nuclear Properties:
 (Nuclear quadrupole moments (NQMom) in fm**2, nuclear magnetic moments (NMagM)
  in nuclear magnetons)

  Atom         1           2           3           4           5           6           7           8           9          10
 IAtWgt=          12          12          12          12          14          12          12          12          12          14
 AtmWgt=  12.0000000  12.0000000  12.0000000  12.0000000  14.0030740  12.0000000  12.0000000  12.0000000  12.0000000  14.0030740
 NucSpn=           0           0           0           0           2           0           0           0           0           2
 AtZEff=   0.0000000   0.0000000   0.0000000   0.0000000   0.0000000   0.0000000   0.0000000   0.0000000   0.0000000   0.0000000
 NQMom=    0.0000000   0.0000000   0.0000000   0.0000000   2.0440000   0.0000000   0.0000000   0.0000000   0.0000000   2.0440000
 NMagM=    0.0000000   0.0000000   0.0000000   0.0000000   0.4037610   0.0000000   0.0000000   0.0000000   0.0000000   0.4037610

  Atom        11          12          13          14          15          16          17          18          19          20
 IAtWgt=          12          14          14          12          12          12          12          12          12          14
 AtmWgt=  12.0000000  14.0030740  14.0030740  12.0000000  12.0000000  12.0000000  12.0000000  12.0000000  12.0000000  14.0030740
 NucSpn=           0           2           2           0           0           0           0           0           0           2
 AtZEff=   0.0000000   0.0000000   0.0000000   0.0000000   0.0000000   0.0000000   0.0000000   0.0000000   0.0000000   0.0000000
 NQMom=    0.0000000   2.0440000   2.0440000   0.0000000   0.0000000   0.0000000   0.0000000   0.0000000   0.0000000   2.0440000
 NMagM=    0.0000000   0.4037610   0.4037610   0.0000000   0.0000000   0.0000000   0.0000000   0.0000000   0.0000000   0.4037610

  Atom        21          22          23          24          25          26          27          28          29          30
 IAtWgt=          12          12          12          12          12          12          12          12          14          12
 AtmWgt=  12.0000000  12.0000000  12.0000000  12.0000000  12.0000000  12.0000000  12.0000000  12.0000000  14.0030740  12.0000000
 NucSpn=           0           0           0           0           0           0           0           0           2           0
 AtZEff=   0.0000000   0.0000000   0.0000000   0.0000000   0.0000000   0.0000000   0.0000000   0.0000000   0.0000000   0.0000000
 NQMom=    0.0000000   0.0000000   0.0000000   0.0000000   0.0000000   0.0000000   0.0000000   0.0000000   2.0440000   0.0000000
 NMagM=    0.0000000   0.0000000   0.0000000   0.0000000   0.0000000   0.0000000   0.0000000   0.0000000   0.4037610   0.0000000

  Atom        31          32          33          34          35          36          37          38          39          40
 IAtWgt=          12          14          12          12          12          16          12           1           1           1
 AtmWgt=  12.0000000  14.0030740  12.0000000  12.0000000  12.0000000  15.9949146  12.0000000   1.0078250   1.0078250   1.0078250
 NucSpn=           0           2           0           0           0           0           0           1           1           1
 AtZEff=   0.0000000   0.0000000   0.0000000   0.0000000   0.0000000   0.0000000   0.0000000   0.0000000   0.0000000   0.0000000
 NQMom=    0.0000000   2.0440000   0.0000000   0.0000000   0.0000000   0.0000000   0.0000000   0.0000000   0.0000000   0.0000000
 NMagM=    0.0000000   0.4037610   0.0000000   0.0000000   0.0000000   0.0000000   0.0000000   2.7928460   2.7928460   2.7928460

  Atom        41          42          43          44          45          46          47          48          49          50
 IAtWgt=           1           1           1           1           1           1           1           1           1           1
 AtmWgt=   1.0078250   1.0078250   1.0078250   1.0078250   1.0078250   1.0078250   1.0078250   1.0078250   1.0078250   1.0078250
 NucSpn=           1           1           1           1           1           1           1           1           1           1
 AtZEff=   0.0000000   0.0000000   0.0000000   0.0000000   0.0000000   0.0000000   0.0000000   0.0000000   0.0000000   0.0000000
 NQMom=    0.0000000   0.0000000   0.0000000   0.0000000   0.0000000   0.0000000   0.0000000   0.0000000   0.0000000   0.0000000
 NMagM=    2.7928460   2.7928460   2.7928460   2.7928460   2.7928460   2.7928460   2.7928460   2.7928460   2.7928460   2.7928460

  Atom        51          52          53          54          55          56          57          58          59          60
 IAtWgt=           1           1           1           1           1           1           1           1           1           1
 AtmWgt=   1.0078250   1.0078250   1.0078250   1.0078250   1.0078250   1.0078250   1.0078250   1.0078250   1.0078250   1.0078250
 NucSpn=           1           1           1           1           1           1           1           1           1           1
 AtZEff=   0.0000000   0.0000000   0.0000000   0.0000000   0.0000000   0.0000000   0.0000000   0.0000000   0.0000000   0.0000000
 NQMom=    0.0000000   0.0000000   0.0000000   0.0000000   0.0000000   0.0000000   0.0000000   0.0000000   0.0000000   0.0000000
 NMagM=    2.7928460   2.7928460   2.7928460   2.7928460   2.7928460   2.7928460   2.7928460   2.7928460   2.7928460   2.7928460

  Atom        61          62          63          64          65          66          67          68
 IAtWgt=           1           1           1           1           1           1           1           1
 AtmWgt=   1.0078250   1.0078250   1.0078250   1.0078250   1.0078250   1.0078250   1.0078250   1.0078250
 NucSpn=           1           1           1           1           1           1           1           1
 AtZEff=   0.0000000   0.0000000   0.0000000   0.0000000   0.0000000   0.0000000   0.0000000   0.0000000
 NQMom=    0.0000000   0.0000000   0.0000000   0.0000000   0.0000000   0.0000000   0.0000000   0.0000000
 NMagM=    2.7928460   2.7928460   2.7928460   2.7928460   2.7928460   2.7928460   2.7928460   2.7928460
 Leave Link  101 at Wed Apr  8 22:20:55 2020, MaxMem= 2684354560 cpu:       0.5
 (Enter /opt/g09gh/gaussian/g09/l103.exe)

 GradGradGradGradGradGradGradGradGradGradGradGradGradGradGradGradGradGrad
 Berny optimization.
 Initialization pass.
                           ----------------------------
                           !    Initial Parameters    !
                           ! (Angstroms and Degrees)  !
 --------------------------                            --------------------------
 ! Name  Definition              Value          Derivative Info.                !
 --------------------------------------------------------------------------------
 ! R1    R(1,2)                  1.4024         estimate D2E/DX2                !
 ! R2    R(1,6)                  1.4003         estimate D2E/DX2                !
 ! R3    R(1,38)                 1.0859         estimate D2E/DX2                !
 ! R4    R(2,3)                  1.4088         estimate D2E/DX2                !
 ! R5    R(2,39)                 1.0873         estimate D2E/DX2                !
 ! R6    R(3,4)                  1.4167         estimate D2E/DX2                !
 ! R7    R(3,7)                  1.51           estimate D2E/DX2                !
 ! R8    R(4,5)                  1.3375         estimate D2E/DX2                !
 ! R9    R(4,40)                 1.0829         estimate D2E/DX2                !
 ! R10   R(5,6)                  1.3426         estimate D2E/DX2                !
 ! R11   R(6,41)                 1.0879         estimate D2E/DX2                !
 ! R12   R(7,8)                  1.4038         estimate D2E/DX2                !
 ! R13   R(7,12)                 1.347          estimate D2E/DX2                !
 ! R14   R(8,9)                  1.4001         estimate D2E/DX2                !
 ! R15   R(8,42)                 1.083          estimate D2E/DX2                !
 ! R16   R(9,10)                 1.3309         estimate D2E/DX2                !
 ! R17   R(9,43)                 1.0898         estimate D2E/DX2                !
 ! R18   R(10,11)                1.3495         estimate D2E/DX2                !
 ! R19   R(11,12)                1.3353         estimate D2E/DX2                !
 ! R20   R(11,13)                1.3901         estimate D2E/DX2                !
 ! R21   R(13,14)                1.4445         estimate D2E/DX2                !
 ! R22   R(13,44)                1.009          estimate D2E/DX2                !
 ! R23   R(14,15)                1.428          estimate D2E/DX2                !
 ! R24   R(14,19)                1.3986         estimate D2E/DX2                !
 ! R25   R(15,16)                1.4069         estimate D2E/DX2                !
 ! R26   R(15,37)                1.5187         estimate D2E/DX2                !
 ! R27   R(16,17)                1.4013         estimate D2E/DX2                !
 ! R28   R(16,45)                1.0896         estimate D2E/DX2                !
 ! R29   R(17,18)                1.3973         estimate D2E/DX2                !
 ! R30   R(17,46)                1.0831         estimate D2E/DX2                !
 ! R31   R(18,19)                1.401          estimate D2E/DX2                !
 ! R32   R(18,20)                1.4194         estimate D2E/DX2                !
 ! R33   R(19,47)                1.0771         estimate D2E/DX2                !
 ! R34   R(20,21)                1.372          estimate D2E/DX2                !
 ! R35   R(20,48)                1.0112         estimate D2E/DX2                !
 ! R36   R(21,22)                1.5171         estimate D2E/DX2                !
 ! R37   R(21,36)                1.2187         estimate D2E/DX2                !
 ! R38   R(22,23)                1.4049         estimate D2E/DX2                !
 ! R39   R(22,27)                1.4042         estimate D2E/DX2                !
 ! R40   R(23,24)                1.3962         estimate D2E/DX2                !
 ! R41   R(23,49)                1.087          estimate D2E/DX2                !
 ! R42   R(24,25)                1.4071         estimate D2E/DX2                !
 ! R43   R(24,50)                1.09           estimate D2E/DX2                !
 ! R44   R(25,26)                1.4085         estimate D2E/DX2                !
 ! R45   R(25,28)                1.5291         estimate D2E/DX2                !
 ! R46   R(26,27)                1.3971         estimate D2E/DX2                !
 ! R47   R(26,51)                1.0897         estimate D2E/DX2                !
 ! R48   R(27,52)                1.0872         estimate D2E/DX2                !
 ! R49   R(28,29)                1.4733         estimate D2E/DX2                !
 ! R50   R(28,53)                1.1001         estimate D2E/DX2                !
 ! R51   R(28,54)                1.0998         estimate D2E/DX2                !
 ! R52   R(29,30)                1.4818         estimate D2E/DX2                !
 ! R53   R(29,35)                1.4808         estimate D2E/DX2                !
 ! R54   R(30,31)                1.55           estimate D2E/DX2                !
 ! R55   R(30,55)                1.0636         estimate D2E/DX2                !
 ! R56   R(30,56)                1.5869         estimate D2E/DX2                !
 ! R57   R(31,32)                1.4797         estimate D2E/DX2                !
 ! R58   R(31,57)                1.3947         estimate D2E/DX2                !
 ! R59   R(31,58)                1.4738         estimate D2E/DX2                !
 ! R60   R(32,33)                1.4689         estimate D2E/DX2                !
 ! R61   R(32,34)                1.4837         estimate D2E/DX2                !
 ! R62   R(33,59)                1.0957         estimate D2E/DX2                !
 ! R63   R(33,60)                1.096          estimate D2E/DX2                !
 ! R64   R(33,61)                1.0961         estimate D2E/DX2                !
 ! R65   R(34,35)                1.5513         estimate D2E/DX2                !
 ! R66   R(34,62)                1.0678         estimate D2E/DX2                !
 ! R67   R(34,63)                1.583          estimate D2E/DX2                !
 ! R68   R(35,64)                1.5417         estimate D2E/DX2                !
 ! R69   R(35,65)                1.3795         estimate D2E/DX2                !
 ! R70   R(37,66)                1.0991         estimate D2E/DX2                !
 ! R71   R(37,67)                1.0991         estimate D2E/DX2                !
 ! R72   R(37,68)                1.0987         estimate D2E/DX2                !
 ! A1    A(2,1,6)              118.7404         estimate D2E/DX2                !
 ! A2    A(2,1,38)             121.2067         estimate D2E/DX2                !
 ! A3    A(6,1,38)             120.0473         estimate D2E/DX2                !
 ! A4    A(1,2,3)              119.9044         estimate D2E/DX2                !
 ! A5    A(1,2,39)             118.3047         estimate D2E/DX2                !
 ! A6    A(3,2,39)             121.7648         estimate D2E/DX2                !
 ! A7    A(2,3,4)              115.4259         estimate D2E/DX2                !
 ! A8    A(2,3,7)              123.8559         estimate D2E/DX2                !
 ! A9    A(4,3,7)              120.7094         estimate D2E/DX2                !
 ! A10   A(3,4,5)              125.6767         estimate D2E/DX2                !
 ! A11   A(3,4,40)             119.8786         estimate D2E/DX2                !
 ! A12   A(5,4,40)             114.4439         estimate D2E/DX2                !
 ! A13   A(4,5,6)              117.2172         estimate D2E/DX2                !
 ! A14   A(1,6,5)              123.0043         estimate D2E/DX2                !
 ! A15   A(1,6,41)             120.9389         estimate D2E/DX2                !
 ! A16   A(5,6,41)             116.0564         estimate D2E/DX2                !
 ! A17   A(3,7,8)              125.8584         estimate D2E/DX2                !
 ! A18   A(3,7,12)             114.4279         estimate D2E/DX2                !
 ! A19   A(8,7,12)             119.6936         estimate D2E/DX2                !
 ! A20   A(7,8,9)              115.6726         estimate D2E/DX2                !
 ! A21   A(7,8,42)             123.9861         estimate D2E/DX2                !
 ! A22   A(9,8,42)             120.3408         estimate D2E/DX2                !
 ! A23   A(8,9,10)             124.6364         estimate D2E/DX2                !
 ! A24   A(8,9,43)             120.1176         estimate D2E/DX2                !
 ! A25   A(10,9,43)            115.2445         estimate D2E/DX2                !
 ! A26   A(9,10,11)            115.6805         estimate D2E/DX2                !
 ! A27   A(10,11,12)           124.2323         estimate D2E/DX2                !
 ! A28   A(10,11,13)           115.9132         estimate D2E/DX2                !
 ! A29   A(12,11,13)           119.8543         estimate D2E/DX2                !
 ! A30   A(7,12,11)            120.0713         estimate D2E/DX2                !
 ! A31   A(11,13,14)           132.8187         estimate D2E/DX2                !
 ! A32   A(11,13,44)           109.7885         estimate D2E/DX2                !
 ! A33   A(14,13,44)           117.1202         estimate D2E/DX2                !
 ! A34   A(13,14,15)           120.0323         estimate D2E/DX2                !
 ! A35   A(13,14,19)           121.3493         estimate D2E/DX2                !
 ! A36   A(15,14,19)           118.6179         estimate D2E/DX2                !
 ! A37   A(14,15,16)           117.1784         estimate D2E/DX2                !
 ! A38   A(14,15,37)           123.2254         estimate D2E/DX2                !
 ! A39   A(16,15,37)           119.5961         estimate D2E/DX2                !
 ! A40   A(15,16,17)           124.0967         estimate D2E/DX2                !
 ! A41   A(15,16,45)           119.0706         estimate D2E/DX2                !
 ! A42   A(17,16,45)           116.8307         estimate D2E/DX2                !
 ! A43   A(16,17,18)           117.8026         estimate D2E/DX2                !
 ! A44   A(16,17,46)           121.7599         estimate D2E/DX2                !
 ! A45   A(18,17,46)           120.4355         estimate D2E/DX2                !
 ! A46   A(17,18,19)           119.4835         estimate D2E/DX2                !
 ! A47   A(17,18,20)           126.6826         estimate D2E/DX2                !
 ! A48   A(19,18,20)           113.8148         estimate D2E/DX2                !
 ! A49   A(14,19,18)           122.7985         estimate D2E/DX2                !
 ! A50   A(14,19,47)           118.3981         estimate D2E/DX2                !
 ! A51   A(18,19,47)           118.8022         estimate D2E/DX2                !
 ! A52   A(18,20,21)           132.0454         estimate D2E/DX2                !
 ! A53   A(18,20,48)           112.4439         estimate D2E/DX2                !
 ! A54   A(21,20,48)           115.3266         estimate D2E/DX2                !
 ! A55   A(20,21,22)           116.7269         estimate D2E/DX2                !
 ! A56   A(20,21,36)           122.6344         estimate D2E/DX2                !
 ! A57   A(22,21,36)           120.6248         estimate D2E/DX2                !
 ! A58   A(21,22,23)           123.0596         estimate D2E/DX2                !
 ! A59   A(21,22,27)           118.2308         estimate D2E/DX2                !
 ! A60   A(23,22,27)           118.7094         estimate D2E/DX2                !
 ! A61   A(22,23,24)           120.5384         estimate D2E/DX2                !
 ! A62   A(22,23,49)           119.5163         estimate D2E/DX2                !
 ! A63   A(24,23,49)           119.9453         estimate D2E/DX2                !
 ! A64   A(23,24,25)           121.3705         estimate D2E/DX2                !
 ! A65   A(23,24,50)           118.6862         estimate D2E/DX2                !
 ! A66   A(25,24,50)           119.9427         estimate D2E/DX2                !
 ! A67   A(24,25,26)           117.5056         estimate D2E/DX2                !
 ! A68   A(24,25,28)           121.0407         estimate D2E/DX2                !
 ! A69   A(26,25,28)           121.4045         estimate D2E/DX2                !
 ! A70   A(25,26,27)           121.5049         estimate D2E/DX2                !
 ! A71   A(25,26,51)           120.0097         estimate D2E/DX2                !
 ! A72   A(27,26,51)           118.4794         estimate D2E/DX2                !
 ! A73   A(22,27,26)           120.3177         estimate D2E/DX2                !
 ! A74   A(22,27,52)           118.5605         estimate D2E/DX2                !
 ! A75   A(26,27,52)           121.0885         estimate D2E/DX2                !
 ! A76   A(25,28,29)           120.2891         estimate D2E/DX2                !
 ! A77   A(25,28,53)           108.0471         estimate D2E/DX2                !
 ! A78   A(25,28,54)           107.9906         estimate D2E/DX2                !
 ! A79   A(29,28,53)           106.7394         estimate D2E/DX2                !
 ! A80   A(29,28,54)           106.3127         estimate D2E/DX2                !
 ! A81   A(53,28,54)           106.7512         estimate D2E/DX2                !
 ! A82   A(28,29,30)           119.0851         estimate D2E/DX2                !
 ! A83   A(28,29,35)           118.7036         estimate D2E/DX2                !
 ! A84   A(30,29,35)           110.4328         estimate D2E/DX2                !
 ! A85   A(29,30,31)           115.8829         estimate D2E/DX2                !
 ! A86   A(29,30,55)           110.7244         estimate D2E/DX2                !
 ! A87   A(29,30,56)           106.2523         estimate D2E/DX2                !
 ! A88   A(31,30,55)           112.0988         estimate D2E/DX2                !
 ! A89   A(31,30,56)           104.7215         estimate D2E/DX2                !
 ! A90   A(55,30,56)           106.3492         estimate D2E/DX2                !
 ! A91   A(30,31,32)           115.0767         estimate D2E/DX2                !
 ! A92   A(30,31,57)           108.9106         estimate D2E/DX2                !
 ! A93   A(30,31,58)           108.5191         estimate D2E/DX2                !
 ! A94   A(32,31,57)           108.9687         estimate D2E/DX2                !
 ! A95   A(32,31,58)           106.9543         estimate D2E/DX2                !
 ! A96   A(57,31,58)           108.2068         estimate D2E/DX2                !
 ! A97   A(31,32,33)           116.5365         estimate D2E/DX2                !
 ! A98   A(31,32,34)           107.6852         estimate D2E/DX2                !
 ! A99   A(33,32,34)           115.7991         estimate D2E/DX2                !
 ! A100  A(32,33,59)           111.2191         estimate D2E/DX2                !
 ! A101  A(32,33,60)           110.0946         estimate D2E/DX2                !
 ! A102  A(32,33,61)           110.1012         estimate D2E/DX2                !
 ! A103  A(59,33,60)           108.7454         estimate D2E/DX2                !
 ! A104  A(59,33,61)           108.7623         estimate D2E/DX2                !
 ! A105  A(60,33,61)           107.8365         estimate D2E/DX2                !
 ! A106  A(32,34,35)           114.2194         estimate D2E/DX2                !
 ! A107  A(32,34,62)           109.8061         estimate D2E/DX2                !
 ! A108  A(32,34,63)           106.4886         estimate D2E/DX2                !
 ! A109  A(35,34,62)           112.3362         estimate D2E/DX2                !
 ! A110  A(35,34,63)           106.088          estimate D2E/DX2                !
 ! A111  A(62,34,63)           107.4421         estimate D2E/DX2                !
 ! A112  A(29,35,34)           116.4381         estimate D2E/DX2                !
 ! A113  A(29,35,64)           107.2623         estimate D2E/DX2                !
 ! A114  A(29,35,65)           110.0624         estimate D2E/DX2                !
 ! A115  A(34,35,64)           106.2495         estimate D2E/DX2                !
 ! A116  A(34,35,65)           108.8677         estimate D2E/DX2                !
 ! A117  A(64,35,65)           107.5515         estimate D2E/DX2                !
 ! A118  A(15,37,66)           111.3322         estimate D2E/DX2                !
 ! A119  A(15,37,67)           111.5038         estimate D2E/DX2                !
 ! A120  A(15,37,68)           112.9737         estimate D2E/DX2                !
 ! A121  A(66,37,67)           107.4944         estimate D2E/DX2                !
 ! A122  A(66,37,68)           106.6335         estimate D2E/DX2                !
 ! A123  A(67,37,68)           106.5689         estimate D2E/DX2                !
 ! D1    D(6,1,2,3)             -0.544          estimate D2E/DX2                !
 ! D2    D(6,1,2,39)          -178.7183         estimate D2E/DX2                !
 ! D3    D(38,1,2,3)           178.5962         estimate D2E/DX2                !
 ! D4    D(38,1,2,39)            0.422          estimate D2E/DX2                !
 ! D5    D(2,1,6,5)             -1.0039         estimate D2E/DX2                !
 ! D6    D(2,1,6,41)           178.7767         estimate D2E/DX2                !
 ! D7    D(38,1,6,5)           179.8456         estimate D2E/DX2                !
 ! D8    D(38,1,6,41)           -0.3738         estimate D2E/DX2                !
 ! D9    D(1,2,3,4)              1.7175         estimate D2E/DX2                !
 ! D10   D(1,2,3,7)           -177.2089         estimate D2E/DX2                !
 ! D11   D(39,2,3,4)           179.8269         estimate D2E/DX2                !
 ! D12   D(39,2,3,7)             0.9005         estimate D2E/DX2                !
 ! D13   D(2,3,4,5)             -1.6266         estimate D2E/DX2                !
 ! D14   D(2,3,4,40)           178.0465         estimate D2E/DX2                !
 ! D15   D(7,3,4,5)            177.3364         estimate D2E/DX2                !
 ! D16   D(7,3,4,40)            -2.9904         estimate D2E/DX2                !
 ! D17   D(2,3,7,8)             -3.5204         estimate D2E/DX2                !
 ! D18   D(2,3,7,12)           174.8335         estimate D2E/DX2                !
 ! D19   D(4,3,7,8)            177.6073         estimate D2E/DX2                !
 ! D20   D(4,3,7,12)            -4.0388         estimate D2E/DX2                !
 ! D21   D(3,4,5,6)              0.1988         estimate D2E/DX2                !
 ! D22   D(40,4,5,6)          -179.4899         estimate D2E/DX2                !
 ! D23   D(4,5,6,1)              1.1744         estimate D2E/DX2                !
 ! D24   D(4,5,6,41)          -178.6161         estimate D2E/DX2                !
 ! D25   D(3,7,8,9)            178.9011         estimate D2E/DX2                !
 ! D26   D(3,7,8,42)            -1.3475         estimate D2E/DX2                !
 ! D27   D(12,7,8,9)             0.6264         estimate D2E/DX2                !
 ! D28   D(12,7,8,42)         -179.6222         estimate D2E/DX2                !
 ! D29   D(3,7,12,11)         -178.1296         estimate D2E/DX2                !
 ! D30   D(8,7,12,11)            0.3347         estimate D2E/DX2                !
 ! D31   D(7,8,9,10)            -0.8894         estimate D2E/DX2                !
 ! D32   D(7,8,9,43)           179.5809         estimate D2E/DX2                !
 ! D33   D(42,8,9,10)          179.3495         estimate D2E/DX2                !
 ! D34   D(42,8,9,43)           -0.1803         estimate D2E/DX2                !
 ! D35   D(8,9,10,11)            0.1433         estimate D2E/DX2                !
 ! D36   D(43,9,10,11)         179.6936         estimate D2E/DX2                !
 ! D37   D(9,10,11,12)           0.9405         estimate D2E/DX2                !
 ! D38   D(9,10,11,13)        -178.9082         estimate D2E/DX2                !
 ! D39   D(10,11,12,7)          -1.1962         estimate D2E/DX2                !
 ! D40   D(13,11,12,7)         178.6469         estimate D2E/DX2                !
 ! D41   D(10,11,13,14)       -176.1528         estimate D2E/DX2                !
 ! D42   D(10,11,13,44)         -2.4985         estimate D2E/DX2                !
 ! D43   D(12,11,13,14)          3.9914         estimate D2E/DX2                !
 ! D44   D(12,11,13,44)        177.6457         estimate D2E/DX2                !
 ! D45   D(11,13,14,15)        162.8411         estimate D2E/DX2                !
 ! D46   D(11,13,14,19)        -17.3997         estimate D2E/DX2                !
 ! D47   D(44,13,14,15)        -10.4486         estimate D2E/DX2                !
 ! D48   D(44,13,14,19)        169.3105         estimate D2E/DX2                !
 ! D49   D(13,14,15,16)        179.9686         estimate D2E/DX2                !
 ! D50   D(13,14,15,37)         -0.0842         estimate D2E/DX2                !
 ! D51   D(19,14,15,16)          0.2029         estimate D2E/DX2                !
 ! D52   D(19,14,15,37)       -179.8499         estimate D2E/DX2                !
 ! D53   D(13,14,19,18)        178.8123         estimate D2E/DX2                !
 ! D54   D(13,14,19,47)         -0.7857         estimate D2E/DX2                !
 ! D55   D(15,14,19,18)         -1.4252         estimate D2E/DX2                !
 ! D56   D(15,14,19,47)        178.9767         estimate D2E/DX2                !
 ! D57   D(14,15,16,17)          0.6204         estimate D2E/DX2                !
 ! D58   D(14,15,16,45)       -179.9157         estimate D2E/DX2                !
 ! D59   D(37,15,16,17)       -179.3288         estimate D2E/DX2                !
 ! D60   D(37,15,16,45)          0.1352         estimate D2E/DX2                !
 ! D61   D(14,15,37,66)         63.582          estimate D2E/DX2                !
 ! D62   D(14,15,37,67)        -56.4664         estimate D2E/DX2                !
 ! D63   D(14,15,37,68)       -176.4619         estimate D2E/DX2                !
 ! D64   D(16,15,37,66)       -116.472          estimate D2E/DX2                !
 ! D65   D(16,15,37,67)        123.4795         estimate D2E/DX2                !
 ! D66   D(16,15,37,68)          3.4841         estimate D2E/DX2                !
 ! D67   D(15,16,17,18)         -0.2468         estimate D2E/DX2                !
 ! D68   D(15,16,17,46)        179.2375         estimate D2E/DX2                !
 ! D69   D(45,16,17,18)       -179.7218         estimate D2E/DX2                !
 ! D70   D(45,16,17,46)         -0.2375         estimate D2E/DX2                !
 ! D71   D(16,17,18,19)         -0.9502         estimate D2E/DX2                !
 ! D72   D(16,17,18,20)        177.3568         estimate D2E/DX2                !
 ! D73   D(46,17,18,19)        179.5583         estimate D2E/DX2                !
 ! D74   D(46,17,18,20)         -2.1346         estimate D2E/DX2                !
 ! D75   D(17,18,19,14)          1.8238         estimate D2E/DX2                !
 ! D76   D(17,18,19,47)       -178.5797         estimate D2E/DX2                !
 ! D77   D(20,18,19,14)       -176.6922         estimate D2E/DX2                !
 ! D78   D(20,18,19,47)          2.9043         estimate D2E/DX2                !
 ! D79   D(17,18,20,21)         48.0328         estimate D2E/DX2                !
 ! D80   D(17,18,20,48)       -126.6953         estimate D2E/DX2                !
 ! D81   D(19,18,20,21)       -133.5781         estimate D2E/DX2                !
 ! D82   D(19,18,20,48)         51.6939         estimate D2E/DX2                !
 ! D83   D(18,20,21,22)       -168.5559         estimate D2E/DX2                !
 ! D84   D(18,20,21,36)         12.7913         estimate D2E/DX2                !
 ! D85   D(48,20,21,22)          6.0529         estimate D2E/DX2                !
 ! D86   D(48,20,21,36)       -172.5998         estimate D2E/DX2                !
 ! D87   D(20,21,22,23)         35.1015         estimate D2E/DX2                !
 ! D88   D(20,21,22,27)       -145.0502         estimate D2E/DX2                !
 ! D89   D(36,21,22,23)       -146.217          estimate D2E/DX2                !
 ! D90   D(36,21,22,27)         33.6314         estimate D2E/DX2                !
 ! D91   D(21,22,23,24)       -178.5977         estimate D2E/DX2                !
 ! D92   D(21,22,23,49)          1.3457         estimate D2E/DX2                !
 ! D93   D(27,22,23,24)          1.5546         estimate D2E/DX2                !
 ! D94   D(27,22,23,49)       -178.502          estimate D2E/DX2                !
 ! D95   D(21,22,27,26)        177.4992         estimate D2E/DX2                !
 ! D96   D(21,22,27,52)         -0.4268         estimate D2E/DX2                !
 ! D97   D(23,22,27,26)         -2.6457         estimate D2E/DX2                !
 ! D98   D(23,22,27,52)        179.4283         estimate D2E/DX2                !
 ! D99   D(22,23,24,25)         -0.4036         estimate D2E/DX2                !
 ! D100  D(22,23,24,50)        179.3261         estimate D2E/DX2                !
 ! D101  D(49,23,24,25)        179.6532         estimate D2E/DX2                !
 ! D102  D(49,23,24,50)         -0.6171         estimate D2E/DX2                !
 ! D103  D(23,24,25,26)          0.3079         estimate D2E/DX2                !
 ! D104  D(23,24,25,28)        177.7914         estimate D2E/DX2                !
 ! D105  D(50,24,25,26)       -179.4185         estimate D2E/DX2                !
 ! D106  D(50,24,25,28)         -1.935          estimate D2E/DX2                !
 ! D107  D(24,25,26,27)         -1.4209         estimate D2E/DX2                !
 ! D108  D(24,25,26,51)        179.4798         estimate D2E/DX2                !
 ! D109  D(28,25,26,27)       -178.8947         estimate D2E/DX2                !
 ! D110  D(28,25,26,51)          2.0061         estimate D2E/DX2                !
 ! D111  D(24,25,28,29)        -82.9577         estimate D2E/DX2                !
 ! D112  D(24,25,28,53)         39.8027         estimate D2E/DX2                !
 ! D113  D(24,25,28,54)        154.9231         estimate D2E/DX2                !
 ! D114  D(26,25,28,29)         94.4271         estimate D2E/DX2                !
 ! D115  D(26,25,28,53)       -142.8125         estimate D2E/DX2                !
 ! D116  D(26,25,28,54)        -27.6922         estimate D2E/DX2                !
 ! D117  D(25,26,27,22)          2.6332         estimate D2E/DX2                !
 ! D118  D(25,26,27,52)       -179.494          estimate D2E/DX2                !
 ! D119  D(51,26,27,22)       -178.2542         estimate D2E/DX2                !
 ! D120  D(51,26,27,52)         -0.3813         estimate D2E/DX2                !
 ! D121  D(25,28,29,30)         74.8347         estimate D2E/DX2                !
 ! D122  D(25,28,29,35)        -64.6327         estimate D2E/DX2                !
 ! D123  D(53,28,29,30)        -48.5546         estimate D2E/DX2                !
 ! D124  D(53,28,29,35)        171.9779         estimate D2E/DX2                !
 ! D125  D(54,28,29,30)       -162.2339         estimate D2E/DX2                !
 ! D126  D(54,28,29,35)         58.2987         estimate D2E/DX2                !
 ! D127  D(28,29,30,31)        -99.9301         estimate D2E/DX2                !
 ! D128  D(28,29,30,55)         29.1687         estimate D2E/DX2                !
 ! D129  D(28,29,30,56)        144.2428         estimate D2E/DX2                !
 ! D130  D(35,29,30,31)         42.6037         estimate D2E/DX2                !
 ! D131  D(35,29,30,55)        171.7025         estimate D2E/DX2                !
 ! D132  D(35,29,30,56)        -73.2234         estimate D2E/DX2                !
 ! D133  D(28,29,35,34)         99.5316         estimate D2E/DX2                !
 ! D134  D(28,29,35,64)       -141.6682         estimate D2E/DX2                !
 ! D135  D(28,29,35,65)        -24.9456         estimate D2E/DX2                !
 ! D136  D(30,29,35,34)        -43.1631         estimate D2E/DX2                !
 ! D137  D(30,29,35,64)         75.637          estimate D2E/DX2                !
 ! D138  D(30,29,35,65)       -167.6403         estimate D2E/DX2                !
 ! D139  D(29,30,31,32)        -50.7007         estimate D2E/DX2                !
 ! D140  D(29,30,31,57)       -173.3613         estimate D2E/DX2                !
 ! D141  D(29,30,31,58)         69.0536         estimate D2E/DX2                !
 ! D142  D(55,30,31,32)       -179.1283         estimate D2E/DX2                !
 ! D143  D(55,30,31,57)         58.2111         estimate D2E/DX2                !
 ! D144  D(55,30,31,58)        -59.374          estimate D2E/DX2                !
 ! D145  D(56,30,31,32)         65.9863         estimate D2E/DX2                !
 ! D146  D(56,30,31,57)        -56.6743         estimate D2E/DX2                !
 ! D147  D(56,30,31,58)       -174.2594         estimate D2E/DX2                !
 ! D148  D(30,31,32,33)        -79.0811         estimate D2E/DX2                !
 ! D149  D(30,31,32,34)         52.9726         estimate D2E/DX2                !
 ! D150  D(57,31,32,33)         43.5484         estimate D2E/DX2                !
 ! D151  D(57,31,32,34)        175.6021         estimate D2E/DX2                !
 ! D152  D(58,31,32,33)        160.3041         estimate D2E/DX2                !
 ! D153  D(58,31,32,34)        -67.6422         estimate D2E/DX2                !
 ! D154  D(31,32,33,59)         64.0768         estimate D2E/DX2                !
 ! D155  D(31,32,33,60)        -56.5285         estimate D2E/DX2                !
 ! D156  D(31,32,33,61)       -175.2922         estimate D2E/DX2                !
 ! D157  D(34,32,33,59)        -64.1336         estimate D2E/DX2                !
 ! D158  D(34,32,33,60)        175.2611         estimate D2E/DX2                !
 ! D159  D(34,32,33,61)         56.4973         estimate D2E/DX2                !
 ! D160  D(31,32,34,35)        -52.7821         estimate D2E/DX2                !
 ! D161  D(31,32,34,62)        179.9946         estimate D2E/DX2                !
 ! D162  D(31,32,34,63)         63.9639         estimate D2E/DX2                !
 ! D163  D(33,32,34,35)         79.6705         estimate D2E/DX2                !
 ! D164  D(33,32,34,62)        -47.5528         estimate D2E/DX2                !
 ! D165  D(33,32,34,63)       -163.5835         estimate D2E/DX2                !
 ! D166  D(32,34,35,29)         51.1228         estimate D2E/DX2                !
 ! D167  D(32,34,35,64)        -68.2258         estimate D2E/DX2                !
 ! D168  D(32,34,35,65)        176.2079         estimate D2E/DX2                !
 ! D169  D(62,34,35,29)        177.0317         estimate D2E/DX2                !
 ! D170  D(62,34,35,64)         57.6831         estimate D2E/DX2                !
 ! D171  D(62,34,35,65)        -57.8832         estimate D2E/DX2                !
 ! D172  D(63,34,35,29)        -65.8543         estimate D2E/DX2                !
 ! D173  D(63,34,35,64)        174.7971         estimate D2E/DX2                !
 ! D174  D(63,34,35,65)         59.2308         estimate D2E/DX2                !
 --------------------------------------------------------------------------------
 Trust Radius=3.00D-01 FncErr=1.00D-07 GrdErr=1.00D-06
 Number of steps in this run= 400 maximum allowed number of steps= 408.
 GradGradGradGradGradGradGradGradGradGradGradGradGradGradGradGradGradGrad

 Leave Link  103 at Wed Apr  8 22:20:55 2020, MaxMem= 2684354560 cpu:       0.1
 (Enter /opt/g09gh/gaussian/g09/l202.exe)
 Stoichiometry    C29H31N7O
 Framework group  C1[X(C29H31N7O)]
 Deg. of freedom   198
 Full point group                 C1      NOp   1
 Largest Abelian subgroup         C1      NOp   1
 Largest concise Abelian subgroup C1      NOp   1
                         Standard orientation:                         
 ---------------------------------------------------------------------
 Center     Atomic      Atomic             Coordinates (Angstroms)
 Number     Number       Type             X           Y           Z
 ---------------------------------------------------------------------
      1          6           0       -0.603827    4.342123    0.118841
      2          6           0        0.798049    4.320679    0.150390
      3          6           0        1.485131    3.098770    0.010464
      4          6           0        0.666661    1.960711   -0.194215
      5          7           0       -0.670289    1.957944   -0.231581
      6          6           0       -1.291707    3.136300   -0.064418
      7          6           0        2.986942    2.964050    0.091510
      8          6           0        3.900210    4.019266    0.243441
      9          6           0        5.248302    3.648703    0.318002
     10          7           0        5.691767    2.394743    0.271733
     11          6           0        4.743504    1.443543    0.140442
     12          7           0        3.435970    1.695143    0.040276
     13          7           0        5.199442    0.130633    0.115307
     14          6           0        4.533385   -1.136460   -0.078233
     15          6           0        5.291812   -2.298313   -0.416077
     16          6           0        4.582355   -3.500687   -0.589956
     17          6           0        3.191542   -3.617402   -0.464294
     18          6           0        2.467506   -2.466830   -0.141166
     19          6           0        3.147344   -1.258964    0.063039
     20          7           0        1.057458   -2.358543   -0.019523
     21          6           0        0.130727   -3.124336    0.641601
     22          6           0       -1.328310   -2.852564    0.327110
     23          6           0       -1.781095   -2.483819   -0.950727
     24          6           0       -3.133229   -2.217669   -1.174797
     25          6           0       -4.080742   -2.317174   -0.139348
     26          6           0       -3.613660   -2.689516    1.136272
     27          6           0       -2.266221   -2.979909    1.364301
     28          6           0       -5.551470   -1.975671   -0.380929
     29          7           0       -6.008182   -0.576022   -0.325263
     30          6           0       -5.685997    0.332107   -1.450959
     31          6           0       -4.482508    1.283443   -1.229684
     32          7           0       -4.519272    2.058675    0.030097
     33          6           0       -5.389814    3.241738    0.047489
     34          6           0       -4.712202    1.098560    1.144689
     35          6           0       -5.925030    0.148468    0.963471
     36          8           0        0.441831   -3.969024    1.463158
     37          6           0        6.800256   -2.285307   -0.591907
     38          1           0       -1.155372    5.268656    0.247140
     39          1           0        1.324461    5.257882    0.314246
     40          1           0        1.121084    0.989068   -0.342543
     41          1           0       -2.379236    3.108757   -0.074869
     42          1           0        3.615835    5.062776    0.298744
     43          1           0        6.019521    4.410635    0.429338
     44          1           0        6.207280    0.118060    0.162213
     45          1           0        5.130669   -4.406514   -0.846855
     46          1           0        2.682382   -4.560822   -0.618435
     47          1           0        2.580739   -0.383989    0.334333
     48          1           0        0.676922   -1.614241   -0.588465
     49          1           0       -1.069750   -2.405252   -1.768930
     50          1           0       -3.449724   -1.923254   -2.175457
     51          1           0       -4.310946   -2.770692    1.969680
     52          1           0       -1.914419   -3.274559    2.349957
     53          1           0       -5.832582   -2.361505   -1.372028
     54          1           0       -6.153624   -2.526633    0.356174
     55          1           0       -5.604232   -0.211444   -2.361478
     56          1           0       -6.936288    1.295255   -1.616421
     57          1           0       -4.402448    2.168588   -2.304504
     58          1           0       -3.248239    0.478511   -1.203113
     59          1           0       -6.442278    2.961437   -0.071839
     60          1           0       -5.113086    3.924851   -0.763731
     61          1           0       -5.273784    3.780941    0.994752
     62          1           0       -4.743702    1.624193    2.073661
     63          1           0       -3.428758    0.172194    1.166949
     64          1           0       -7.184491    1.030675    1.074444
     65          1           0       -5.950739   -0.747181    2.012385
     66          1           0        7.310015   -2.026449    0.346851
     67          1           0        7.111238   -1.552466   -1.349706
     68          1           0        7.203170   -3.256337   -0.911179
 ---------------------------------------------------------------------
 Rotational constants (GHZ):      0.1386434      0.0625082      0.0450017
 Leave Link  202 at Wed Apr  8 22:20:55 2020, MaxMem= 2684354560 cpu:       0.0
 (Enter /opt/g09gh/gaussian/g09/l301.exe)
 Standard basis: 6-31G(d) (6D, 7F)
 Ernie: Thresh=  0.10000D-02 Tol=  0.10000D-05 Strict=F.
 There are   617 symmetry adapted basis functions of A   symmetry.
 Integral buffers will be    131072 words long.
 Raffenetti 2 integral format.
 Two-electron integral symmetry is turned on.
   617 basis functions,  1160 primitive gaussians,   617 cartesian basis functions
   131 alpha electrons      131 beta electrons
       nuclear repulsion energy      3801.8993592063 Hartrees.
 IExCor= 4639 DFT=T Ex+Corr=wB97XD ExCW=0 ScaHFX=  1.000000
 ScaDFX=  1.000000  1.000000  1.000000  1.000000 ScalE2=  1.000000  1.000000
 IRadAn=      0 IRanWt=     -1 IRanGd=            0 ICorTp=0
  HFx wShort=  0.000000 wLong=  0.200000 cFull=  0.222036 cShort=  0.000000 cLong=  0.777964
  DFx wShort=  0.000000 wLong=  0.200000 cFull=  0.000000 cShort=  0.000000 cLong=  1.000000
 NAtoms=   68 NActive=   68 NUniq=   68 SFac= 7.50D-01 NAtFMM=   80 NAOKFM=F Big=T
 R6Disp: Dispersion energy =        -0.0597264774 Hartrees.
 Nuclear repulsion after empirical dispersion term =     3801.8396327289 Hartrees.
 Leave Link  301 at Wed Apr  8 22:20:55 2020, MaxMem= 2684354560 cpu:       0.3
 (Enter /opt/g09gh/gaussian/g09/l302.exe)
 NPDir=0 NMtPBC=     1 NCelOv=     1 NCel=       1 NClECP=     1 NCelD=      1
         NCelK=      1 NCelE2=     1 NClLst=     1 CellRange=     0.0.
 One-electron integrals computed using PRISM.
 NBasis=   617 RedAO= T  NBF=   617
 NBsUse=   617 1.00D-06 NBFU=   617
 Precomputing XC quadrature grid using
 IXCGrd= 2 IRadAn=           0 IRanWt=          -1 IRanGd=           0 AccXCQ= 1.00D-10.
 NRdTot=    4374 NPtTot=      559232 NUsed=      590747 NTot=      590779
 NSgBfM=   606   606   606   606   606 NAtAll=    68    68.
 Leave Link  302 at Wed Apr  8 22:20:56 2020, MaxMem= 2684354560 cpu:       7.3
 (Enter /opt/g09gh/gaussian/g09/l303.exe)
 DipDrv:  MaxL=1.
 Leave Link  303 at Wed Apr  8 22:20:56 2020, MaxMem= 2684354560 cpu:       0.5
 (Enter /opt/g09gh/gaussian/g09/l401.exe)
 Harris functional with IExCor= 4639 diagonalized for initial guess.
 ExpMin= 1.61D-01 ExpMax= 5.48D+03 ExpMxC= 8.25D+02 IAcc=1 IRadAn=         1 AccDes= 0.00D+00
 HarFok:  IExCor= 4639 AccDes= 0.00D+00 IRadAn=         1 IDoV= 1
 ScaDFX=  1.000000  1.000000  1.000000  1.000000
 FoFCou: FMM=F IPFlag=           0 FMFlag=      100000 FMFlg1=           1
         NFxFlg=           0 DoJE=T BraDBF=F KetDBF=T FulRan=T
         Omega=  0.000000  0.000000  1.000000  0.000000  0.000000 ICntrl=     500 IOpCl=  0
         NMat0=    1 NMatS0=    1 NMatT0=    0 NMatD0=    1 NMtDS0=    0 NMtDT0=    0
         I1Cent=           4 NGrid=           0.
 Petite list used in FoFCou.
 Harris En= -1512.35888482609    
 Initial guess orbital symmetries:
       Occupied  (A) (A) (A) (A) (A) (A) (A) (A) (A) (A) (A) (A)
                 (A) (A) (A) (A) (A) (A) (A) (A) (A) (A) (A) (A)
                 (A) (A) (A) (A) (A) (A) (A) (A) (A) (A) (A) (A)
                 (A) (A) (A) (A) (A) (A) (A) (A) (A) (A) (A) (A)
                 (A) (A) (A) (A) (A) (A) (A) (A) (A) (A) (A) (A)
                 (A) (A) (A) (A) (A) (A) (A) (A) (A) (A) (A) (A)
                 (A) (A) (A) (A) (A) (A) (A) (A) (A) (A) (A) (A)
                 (A) (A) (A) (A) (A) (A) (A) (A) (A) (A) (A) (A)
                 (A) (A) (A) (A) (A) (A) (A) (A) (A) (A) (A) (A)
                 (A) (A) (A) (A) (A) (A) (A) (A) (A) (A) (A) (A)
                 (A) (A) (A) (A) (A) (A) (A) (A) (A) (A) (A)
       Virtual   (A) (A) (A) (A) (A) (A) (A) (A) (A) (A) (A) (A)
                 (A) (A) (A) (A) (A) (A) (A) (A) (A) (A) (A) (A)
                 (A) (A) (A) (A) (A) (A) (A) (A) (A) (A) (A) (A)
                 (A) (A) (A) (A) (A) (A) (A) (A) (A) (A) (A) (A)
                 (A) (A) (A) (A) (A) (A) (A) (A) (A) (A) (A) (A)
                 (A) (A) (A) (A) (A) (A) (A) (A) (A) (A) (A) (A)
                 (A) (A) (A) (A) (A) (A) (A) (A) (A) (A) (A) (A)
                 (A) (A) (A) (A) (A) (A) (A) (A) (A) (A) (A) (A)
                 (A) (A) (A) (A) (A) (A) (A) (A) (A) (A) (A) (A)
                 (A) (A) (A) (A) (A) (A) (A) (A) (A) (A) (A) (A)
                 (A) (A) (A) (A) (A) (A) (A) (A) (A) (A) (A) (A)
                 (A) (A) (A) (A) (A) (A) (A) (A) (A) (A) (A) (A)
                 (A) (A) (A) (A) (A) (A) (A) (A) (A) (A) (A) (A)
                 (A) (A) (A) (A) (A) (A) (A) (A) (A) (A) (A) (A)
                 (A) (A) (A) (A) (A) (A) (A) (A) (A) (A) (A) (A)
                 (A) (A) (A) (A) (A) (A) (A) (A) (A) (A) (A) (A)
                 (A) (A) (A) (A) (A) (A) (A) (A) (A) (A) (A) (A)
                 (A) (A) (A) (A) (A) (A) (A) (A) (A) (A) (A) (A)
                 (A) (A) (A) (A) (A) (A) (A) (A) (A) (A) (A) (A)
                 (A) (A) (A) (A) (A) (A) (A) (A) (A) (A) (A) (A)
                 (A) (A) (A) (A) (A) (A) (A) (A) (A) (A) (A) (A)
                 (A) (A) (A) (A) (A) (A) (A) (A) (A) (A) (A) (A)
                 (A) (A) (A) (A) (A) (A) (A) (A) (A) (A) (A) (A)
                 (A) (A) (A) (A) (A) (A) (A) (A) (A) (A) (A) (A)
                 (A) (A) (A) (A) (A) (A) (A) (A) (A) (A) (A) (A)
                 (A) (A) (A) (A) (A) (A) (A) (A) (A) (A) (A) (A)
                 (A) (A) (A) (A) (A) (A) (A) (A) (A) (A) (A) (A)
                 (A) (A) (A) (A) (A) (A) (A) (A) (A) (A) (A) (A)
                 (A) (A) (A) (A) (A) (A) (A) (A) (A) (A) (A) (A)
                 (A) (A) (A) (A) (A) (A) (A) (A) (A) (A) (A) (A)
                 (A) (A) (A) (A) (A) (A) (A) (A) (A) (A) (A) (A)
                 (A) (A) (A) (A) (A) (A) (A) (A) (A) (A) (A) (A)
                 (A) (A) (A) (A) (A) (A) (A) (A) (A) (A) (A) (A)
                 (A) (A) (A) (A) (A) (A) (A) (A) (A) (A) (A) (A)
                 (A) (A) (A) (A) (A) (A) (A) (A) (A) (A) (A) (A)
                 (A) (A) (A) (A) (A) (A) (A) (A) (A) (A) (A) (A)
                 (A) (A) (A) (A) (A) (A) (A) (A) (A) (A) (A) (A)
                 (A) (A) (A) (A) (A) (A) (A) (A) (A) (A) (A) (A)
                 (A) (A) (A) (A) (A) (A) (A) (A) (A) (A) (A) (A)
                 (A) (A) (A) (A) (A) (A) (A) (A) (A) (A) (A) (A)
                 (A) (A) (A) (A) (A) (A)
 The electronic state of the initial guess is 1-A.
 Leave Link  401 at Wed Apr  8 22:20:59 2020, MaxMem= 2684354560 cpu:      14.6
 (Enter /opt/g09gh/gaussian/g09/l502.exe)
 Closed shell SCF:
 Requested convergence on RMS density matrix=1.00D-08 within 128 cycles.
 Requested convergence on MAX density matrix=1.00D-06.
 Requested convergence on             energy=1.00D-06.
 No special actions if energy rises.
 Using DIIS extrapolation, IDIIS=  1040.
 Integral symmetry usage will be decided dynamically.
       590122 words used for storage of precomputed grid.
 IEnd=     1758702 IEndB=     1758702 NGot=  2684354560 MDV=  2682993805
 LenX=  2682993805 LenY=  2682612499
 Fock matrices will be formed incrementally for  20 cycles.
 Integral accuracy reduced to 1.0D-05 until final iterations.

 Cycle   1  Pass 0  IDiag  1:
 FoFJK:  IHMeth= 1 ICntrl=     0 DoSepK=T KAlg= 1 I1Cent= 0 FoldK=F
 FoFCou: FMM=T IPFlag=           0 FMFlag=      100000 FMFlg1=           1
         NFxFlg=           0 DoJE=T BraDBF=F KetDBF=F FulRan=T
         Omega=  0.000000  0.000000  1.000000  0.000000  0.000000 ICntrl=     500 IOpCl=  0
         NMat0=    1 NMatS0=    1 NMatT0=    0 NMatD0=    1 NMtDS0=    0 NMtDT0=    0
         I1Cent=           0 NGrid=           0.
 Symmetry not used in FoFCou.
 FMM levels:  10  Number of levels for PrismC:   9
 E= -1581.09076509002    
 DIIS: error= 6.72D-02 at cycle   1 NSaved=   1.
 NSaved= 1 IEnMin= 1 EnMin= -1581.09076509002     IErMin= 1 ErrMin= 6.72D-02
 ErrMax= 6.72D-02 EMaxC= 1.00D-01 BMatC= 1.46D+00 BMatP= 1.46D+00
 IDIUse=3 WtCom= 3.28D-01 WtEn= 6.72D-01
 Coeff-Com:  0.100D+01
 Coeff-En:   0.100D+01
 Coeff:      0.100D+01
 Gap=     0.297 Goal=   None    Shift=    0.000
 GapD=    0.297 DampG=1.000 DampE=0.500 DampFc=0.5000 IDamp=-1.
 Damping current iteration by 5.00D-01
 RMSDP=1.90D-03 MaxDP=8.85D-02              OVMax= 1.43D-01

 Cycle   2  Pass 0  IDiag  1:
 RMSU=  6.71D-04    CP:  1.00D+00
 FoFJK:  IHMeth= 1 ICntrl=     0 DoSepK=T KAlg= 1 I1Cent= 0 FoldK=F
 E= -1581.26748849316     Delta-E=       -0.176723403133 Rises=F Damp=T
 DIIS: error= 3.39D-02 at cycle   2 NSaved=   2.
 NSaved= 2 IEnMin= 2 EnMin= -1581.26748849316     IErMin= 2 ErrMin= 3.39D-02
 ErrMax= 3.39D-02 EMaxC= 1.00D-01 BMatC= 3.22D-01 BMatP= 1.46D+00
 IDIUse=3 WtCom= 6.61D-01 WtEn= 3.39D-01
 Coeff-Com: -0.651D+00 0.165D+01
 Coeff-En:   0.000D+00 0.100D+01
 Coeff:     -0.430D+00 0.143D+01
 Gap=     0.304 Goal=   None    Shift=    0.000
 RMSDP=8.68D-04 MaxDP=3.86D-02 DE=-1.77D-01 OVMax= 1.13D-01

 Cycle   3  Pass 0  IDiag  1:
 RMSU=  5.56D-04    CP:  1.00D+00  1.38D+00
 FoFJK:  IHMeth= 1 ICntrl=     0 DoSepK=T KAlg= 1 I1Cent= 0 FoldK=F
 E= -1581.40376638987     Delta-E=       -0.136277896709 Rises=F Damp=F
 DIIS: error= 7.84D-03 at cycle   3 NSaved=   3.
 NSaved= 3 IEnMin= 3 EnMin= -1581.40376638987     IErMin= 3 ErrMin= 7.84D-03
 ErrMax= 7.84D-03 EMaxC= 1.00D-01 BMatC= 5.63D-02 BMatP= 3.22D-01
 IDIUse=3 WtCom= 9.22D-01 WtEn= 7.84D-02
 Coeff-Com: -0.351D+00 0.726D+00 0.625D+00
 Coeff-En:   0.000D+00 0.000D+00 0.100D+01
 Coeff:     -0.323D+00 0.669D+00 0.655D+00
 Gap=     0.279 Goal=   None    Shift=    0.000
 RMSDP=4.60D-04 MaxDP=3.09D-02 DE=-1.36D-01 OVMax= 5.86D-02

 Cycle   4  Pass 0  IDiag  1:
 RMSU=  1.44D-04    CP:  1.00D+00  1.67D+00  6.04D-01
 FoFJK:  IHMeth= 1 ICntrl=     0 DoSepK=T KAlg= 1 I1Cent= 0 FoldK=F
 E= -1581.45372811122     Delta-E=       -0.049961721350 Rises=F Damp=F
 DIIS: error= 2.45D-03 at cycle   4 NSaved=   4.
 NSaved= 4 IEnMin= 4 EnMin= -1581.45372811122     IErMin= 4 ErrMin= 2.45D-03
 ErrMax= 2.45D-03 EMaxC= 1.00D-01 BMatC= 3.47D-03 BMatP= 5.63D-02
 IDIUse=3 WtCom= 9.75D-01 WtEn= 2.45D-02
 Coeff-Com: -0.154D+00 0.314D+00 0.348D+00 0.492D+00
 Coeff-En:   0.000D+00 0.000D+00 0.000D+00 0.100D+01
 Coeff:     -0.150D+00 0.306D+00 0.339D+00 0.505D+00
 Gap=     0.271 Goal=   None    Shift=    0.000
 RMSDP=1.02D-04 MaxDP=7.64D-03 DE=-5.00D-02 OVMax= 9.70D-03

 Cycle   5  Pass 0  IDiag  1:
 RMSU=  4.60D-05    CP:  1.00D+00  1.65D+00  6.71D-01  7.23D-01
 FoFJK:  IHMeth= 1 ICntrl=     0 DoSepK=T KAlg= 1 I1Cent= 0 FoldK=F
 E= -1581.45673717052     Delta-E=       -0.003009059305 Rises=F Damp=F
 DIIS: error= 3.43D-04 at cycle   5 NSaved=   5.
 NSaved= 5 IEnMin= 5 EnMin= -1581.45673717052     IErMin= 5 ErrMin= 3.43D-04
 ErrMax= 3.43D-04 EMaxC= 1.00D-01 BMatC= 8.85D-05 BMatP= 3.47D-03
 IDIUse=3 WtCom= 9.97D-01 WtEn= 3.43D-03
 Coeff-Com: -0.139D-01 0.275D-01 0.535D-01 0.162D+00 0.771D+00
 Coeff-En:   0.000D+00 0.000D+00 0.000D+00 0.000D+00 0.100D+01
 Coeff:     -0.139D-01 0.274D-01 0.533D-01 0.162D+00 0.772D+00
 Gap=     0.270 Goal=   None    Shift=    0.000
 RMSDP=2.42D-05 MaxDP=2.11D-03 DE=-3.01D-03 OVMax= 2.54D-03

 Cycle   6  Pass 0  IDiag  1:
 RMSU=  1.33D-05    CP:  1.00D+00  1.66D+00  6.78D-01  7.88D-01  9.80D-01
 FoFJK:  IHMeth= 1 ICntrl=     0 DoSepK=T KAlg= 1 I1Cent= 0 FoldK=F
 E= -1581.45682518054     Delta-E=       -0.000088010021 Rises=F Damp=F
 DIIS: error= 2.91D-04 at cycle   6 NSaved=   6.
 NSaved= 6 IEnMin= 6 EnMin= -1581.45682518054     IErMin= 6 ErrMin= 2.91D-04
 ErrMax= 2.91D-04 EMaxC= 1.00D-01 BMatC= 2.70D-05 BMatP= 8.85D-05
 IDIUse=3 WtCom= 9.97D-01 WtEn= 2.91D-03
 Coeff-Com:  0.224D-01-0.464D-01-0.374D-01-0.152D-01 0.396D+00 0.681D+00
 Coeff-En:   0.000D+00 0.000D+00 0.000D+00 0.000D+00 0.000D+00 0.100D+01
 Coeff:      0.224D-01-0.463D-01-0.373D-01-0.152D-01 0.395D+00 0.682D+00
 Gap=     0.271 Goal=   None    Shift=    0.000
 RMSDP=1.36D-05 MaxDP=1.01D-03 DE=-8.80D-05 OVMax= 1.70D-03

 Cycle   7  Pass 0  IDiag  1:
 RMSU=  5.79D-06    CP:  1.00D+00  1.66D+00  6.81D-01  8.14D-01  1.11D+00
                    CP:  8.76D-01
 FoFJK:  IHMeth= 1 ICntrl=     0 DoSepK=T KAlg= 1 I1Cent= 0 FoldK=F
 E= -1581.45685538891     Delta-E=       -0.000030208364 Rises=F Damp=F
 DIIS: error= 3.37D-05 at cycle   7 NSaved=   7.
 NSaved= 7 IEnMin= 7 EnMin= -1581.45685538891     IErMin= 7 ErrMin= 3.37D-05
 ErrMax= 3.37D-05 EMaxC= 1.00D-01 BMatC= 1.57D-06 BMatP= 2.70D-05
 IDIUse=1 WtCom= 1.00D+00 WtEn= 0.00D+00
 Coeff-Com:  0.908D-02-0.186D-01-0.172D-01-0.208D-01 0.633D-01 0.229D+00
 Coeff-Com:  0.756D+00
 Coeff:      0.908D-02-0.186D-01-0.172D-01-0.208D-01 0.633D-01 0.229D+00
 Coeff:      0.756D+00
 Gap=     0.271 Goal=   None    Shift=    0.000
 RMSDP=4.03D-06 MaxDP=1.92D-04 DE=-3.02D-05 OVMax= 6.69D-04

 Initial convergence to 1.0D-05 achieved.  Increase integral accuracy.
 Cycle   8  Pass 1  IDiag  1:
 FoFJK:  IHMeth= 1 ICntrl=     0 DoSepK=T KAlg= 1 I1Cent= 0 FoldK=F
 E= -1581.45512787246     Delta-E=        0.001727516447 Rises=F Damp=F
 DIIS: error= 7.59D-05 at cycle   1 NSaved=   1.
 NSaved= 1 IEnMin= 1 EnMin= -1581.45512787246     IErMin= 1 ErrMin= 7.59D-05
 ErrMax= 7.59D-05 EMaxC= 1.00D-01 BMatC= 1.43D-05 BMatP= 1.43D-05
 IDIUse=1 WtCom= 1.00D+00 WtEn= 0.00D+00
 Coeff-Com:  0.100D+01
 Coeff:      0.100D+01
 Gap=     0.271 Goal=   None    Shift=    0.000
 RMSDP=4.03D-06 MaxDP=1.92D-04 DE= 1.73D-03 OVMax= 4.03D-04

 Cycle   9  Pass 1  IDiag  1:
 RMSU=  2.09D-05    CP:  1.00D+00
 FoFJK:  IHMeth= 1 ICntrl=     0 DoSepK=T KAlg= 1 I1Cent= 0 FoldK=F
 E= -1581.45513971771     Delta-E=       -0.000011845254 Rises=F Damp=F
 DIIS: error= 4.06D-05 at cycle   2 NSaved=   2.
 NSaved= 2 IEnMin= 2 EnMin= -1581.45513971771     IErMin= 2 ErrMin= 4.06D-05
 ErrMax= 4.06D-05 EMaxC= 1.00D-01 BMatC= 1.00D-06 BMatP= 1.43D-05
 IDIUse=1 WtCom= 1.00D+00 WtEn= 0.00D+00
 Coeff-Com:  0.531D-01 0.947D+00
 Coeff:      0.531D-01 0.947D+00
 Gap=     0.271 Goal=   None    Shift=    0.000
 RMSDP=3.69D-06 MaxDP=2.28D-04 DE=-1.18D-05 OVMax= 4.25D-04

 Cycle  10  Pass 1  IDiag  1:
 RMSU=  2.44D-06    CP:  1.00D+00  1.04D+00
 FoFJK:  IHMeth= 1 ICntrl=     0 DoSepK=T KAlg= 1 I1Cent= 0 FoldK=F
 E= -1581.45513975874     Delta-E=       -0.000000041025 Rises=F Damp=F
 DIIS: error= 5.58D-05 at cycle   3 NSaved=   3.
 NSaved= 3 IEnMin= 3 EnMin= -1581.45513975874     IErMin= 2 ErrMin= 4.06D-05
 ErrMax= 5.58D-05 EMaxC= 1.00D-01 BMatC= 1.27D-06 BMatP= 1.00D-06
 IDIUse=1 WtCom= 1.00D+00 WtEn= 0.00D+00
 Coeff-Com: -0.411D-01 0.545D+00 0.496D+00
 Coeff:     -0.411D-01 0.545D+00 0.496D+00
 Gap=     0.271 Goal=   None    Shift=    0.000
 RMSDP=1.87D-06 MaxDP=1.70D-04 DE=-4.10D-08 OVMax= 1.70D-04

 Cycle  11  Pass 1  IDiag  1:
 RMSU=  7.20D-07    CP:  1.00D+00  1.06D+00  5.59D-01
 FoFJK:  IHMeth= 1 ICntrl=     0 DoSepK=T KAlg= 1 I1Cent= 0 FoldK=F
 E= -1581.45514084698     Delta-E=       -0.000001088240 Rises=F Damp=F
 DIIS: error= 6.73D-06 at cycle   4 NSaved=   4.
 NSaved= 4 IEnMin= 4 EnMin= -1581.45514084698     IErMin= 4 ErrMin= 6.73D-06
 ErrMax= 6.73D-06 EMaxC= 1.00D-01 BMatC= 2.24D-08 BMatP= 1.00D-06
 IDIUse=1 WtCom= 1.00D+00 WtEn= 0.00D+00
 Coeff-Com: -0.172D-01 0.123D+00 0.154D+00 0.741D+00
 Coeff:     -0.172D-01 0.123D+00 0.154D+00 0.741D+00
 Gap=     0.271 Goal=   None    Shift=    0.000
 RMSDP=3.62D-07 MaxDP=3.48D-05 DE=-1.09D-06 OVMax= 4.35D-05

 Cycle  12  Pass 1  IDiag  1:
 RMSU=  2.36D-07    CP:  1.00D+00  1.06D+00  5.95D-01  1.05D+00
 FoFJK:  IHMeth= 1 ICntrl=     0 DoSepK=T KAlg= 1 I1Cent= 0 FoldK=F
 E= -1581.45514086931     Delta-E=       -0.000000022328 Rises=F Damp=F
 DIIS: error= 3.93D-06 at cycle   5 NSaved=   5.
 NSaved= 5 IEnMin= 5 EnMin= -1581.45514086931     IErMin= 5 ErrMin= 3.93D-06
 ErrMax= 3.93D-06 EMaxC= 1.00D-01 BMatC= 7.18D-09 BMatP= 2.24D-08
 IDIUse=1 WtCom= 1.00D+00 WtEn= 0.00D+00
 Coeff-Com: -0.406D-03-0.386D-01-0.203D-01 0.357D+00 0.702D+00
 Coeff:     -0.406D-03-0.386D-01-0.203D-01 0.357D+00 0.702D+00
 Gap=     0.271 Goal=   None    Shift=    0.000
 RMSDP=2.11D-07 MaxDP=1.51D-05 DE=-2.23D-08 OVMax= 2.48D-05

 Cycle  13  Pass 1  IDiag  1:
 RMSU=  9.53D-08    CP:  1.00D+00  1.06D+00  6.06D-01  1.20D+00  8.76D-01
 FoFJK:  IHMeth= 1 ICntrl=     0 DoSepK=T KAlg= 1 I1Cent= 0 FoldK=F
 E= -1581.45514087750     Delta-E=       -0.000000008196 Rises=F Damp=F
 DIIS: error= 5.50D-07 at cycle   6 NSaved=   6.
 NSaved= 6 IEnMin= 6 EnMin= -1581.45514087750     IErMin= 6 ErrMin= 5.50D-07
 ErrMax= 5.50D-07 EMaxC= 1.00D-01 BMatC= 5.64D-10 BMatP= 7.18D-09
 IDIUse=1 WtCom= 1.00D+00 WtEn= 0.00D+00
 Coeff-Com:  0.184D-02-0.275D-01-0.271D-01 0.437D-01 0.242D+00 0.767D+00
 Coeff:      0.184D-02-0.275D-01-0.271D-01 0.437D-01 0.242D+00 0.767D+00
 Gap=     0.271 Goal=   None    Shift=    0.000
 RMSDP=8.18D-08 MaxDP=3.21D-06 DE=-8.20D-09 OVMax= 1.40D-05

 Cycle  14  Pass 1  IDiag  1:
 RMSU=  3.66D-08    CP:  1.00D+00  1.06D+00  6.07D-01  1.25D+00  9.92D-01
                    CP:  1.05D+00
 FoFJK:  IHMeth= 1 ICntrl=     0 DoSepK=T KAlg= 1 I1Cent= 0 FoldK=F
 E= -1581.45514087858     Delta-E=       -0.000000001073 Rises=F Damp=F
 DIIS: error= 4.00D-07 at cycle   7 NSaved=   7.
 NSaved= 7 IEnMin= 7 EnMin= -1581.45514087858     IErMin= 7 ErrMin= 4.00D-07
 ErrMax= 4.00D-07 EMaxC= 1.00D-01 BMatC= 1.19D-10 BMatP= 5.64D-10
 IDIUse=1 WtCom= 1.00D+00 WtEn= 0.00D+00
 Coeff-Com:  0.782D-03-0.379D-02-0.806D-02-0.487D-01-0.340D-01 0.307D+00
 Coeff-Com:  0.787D+00
 Coeff:      0.782D-03-0.379D-02-0.806D-02-0.487D-01-0.340D-01 0.307D+00
 Coeff:      0.787D+00
 Gap=     0.271 Goal=   None    Shift=    0.000
 RMSDP=4.12D-08 MaxDP=2.41D-06 DE=-1.07D-09 OVMax= 6.85D-06

 Cycle  15  Pass 1  IDiag  1:
 RMSU=  1.42D-08    CP:  1.00D+00  1.06D+00  6.08D-01  1.27D+00  1.03D+00
                    CP:  1.24D+00  1.03D+00
 FoFJK:  IHMeth= 1 ICntrl=     0 DoSepK=T KAlg= 1 I1Cent= 0 FoldK=F
 E= -1581.45514087889     Delta-E=       -0.000000000318 Rises=F Damp=F
 DIIS: error= 1.17D-07 at cycle   8 NSaved=   8.
 NSaved= 8 IEnMin= 8 EnMin= -1581.45514087889     IErMin= 8 ErrMin= 1.17D-07
 ErrMax= 1.17D-07 EMaxC= 1.00D-01 BMatC= 1.49D-11 BMatP= 1.19D-10
 IDIUse=1 WtCom= 1.00D+00 WtEn= 0.00D+00
 Coeff-Com:  0.722D-05 0.269D-02 0.995D-03-0.223D-01-0.446D-01-0.895D-02
 Coeff-Com:  0.258D+00 0.814D+00
 Coeff:      0.722D-05 0.269D-02 0.995D-03-0.223D-01-0.446D-01-0.895D-02
 Coeff:      0.258D+00 0.814D+00
 Gap=     0.271 Goal=   None    Shift=    0.000
 RMSDP=1.63D-08 MaxDP=6.92D-07 DE=-3.18D-10 OVMax= 3.79D-06

 Cycle  16  Pass 1  IDiag  1:
 RMSU=  6.15D-09    CP:  1.00D+00  1.06D+00  6.08D-01  1.28D+00  1.04D+00
                    CP:  1.29D+00  1.20D+00  1.10D+00
 FoFJK:  IHMeth= 1 ICntrl=     0 DoSepK=T KAlg= 1 I1Cent= 0 FoldK=F
 E= -1581.45514087893     Delta-E=       -0.000000000035 Rises=F Damp=F
 DIIS: error= 6.79D-08 at cycle   9 NSaved=   9.
 NSaved= 9 IEnMin= 9 EnMin= -1581.45514087893     IErMin= 9 ErrMin= 6.79D-08
 ErrMax= 6.79D-08 EMaxC= 1.00D-01 BMatC= 3.33D-12 BMatP= 1.49D-11
 IDIUse=1 WtCom= 1.00D+00 WtEn= 0.00D+00
 Coeff-Com: -0.149D-03 0.179D-02 0.199D-02 0.846D-03-0.105D-01-0.672D-01
 Coeff-Com: -0.602D-01 0.318D+00 0.816D+00
 Coeff:     -0.149D-03 0.179D-02 0.199D-02 0.846D-03-0.105D-01-0.672D-01
 Coeff:     -0.602D-01 0.318D+00 0.816D+00
 Gap=     0.271 Goal=   None    Shift=    0.000
 RMSDP=7.59D-09 MaxDP=3.60D-07 DE=-3.55D-11 OVMax= 1.73D-06

 SCF Done:  E(RwB97XD) =  -1581.45514088     A.U. after   16 cycles
             Convg  =    0.7589D-08             -V/T =  2.0111
 KE= 1.564084834800D+03 PE=-1.127232950490D+04 EE= 4.324949896497D+03
 Leave Link  502 at Wed Apr  8 22:23:41 2020, MaxMem= 2684354560 cpu:     971.4
 (Enter /opt/g09gh/gaussian/g09/l601.exe)
 Copying SCF densities to generalized density rwf, IOpCl= 0 IROHF=0.

 **********************************************************************

            Population analysis using the SCF density.

 **********************************************************************

 Orbital symmetries:
       Occupied  (A) (A) (A) (A) (A) (A) (A) (A) (A) (A) (A) (A)
                 (A) (A) (A) (A) (A) (A) (A) (A) (A) (A) (A) (A)
                 (A) (A) (A) (A) (A) (A) (A) (A) (A) (A) (A) (A)
                 (A) (A) (A) (A) (A) (A) (A) (A) (A) (A) (A) (A)
                 (A) (A) (A) (A) (A) (A) (A) (A) (A) (A) (A) (A)
                 (A) (A) (A) (A) (A) (A) (A) (A) (A) (A) (A) (A)
                 (A) (A) (A) (A) (A) (A) (A) (A) (A) (A) (A) (A)
                 (A) (A) (A) (A) (A) (A) (A) (A) (A) (A) (A) (A)
                 (A) (A) (A) (A) (A) (A) (A) (A) (A) (A) (A) (A)
                 (A) (A) (A) (A) (A) (A) (A) (A) (A) (A) (A) (A)
                 (A) (A) (A) (A) (A) (A) (A) (A) (A) (A) (A)
       Virtual   (A) (A) (A) (A) (A) (A) (A) (A) (A) (A) (A) (A)
                 (A) (A) (A) (A) (A) (A) (A) (A) (A) (A) (A) (A)
                 (A) (A) (A) (A) (A) (A) (A) (A) (A) (A) (A) (A)
                 (A) (A) (A) (A) (A) (A) (A) (A) (A) (A) (A) (A)
                 (A) (A) (A) (A) (A) (A) (A) (A) (A) (A) (A) (A)
                 (A) (A) (A) (A) (A) (A) (A) (A) (A) (A) (A) (A)
                 (A) (A) (A) (A) (A) (A) (A) (A) (A) (A) (A) (A)
                 (A) (A) (A) (A) (A) (A) (A) (A) (A) (A) (A) (A)
                 (A) (A) (A) (A) (A) (A) (A) (A) (A) (A) (A) (A)
                 (A) (A) (A) (A) (A) (A) (A) (A) (A) (A) (A) (A)
                 (A) (A) (A) (A) (A) (A) (A) (A) (A) (A) (A) (A)
                 (A) (A) (A) (A) (A) (A) (A) (A) (A) (A) (A) (A)
                 (A) (A) (A) (A) (A) (A) (A) (A) (A) (A) (A) (A)
                 (A) (A) (A) (A) (A) (A) (A) (A) (A) (A) (A) (A)
                 (A) (A) (A) (A) (A) (A) (A) (A) (A) (A) (A) (A)
                 (A) (A) (A) (A) (A) (A) (A) (A) (A) (A) (A) (A)
                 (A) (A) (A) (A) (A) (A) (A) (A) (A) (A) (A) (A)
                 (A) (A) (A) (A) (A) (A) (A) (A) (A) (A) (A) (A)
                 (A) (A) (A) (A) (A) (A) (A) (A) (A) (A) (A) (A)
                 (A) (A) (A) (A) (A) (A) (A) (A) (A) (A) (A) (A)
                 (A) (A) (A) (A) (A) (A) (A) (A) (A) (A) (A) (A)
                 (A) (A) (A) (A) (A) (A) (A) (A) (A) (A) (A) (A)
                 (A) (A) (A) (A) (A) (A) (A) (A) (A) (A) (A) (A)
                 (A) (A) (A) (A) (A) (A) (A) (A) (A) (A) (A) (A)
                 (A) (A) (A) (A) (A) (A) (A) (A) (A) (A) (A) (A)
                 (A) (A) (A) (A) (A) (A) (A) (A) (A) (A) (A) (A)
                 (A) (A) (A) (A) (A) (A) (A) (A) (A) (A) (A) (A)
                 (A) (A) (A) (A) (A) (A) (A) (A) (A) (A) (A) (A)
                 (A) (A) (A) (A) (A) (A) (A) (A) (A) (A) (A) (A)
                 (A) (A) (A) (A) (A) (A) (A) (A) (A) (A) (A) (A)
                 (A) (A) (A) (A) (A) (A) (A) (A) (A) (A) (A) (A)
                 (A) (A) (A) (A) (A) (A) (A) (A) (A) (A) (A) (A)
                 (A) (A) (A) (A) (A) (A) (A) (A) (A) (A) (A) (A)
                 (A) (A) (A) (A) (A) (A) (A) (A) (A) (A) (A) (A)
                 (A) (A) (A) (A) (A) (A) (A) (A) (A) (A) (A) (A)
                 (A) (A) (A) (A) (A) (A) (A) (A) (A) (A) (A) (A)
                 (A) (A) (A) (A) (A) (A) (A) (A) (A) (A) (A) (A)
                 (A) (A) (A) (A) (A) (A) (A) (A) (A) (A) (A) (A)
                 (A) (A) (A) (A) (A) (A) (A) (A) (A) (A) (A) (A)
                 (A) (A) (A) (A) (A) (A) (A) (A) (A) (A) (A) (A)
                 (A) (A) (A) (A) (A) (A)
 The electronic state is 1-A.
 Alpha  occ. eigenvalues --  -19.22852 -14.49255 -14.48048 -14.47114 -14.46242
 Alpha  occ. eigenvalues --  -14.45750 -14.45236 -14.45098 -10.41695 -10.40166
 Alpha  occ. eigenvalues --  -10.38982 -10.37919 -10.37675 -10.36762 -10.36078
 Alpha  occ. eigenvalues --  -10.36010 -10.35679 -10.34391 -10.34236 -10.33944
 Alpha  occ. eigenvalues --  -10.33333 -10.33277 -10.33112 -10.32197 -10.31867
 Alpha  occ. eigenvalues --  -10.31794 -10.31732 -10.31732 -10.31599 -10.31517
 Alpha  occ. eigenvalues --  -10.31144 -10.30978 -10.30873 -10.30486 -10.30465
 Alpha  occ. eigenvalues --  -10.29887 -10.29304  -1.13083  -1.11118  -1.04273
 Alpha  occ. eigenvalues --   -1.04021  -1.03413  -1.02730  -1.00450  -0.99603
 Alpha  occ. eigenvalues --   -0.96090  -0.94498  -0.91523  -0.88735  -0.87956
 Alpha  occ. eigenvalues --   -0.86461  -0.86074  -0.84936  -0.83833  -0.83631
 Alpha  occ. eigenvalues --   -0.82274  -0.79682  -0.78166  -0.77094  -0.75553
 Alpha  occ. eigenvalues --   -0.73152  -0.72452  -0.72099  -0.71568  -0.70523
 Alpha  occ. eigenvalues --   -0.70214  -0.69209  -0.67992  -0.66262  -0.64036
 Alpha  occ. eigenvalues --   -0.63259  -0.62030  -0.60919  -0.60278  -0.59520
 Alpha  occ. eigenvalues --   -0.58236  -0.58027  -0.56640  -0.56380  -0.55996
 Alpha  occ. eigenvalues --   -0.55613  -0.55327  -0.54607  -0.54273  -0.54039
 Alpha  occ. eigenvalues --   -0.53566  -0.53422  -0.52919  -0.52524  -0.51398
 Alpha  occ. eigenvalues --   -0.51024  -0.50980  -0.50804  -0.50634  -0.49994
 Alpha  occ. eigenvalues --   -0.49727  -0.49077  -0.49021  -0.48719  -0.48304
 Alpha  occ. eigenvalues --   -0.47504  -0.46514  -0.46052  -0.45371  -0.45034
 Alpha  occ. eigenvalues --   -0.44889  -0.44605  -0.44328  -0.44145  -0.43825
 Alpha  occ. eigenvalues --   -0.43379  -0.42568  -0.42138  -0.41138  -0.40865
 Alpha  occ. eigenvalues --   -0.39679  -0.37948  -0.36787  -0.35986  -0.35111
 Alpha  occ. eigenvalues --   -0.34644  -0.34403  -0.33641  -0.32938  -0.32909
 Alpha  occ. eigenvalues --   -0.32402  -0.32080  -0.31587  -0.30014  -0.27733
 Alpha  occ. eigenvalues --   -0.26939
 Alpha virt. eigenvalues --    0.00174   0.03061   0.03759   0.05200   0.05687
 Alpha virt. eigenvalues --    0.06984   0.07088   0.08062   0.09711   0.10319
 Alpha virt. eigenvalues --    0.10963   0.12677   0.13342   0.14168   0.15211
 Alpha virt. eigenvalues --    0.16190   0.16460   0.17323   0.17853   0.18495
 Alpha virt. eigenvalues --    0.19281   0.20033   0.20350   0.20607   0.21386
 Alpha virt. eigenvalues --    0.22098   0.22399   0.22821   0.23327   0.23612
 Alpha virt. eigenvalues --    0.23955   0.24246   0.24620   0.24863   0.25439
 Alpha virt. eigenvalues --    0.25669   0.25931   0.25992   0.26877   0.27042
 Alpha virt. eigenvalues --    0.27381   0.27907   0.28150   0.28544   0.28873
 Alpha virt. eigenvalues --    0.29309   0.29730   0.30102   0.30736   0.31041
 Alpha virt. eigenvalues --    0.31292   0.31621   0.32489   0.32943   0.33630
 Alpha virt. eigenvalues --    0.34118   0.35259   0.36369   0.37072   0.37571
 Alpha virt. eigenvalues --    0.38037   0.38482   0.39130   0.39470   0.39935
 Alpha virt. eigenvalues --    0.39954   0.40758   0.40914   0.41491   0.42083
 Alpha virt. eigenvalues --    0.43712   0.45027   0.45736   0.46844   0.47507
 Alpha virt. eigenvalues --    0.48286   0.49679   0.51397   0.52716   0.53656
 Alpha virt. eigenvalues --    0.55082   0.55989   0.57176   0.57499   0.57989
 Alpha virt. eigenvalues --    0.58417   0.58951   0.59180   0.60073   0.60161
 Alpha virt. eigenvalues --    0.60418   0.61049   0.61434   0.61472   0.61907
 Alpha virt. eigenvalues --    0.62145   0.62194   0.62387   0.63920   0.64144
 Alpha virt. eigenvalues --    0.64291   0.64609   0.65202   0.65506   0.65614
 Alpha virt. eigenvalues --    0.65775   0.65917   0.66552   0.66612   0.66715
 Alpha virt. eigenvalues --    0.67205   0.67423   0.67695   0.68134   0.68277
 Alpha virt. eigenvalues --    0.68709   0.69224   0.69520   0.69766   0.70426
 Alpha virt. eigenvalues --    0.70748   0.71109   0.71334   0.71555   0.72182
 Alpha virt. eigenvalues --    0.72725   0.73516   0.73844   0.74167   0.74356
 Alpha virt. eigenvalues --    0.75045   0.75138   0.75735   0.76367   0.77009
 Alpha virt. eigenvalues --    0.77839   0.78786   0.79369   0.79759   0.80057
 Alpha virt. eigenvalues --    0.80631   0.81443   0.81535   0.82005   0.82154
 Alpha virt. eigenvalues --    0.83665   0.83850   0.84311   0.84798   0.84902
 Alpha virt. eigenvalues --    0.85309   0.86242   0.86701   0.87549   0.87948
 Alpha virt. eigenvalues --    0.88341   0.88614   0.89711   0.90044   0.90507
 Alpha virt. eigenvalues --    0.90732   0.91793   0.91960   0.92348   0.92676
 Alpha virt. eigenvalues --    0.93094   0.93540   0.93726   0.94171   0.94429
 Alpha virt. eigenvalues --    0.94659   0.94738   0.95334   0.95818   0.96141
 Alpha virt. eigenvalues --    0.96845   0.96917   0.97684   0.98379   0.98675
 Alpha virt. eigenvalues --    0.98963   0.99208   0.99680   1.00236   1.00584
 Alpha virt. eigenvalues --    1.01313   1.02061   1.02417   1.02809   1.03150
 Alpha virt. eigenvalues --    1.03814   1.04480   1.05354   1.05706   1.06427
 Alpha virt. eigenvalues --    1.06925   1.06978   1.07756   1.07917   1.08565
[...]
                 (A) (A) (A) (A) (A) (A) (A) (A) (A) (A) (A) (A)
                 (A) (A) (A) (A) (A) (A) (A) (A) (A) (A) (A) (A)
                 (A) (A) (A) (A) (A) (A) (A) (A) (A) (A) (A) (A)
                 (A) (A) (A) (A) (A) (A) (A) (A) (A) (A) (A) (A)
                 (A) (A) (A) (A) (A) (A) (A) (A) (A) (A) (A) (A)
                 (A) (A) (A) (A) (A) (A) (A) (A) (A) (A) (A) (A)
                 (A) (A) (A) (A) (A) (A) (A) (A) (A) (A) (A) (A)
                 (A) (A) (A) (A) (A) (A) (A) (A) (A) (A) (A) (A)
                 (A) (A) (A) (A) (A) (A) (A) (A) (A) (A) (A) (A)
                 (A) (A) (A) (A) (A) (A) (A) (A) (A) (A) (A) (A)
                 (A) (A) (A) (A) (A) (A) (A) (A) (A) (A) (A) (A)
                 (A) (A) (A) (A) (A) (A) (A) (A) (A) (A) (A) (A)
                 (A) (A) (A) (A) (A) (A) (A) (A) (A) (A) (A) (A)
                 (A) (A) (A) (A) (A) (A) (A) (A) (A) (A) (A) (A)
                 (A) (A) (A) (A) (A) (A) (A) (A) (A) (A) (A) (A)
                 (A) (A) (A) (A) (A) (A) (A) (A) (A) (A) (A) (A)
                 (A) (A) (A) (A) (A) (A) (A) (A) (A) (A) (A) (A)
                 (A) (A) (A) (A) (A) (A) (A) (A) (A) (A) (A) (A)
                 (A) (A) (A) (A) (A) (A) (A) (A) (A) (A) (A) (A)
                 (A) (A) (A) (A) (A) (A) (A) (A) (A) (A) (A) (A)
                 (A) (A) (A) (A) (A) (A) (A) (A) (A) (A) (A) (A)
                 (A) (A) (A) (A) (A) (A) (A) (A) (A) (A) (A) (A)
                 (A) (A) (A) (A) (A) (A) (A) (A) (A) (A) (A) (A)
                 (A) (A) (A) (A) (A) (A) (A) (A) (A) (A) (A) (A)
                 (A) (A) (A) (A) (A) (A) (A) (A) (A) (A) (A) (A)
                 (A) (A) (A) (A) (A) (A) (A) (A) (A) (A) (A) (A)
                 (A) (A) (A) (A) (A) (A) (A) (A) (A) (A) (A) (A)
                 (A) (A) (A) (A) (A) (A) (A) (A) (A) (A) (A) (A)
                 (A) (A) (A) (A) (A) (A) (A) (A) (A) (A) (A) (A)
                 (A) (A) (A) (A) (A) (A) (A) (A) (A) (A) (A) (A)
                 (A) (A) (A) (A) (A) (A) (A) (A) (A) (A) (A) (A)
                 (A) (A) (A) (A) (A) (A)
 The electronic state is 1-A.
 Alpha  occ. eigenvalues --  -19.23412 -14.49282 -14.48321 -14.46751 -14.46096
 Alpha  occ. eigenvalues --  -14.45764 -14.43617 -14.43135 -10.41778 -10.40081
 Alpha  occ. eigenvalues --  -10.37614 -10.36338 -10.35324 -10.35084 -10.34623
 Alpha  occ. eigenvalues --  -10.34135 -10.34016 -10.33622 -10.32863 -10.32367
 Alpha  occ. eigenvalues --  -10.31860 -10.31492 -10.31179 -10.30936 -10.30708
 Alpha  occ. eigenvalues --  -10.30688 -10.30677 -10.30585 -10.30534 -10.30403
 Alpha  occ. eigenvalues --  -10.30377 -10.30220 -10.30020 -10.29974 -10.29575
 Alpha  occ. eigenvalues --  -10.28740 -10.28405  -1.13444  -1.12295  -1.06321
 Alpha  occ. eigenvalues --   -1.04565  -1.03829  -1.03634  -1.00715  -0.99558
 Alpha  occ. eigenvalues --   -0.96086  -0.94671  -0.93098  -0.89777  -0.88124
 Alpha  occ. eigenvalues --   -0.87388  -0.86228  -0.85399  -0.84542  -0.83783
 Alpha  occ. eigenvalues --   -0.81888  -0.79581  -0.78270  -0.77798  -0.76320
 Alpha  occ. eigenvalues --   -0.73881  -0.73301  -0.73025  -0.72621  -0.70870
 Alpha  occ. eigenvalues --   -0.70314  -0.69615  -0.68039  -0.66413  -0.65150
 Alpha  occ. eigenvalues --   -0.63656  -0.63408  -0.62228  -0.61762  -0.60211
 Alpha  occ. eigenvalues --   -0.58848  -0.58045  -0.57570  -0.56611  -0.56100
 Alpha  occ. eigenvalues --   -0.55817  -0.55236  -0.55134  -0.54965  -0.54255
 Alpha  occ. eigenvalues --   -0.53867  -0.53239  -0.53154  -0.52612  -0.52174
 Alpha  occ. eigenvalues --   -0.51912  -0.51510  -0.51370  -0.50999  -0.50575
 Alpha  occ. eigenvalues --   -0.50365  -0.50116  -0.49974  -0.49497  -0.48335
 Alpha  occ. eigenvalues --   -0.47217  -0.46906  -0.46619  -0.46319  -0.46211
 Alpha  occ. eigenvalues --   -0.45762  -0.45236  -0.44798  -0.44045  -0.43932
 Alpha  occ. eigenvalues --   -0.43328  -0.43016  -0.42142  -0.41766  -0.41439
 Alpha  occ. eigenvalues --   -0.40964  -0.40777  -0.39912  -0.38187  -0.37592
 Alpha  occ. eigenvalues --   -0.35821  -0.35293  -0.34001  -0.33447  -0.33373
 Alpha  occ. eigenvalues --   -0.32818  -0.31904  -0.30772  -0.29115  -0.27080
 Alpha  occ. eigenvalues --   -0.24996
 Alpha virt. eigenvalues --   -0.00291   0.02872   0.03586   0.04480   0.06433
 Alpha virt. eigenvalues --    0.07258   0.08204   0.10370   0.13887   0.14814
 Alpha virt. eigenvalues --    0.15729   0.16386   0.17252   0.17441   0.18251
 Alpha virt. eigenvalues --    0.19198   0.19759   0.20074   0.20198   0.20629
 Alpha virt. eigenvalues --    0.21233   0.21900   0.22614   0.22766   0.23135
 Alpha virt. eigenvalues --    0.23343   0.23537   0.24192   0.24361   0.24838
 Alpha virt. eigenvalues --    0.25118   0.25125   0.26082   0.26488   0.26550
 Alpha virt. eigenvalues --    0.27065   0.27431   0.27680   0.27996   0.28429
 Alpha virt. eigenvalues --    0.28563   0.28865   0.29436   0.29708   0.30282
 Alpha virt. eigenvalues --    0.31014   0.31165   0.31763   0.32124   0.32246
 Alpha virt. eigenvalues --    0.32892   0.33214   0.33675   0.33954   0.34427
 Alpha virt. eigenvalues --    0.35001   0.36037   0.36537   0.37755   0.38123
 Alpha virt. eigenvalues --    0.38651   0.38809   0.39299   0.40138   0.40739
 Alpha virt. eigenvalues --    0.41233   0.41465   0.42063   0.42207   0.42712
 Alpha virt. eigenvalues --    0.43814   0.45042   0.46207   0.47058   0.47330
 Alpha virt. eigenvalues --    0.48355   0.49428   0.51936   0.53014   0.54229
 Alpha virt. eigenvalues --    0.55739   0.56536   0.57256   0.57912   0.58309
 Alpha virt. eigenvalues --    0.59047   0.59372   0.59611   0.60510   0.60897
 Alpha virt. eigenvalues --    0.61370   0.61486   0.61681   0.62222   0.62697
 Alpha virt. eigenvalues --    0.63200   0.63354   0.63863   0.64090   0.64889
 Alpha virt. eigenvalues --    0.64932   0.65337   0.65508   0.65529   0.65821
 Alpha virt. eigenvalues --    0.66022   0.66271   0.66897   0.66982   0.67472
 Alpha virt. eigenvalues --    0.67616   0.67787   0.68307   0.68614   0.69045
 Alpha virt. eigenvalues --    0.69766   0.70017   0.70550   0.71042   0.71240
 Alpha virt. eigenvalues --    0.71762   0.72092   0.72267   0.72585   0.73055
 Alpha virt. eigenvalues --    0.73334   0.73461   0.74255   0.75226   0.75349
 Alpha virt. eigenvalues --    0.75594   0.75945   0.76255   0.76931   0.77677
 Alpha virt. eigenvalues --    0.77801   0.79111   0.80382   0.80454   0.81763
 Alpha virt. eigenvalues --    0.81971   0.82305   0.83130   0.83261   0.84194
 Alpha virt. eigenvalues --    0.84653   0.85715   0.86629   0.86888   0.87423
 Alpha virt. eigenvalues --    0.88278   0.89046   0.89675   0.90199   0.90738
 Alpha virt. eigenvalues --    0.90925   0.91157   0.91468   0.92208   0.92295
 Alpha virt. eigenvalues --    0.92392   0.92543   0.93563   0.93885   0.94046
 Alpha virt. eigenvalues --    0.94341   0.94529   0.94676   0.95250   0.95603
 Alpha virt. eigenvalues --    0.95948   0.96540   0.97597   0.98196   0.98359
 Alpha virt. eigenvalues --    0.98516   0.99008   0.99059   0.99701   0.99825
 Alpha virt. eigenvalues --    1.00450   1.00624   1.01371   1.01925   1.02020
 Alpha virt. eigenvalues --    1.02500   1.02652   1.03219   1.03673   1.04408
 Alpha virt. eigenvalues --    1.05619   1.05881   1.06645   1.06766   1.07379
 Alpha virt. eigenvalues --    1.07617   1.08219   1.08749   1.08901   1.09056
 Alpha virt. eigenvalues --    1.10209   1.10698   1.11025   1.11714   1.12087
 Alpha virt. eigenvalues --    1.12635   1.13094   1.13792   1.14266   1.15632
 Alpha virt. eigenvalues --    1.16461   1.16986   1.17695   1.18300   1.19273
 Alpha virt. eigenvalues --    1.20081   1.21180   1.21739   1.23134   1.23417
 Alpha virt. eigenvalues --    1.24745   1.25514   1.26098   1.26961   1.27421
 Alpha virt. eigenvalues --    1.29015   1.29353   1.29702   1.30411   1.30872
 Alpha virt. eigenvalues --    1.31923   1.33068   1.33759   1.33900   1.34762
 Alpha virt. eigenvalues --    1.35488   1.36944   1.37300   1.37890   1.38645
 Alpha virt. eigenvalues --    1.39297   1.42346   1.43367   1.43715   1.44583
 Alpha virt. eigenvalues --    1.46483   1.47300   1.47752   1.48440   1.48548
 Alpha virt. eigenvalues --    1.48646   1.49181   1.49464   1.50258   1.51634
 Alpha virt. eigenvalues --    1.51969   1.52735   1.53658   1.54082   1.54530
 Alpha virt. eigenvalues --    1.55184   1.55560   1.56282   1.56871   1.56981
 Alpha virt. eigenvalues --    1.57522   1.57807   1.58457   1.59180   1.59302
 Alpha virt. eigenvalues --    1.59659   1.60104   1.60822   1.61986   1.62520
 Alpha virt. eigenvalues --    1.63914   1.64943   1.65123   1.65691   1.67669
 Alpha virt. eigenvalues --    1.68408   1.69749   1.72013   1.75170   1.76228
 Alpha virt. eigenvalues --    1.78748   1.80597   1.81507   1.82525   1.84275
 Alpha virt. eigenvalues --    1.84719   1.85643   1.86429   1.86958   1.87887
 Alpha virt. eigenvalues --    1.87957   1.88947   1.89940   1.90637   1.90825
 Alpha virt. eigenvalues --    1.91214   1.92461   1.92803   1.93434   1.94263
 Alpha virt. eigenvalues --    1.94425   1.94935   1.95569   1.96612   1.97940
 Alpha virt. eigenvalues --    1.98716   1.99603   2.00122   2.00241   2.01196
 Alpha virt. eigenvalues --    2.01310   2.01499   2.01783   2.02572   2.03678
 Alpha virt. eigenvalues --    2.05537   2.06499   2.06637   2.07324   2.08211
 Alpha virt. eigenvalues --    2.08611   2.08851   2.09735   2.10838   2.11394
 Alpha virt. eigenvalues --    2.12239   2.12579   2.13555   2.14167   2.14817
 Alpha virt. eigenvalues --    2.15877   2.16188   2.17688   2.19549   2.20432
 Alpha virt. eigenvalues --    2.21104   2.21284   2.21688   2.22414   2.22784
 Alpha virt. eigenvalues --    2.22976   2.23632   2.23942   2.24603   2.25134
 Alpha virt. eigenvalues --    2.25944   2.26147   2.26369   2.26889   2.28050
 Alpha virt. eigenvalues --    2.28544   2.29386   2.29951   2.31590   2.32594
 Alpha virt. eigenvalues --    2.34100   2.34928   2.36375   2.37132   2.37172
 Alpha virt. eigenvalues --    2.37914   2.38059   2.38213   2.39476   2.39887
 Alpha virt. eigenvalues --    2.40252   2.40812   2.42121   2.42800   2.43235
 Alpha virt. eigenvalues --    2.43391   2.44334   2.44770   2.44890   2.46220
 Alpha virt. eigenvalues --    2.46451   2.47885   2.48104   2.49413   2.49811
 Alpha virt. eigenvalues --    2.50305   2.50931   2.52051   2.53871   2.56001
 Alpha virt. eigenvalues --    2.58455   2.59876   2.60856   2.62124   2.63396
 Alpha virt. eigenvalues --    2.64710   2.65079   2.65953   2.66089   2.67627
 Alpha virt. eigenvalues --    2.68705   2.70008   2.71800   2.72056   2.72666
 Alpha virt. eigenvalues --    2.74010   2.74385   2.75463   2.76174   2.76866
 Alpha virt. eigenvalues --    2.77168   2.78480   2.78950   2.80937   2.81730
 Alpha virt. eigenvalues --    2.82747   2.83148   2.83722   2.84482   2.85525
 Alpha virt. eigenvalues --    2.86030   2.86478   2.87314   2.88411   2.89256
 Alpha virt. eigenvalues --    2.89962   2.91945   2.92699   2.93387   2.94567
 Alpha virt. eigenvalues --    2.94833   2.96132   2.97873   3.01369   3.02991
 Alpha virt. eigenvalues --    3.04141   3.06693   3.09290   3.10083   3.12016
 Alpha virt. eigenvalues --    3.18948   3.26896   3.29152   3.39174   3.41512
 Alpha virt. eigenvalues --    3.45037   3.53455   3.56406   3.57587   4.12659
 Alpha virt. eigenvalues --    4.13539   4.15201   4.16852   4.18260   4.19135
 Alpha virt. eigenvalues --    4.19562   4.20448   4.21989   4.23544   4.25286
 Alpha virt. eigenvalues --    4.26033   4.27471   4.28698   4.30757   4.31717
 Alpha virt. eigenvalues --    4.33382   4.34587   4.36932   4.40131   4.40369
 Alpha virt. eigenvalues --    4.41611   4.44511   4.46128   4.49148   4.49435
 Alpha virt. eigenvalues --    4.49745   4.52845   4.57341   4.60739   4.61922
 Alpha virt. eigenvalues --    4.64161   4.67477   4.69408   4.79023   4.85075
 Alpha virt. eigenvalues --    4.89517
          Condensed to atoms (all electrons):
 Mulliken atomic charges:
              1
     1  C   -0.197840
     2  C   -0.154402
     3  C    0.035508
     4  C    0.009588
     5  N   -0.437521
     6  C    0.035725
     7  C    0.295138
     8  C   -0.254763
     9  C    0.049019
    10  N   -0.493035
    11  C    0.714325
    12  N   -0.568378
    13  N   -0.802008
    14  C    0.291448
    15  C    0.119867
    16  C   -0.240380
    17  C   -0.191301
    18  C    0.358149
    19  C   -0.269686
    20  N   -0.757963
    21  C    0.585720
    22  C    0.015187
    23  C   -0.205356
    24  C   -0.217894
    25  C    0.155969
    26  C   -0.223074
    27  C   -0.178383
    28  C   -0.263562
    29  N   -0.382221
    30  C   -0.183898
    31  C   -0.181771
    32  N   -0.385718
    33  C   -0.349274
    34  C   -0.182631
    35  C   -0.186518
    36  O   -0.513273
    37  C   -0.607371
    38  H    0.186139
    39  H    0.186726
    40  H    0.198119
    41  H    0.179045
    42  H    0.180745
    43  H    0.189490
    44  H    0.369210
    45  H    0.160820
    46  H    0.213083
    47  H    0.199360
    48  H    0.361560
    49  H    0.185469
    50  H    0.172060
    51  H    0.163617
    52  H    0.195607
    53  H    0.170281
    54  H    0.168920
    55  H    0.148152
    56  H    0.158354
    57  H    0.141660
    58  H    0.174888
    59  H    0.135269
    60  H    0.164119
    61  H    0.167874
    62  H    0.153489
    63  H    0.172919
    64  H    0.159409
    65  H    0.154991
    66  H    0.178043
    67  H    0.182743
    68  H    0.190420
 Sum of Mulliken atomic charges =   0.00000
 Mulliken charges with hydrogens summed into heavy atoms:
              1
     1  C   -0.011701
     2  C    0.032324
     3  C    0.035508
     4  C    0.207706
     5  N   -0.437521
     6  C    0.214770
     7  C    0.295138
     8  C   -0.074018
     9  C    0.238509
    10  N   -0.493035
    11  C    0.714325
    12  N   -0.568378
    13  N   -0.432798
    14  C    0.291448
    15  C    0.119867
    16  C   -0.079559
    17  C    0.021782
    18  C    0.358149
    19  C   -0.070326
    20  N   -0.396403
    21  C    0.585720
    22  C    0.015187
    23  C   -0.019887
    24  C   -0.045834
    25  C    0.155969
    26  C   -0.059457
    27  C    0.017224
    28  C    0.075639
    29  N   -0.382221
    30  C    0.122607
    31  C    0.134777
    32  N   -0.385718
    33  C    0.117989
    34  C    0.143777
    35  C    0.127881
    36  O   -0.513273
    37  C   -0.056166
 Sum of Mulliken charges with hydrogens summed into heavy atoms =   0.00000
 Electronic spatial extent (au):  <R**2>=          21211.1736
 Charge=              0.0000 electrons
 Dipole moment (field-independent basis, Debye):
    X=              0.5799    Y=              6.5718    Z=              0.4329  Tot=              6.6115
 Quadrupole moment (field-independent basis, Debye-Ang):
   XX=           -193.2967   YY=           -202.5091   ZZ=           -220.4850
   XY=              3.1062   XZ=             -1.2852   YZ=             -5.2227
 Traceless Quadrupole moment (field-independent basis, Debye-Ang):
   XX=             12.1336   YY=              2.9212   ZZ=            -15.0548
   XY=              3.1062   XZ=             -1.2852   YZ=             -5.2227
 Octapole moment (field-independent basis, Debye-Ang**2):
  XXX=             80.0342  YYY=            204.4094  ZZZ=             11.3495  XYY=             33.4191
  XXY=            -43.1296  XXZ=             31.6336  XZZ=            -22.7191  YZZ=              1.3428
  YYZ=             17.7305  XYZ=              2.2849
 Hexadecapole moment (field-independent basis, Debye-Ang**3):
 XXXX=         -18568.8284 YYYY=          -7865.2609 ZZZZ=          -1607.7905 XXXY=            -50.9420
 XXXZ=           -102.9655 YYYX=            149.1150 YYYZ=            -76.3259 ZZZX=            -50.0167
 ZZZY=             15.0370 XXYY=          -4005.2942 XXZZ=          -3409.0435 YYZZ=          -1721.5005
 XXYZ=            -52.7952 YYXZ=            -15.9929 ZZXY=            -24.6091
 N-N= 3.895108052488D+03 E-N=-1.146181165027D+04  KE= 1.567155740515D+03
 No NMR shielding tensors so no spin-rotation constants.
 Leave Link  601 at Thu Apr  9 00:31:30 2020, MaxMem= 2684354560 cpu:       2.9
 (Enter /opt/g09gh/gaussian/g09/l9999.exe)
 1\1\GINC-NODE80\FOpt\RwB97XD\6-31G(d)\C29H31N7O1\BDW2292\09-Apr-2020\0
 \\#P opt=(,maxcycle=400) wB97XD/6-31G* MaxDisk=100GB\\MOLECULE0 Rotata
 ble Bond Optimization on node37.bme.utexas.edu\\0,1\C,-0.6538788906,3.
 3106741613,3.4932705367\C,0.5554631411,2.8550379874,4.0041232485\C,1.3
 179714978,1.9669399132,3.2473861695\C,0.8145443724,1.5900567445,1.9951
 49895\N,-0.3435539962,2.0161445558,1.4941031921\C,-1.0608779895,2.8595
 181542,2.2424087883\C,2.5979263365,1.3872010247,3.7273901359\C,3.41919
 97504,1.9933127116,4.6737543895\C,4.573211843,1.2921929469,5.021806876
 5\N,4.9105829181,0.120520756,4.5006624976\C,4.0545976516,-0.3704133946
 ,3.5814649648\N,2.9226590914,0.2111148083,3.1850097505\N,4.4227680666,
 -1.5725028638,3.0418243036\C,3.8226456787,-2.3303247783,2.0188050976\C
 ,4.5822277779,-3.3467903453,1.4046240989\C,3.982242315,-4.0718600872,0
 .3786318471\C,2.6867970204,-3.8302405137,-0.0750947404\C,1.9568430804,
 -2.8239558702,0.5502694637\C,2.5155910509,-2.1035241173,1.6055482499\N
 ,0.6612439454,-2.4225563221,0.1850273085\C,-0.1022167389,-2.7787745914
 ,-0.8969879466\C,-1.3130442299,-1.9027161899,-1.0540423135\C,-1.277575
 1766,-0.5396072097,-0.7455134\C,-2.4231864763,0.2343938423,-0.85629214
 36\C,-3.6340014138,-0.3333146406,-1.252739015\C,-3.6482560898,-1.68357
 38414,-1.6135859525\C,-2.5003738551,-2.4623809564,-1.5244976157\C,-4.9
 146472868,0.4851088096,-1.2289541988\N,-5.6114770099,0.5960065421,0.04
 36004406\C,-5.044682923,1.4715387502,1.0639540976\C,-4.1322159657,0.75
 82492677,2.07837165\N,-4.7465789473,-0.4291839896,2.6657029383\C,-5.76
 42025882,-0.133596256,3.658505757\C,-5.2016447488,-1.3246928295,1.6045
 589121\C,-6.1475516229,-0.6392581432,0.6044894766\O,0.1495152447,-3.70
 86168029,-1.6448286478\C,5.9992862225,-3.6332552678,1.8321806338\H,-1.
 2771819836,3.9941435837,4.0597607992\H,0.8840215741,3.1661611566,4.991
 6111825\H,1.3942115146,0.9114233679,1.3745744104\H,-2.0088121494,3.185
 6708563,1.8198116579\H,3.1989230272,2.9596238295,5.1101734162\H,5.2629
 914197,1.7007540104,5.7576245794\H,5.31177872,-1.8948818732,3.39387934
 64\H,4.5591546712,-4.8578566117,-0.1022384494\H,2.2566854062,-4.396138
 3965,-0.8900359906\H,1.9388522139,-1.331240148,2.0914863232\H,0.265416
 5306,-1.7072692298,0.7769517147\H,-0.3555649082,-0.056853438,-0.434871
 1076\H,-2.367185337,1.2905017712,-0.6050724731\H,-4.5774579202,-2.1346
 070739,-1.9548954074\H,-2.5122882087,-3.5120450436,-1.800754076\H,-4.6
 975472651,1.5043817287,-1.5706937601\H,-5.6221643213,0.0558692837,-1.9
 499251955\H,-4.4995592958,2.2833115366,0.5675432094\H,-5.8805123474,1.
 9390689996,1.6060978182\H,-3.8610253095,1.4494856618,2.8866262668\H,-3
 .2017240431,0.4456766075,1.5916164072\H,-6.6470176225,0.4159013506,3.2
 867447454\H,-5.3179988327,0.462082507,4.4625915101\H,-6.1194077248,-1.
 0733613515,4.0952313238\H,-5.6995839103,-2.1884153311,2.0617272853\H,-
 4.3144615076,-1.6962911584,1.0787162356\H,-7.0966404165,-0.402696906,1
 .1081538966\H,-6.3902677052,-1.3232486945,-0.2164699455\H,6.0597030079
 ,-3.9626186313,2.8785378632\H,6.645367947,-2.7524069404,1.7235658001\H
 ,6.4318437211,-4.4296983884,1.2214408677\\Version=EM64L-G09RevA.02\Sta
 te=1-A\HF=-1581.763216\RMSD=5.866e-09\RMSF=4.446e-06\Dipole=0.050687,1
 .8506631,1.8271845\Quadrupole=7.7740496,0.1655673,-7.9396169,-0.142855
 4,5.6873633,5.7353421\PG=C01 [X(C29H31N7O1)]\\@


 THERE IS NOTHING NOBLE IN BEING SUPERIOR TO SOME OTHER MAN.
 TRUE NOBILITY IS BEING SUPERIOR TO YOUR FORMER SELF.

                                                   -- HINDU PROVERB
 Job cpu time:  0 days 12 hours 58 minutes 51.1 seconds.
 File lengths (MBytes):  RWF=    244 Int=      0 D2E=      0 Chk=     25 Scr=      1
 Normal termination of Gaussian 09 at Thu Apr  9 00:31:31 2020.
