68
MOLECULE0-opt-23-22-21-36-191.log	Energy: -992571.3957559
C         -0.47431        4.27481       -0.77191
C          0.87020        4.19228       -0.43051
C          1.54676        2.99035       -0.63157
C          0.82047        1.92617       -1.18254
N         -0.46847        1.98978       -1.51176
C         -1.09750        3.14979       -1.30089
C          2.96864        2.78939       -0.25384
C          3.89955        3.81947       -0.15478
C          5.18552        3.44711        0.23520
N          5.54498        2.19786        0.49673
C          4.57165        1.27531        0.35472
N          3.31157        1.52381       -0.00182
N          4.96054       -0.01060        0.61355
C          4.24505       -1.21682        0.49481
C          4.96904       -2.42636        0.47960
C          4.24865       -3.60932        0.33818
C          2.86288       -3.65083        0.19545
C          2.17139       -2.44340        0.21743
C          2.85949       -1.24335        0.39409
N          0.78481       -2.30564        0.03983
C         -0.15509       -3.23285       -0.33086
C         -1.47454       -2.60138       -0.67516
C         -1.54959       -1.35847       -1.31081
C         -2.78188       -0.77906       -1.57453
C         -3.96528       -1.41012       -1.19134
C         -3.88368       -2.67755       -0.60777
C         -2.65362       -3.27460       -0.35758
C         -5.30226       -0.70426       -1.34836
N         -5.69222        0.22609       -0.29970
C         -5.02500        1.52265       -0.24768
C         -3.81509        1.57747        0.70283
N         -4.11251        1.06876        2.03894
C         -4.90117        1.97808        2.85123
C         -4.67894       -0.27454        1.94004
C         -5.91402       -0.34001        1.02628
O          0.03702       -4.43666       -0.36486
C          6.47184       -2.44188        0.59915
H         -1.03385        5.19141       -0.61919
H          1.37517        5.04541        0.01339
H          1.32471        0.98086       -1.36642
H         -2.15241        3.17653       -1.56543
H          3.66047        4.85119       -0.38090
H          5.96702        4.19734        0.33793
H          5.94180       -0.07655        0.83933
H          4.79705       -4.54790        0.32477
H          2.33411       -4.58498        0.06460
H          2.31426       -0.31209        0.41968
H          0.44614       -1.35926        0.13122
H         -0.65308       -0.83362       -1.62777
H         -2.80968        0.19031       -2.06560
H         -4.79844       -3.19731       -0.33135
H         -2.59003       -4.25713        0.09942
H         -5.30799       -0.14907       -2.29418
H         -6.09469       -1.46001       -1.42270
H         -4.72319        1.80389       -1.26374
H         -5.76621        2.26794        0.07819
H         -3.45756        2.61128        0.79230
H         -2.99037        0.98207        0.29570
H         -5.91122        2.20576        2.46723
H         -4.36331        2.92738        2.95126
H         -5.01684        1.55128        3.85348
H         -4.93757       -0.62299        2.94734
H         -3.89718       -0.93822        1.55262
H         -6.74268        0.20865        1.49830
H         -6.24803       -1.37775        0.91544
H          6.81730       -2.03055        1.55751
H          6.95195       -1.86510       -0.20206
H          6.85231       -3.46441        0.53503
