
    -----------------------------------------------------------------------
          Psi4: An Open-Source Ab Initio Electronic Structure Package
                               Psi4 1.3.2 release

                         Git: Rev {HEAD} ecbda83 


    R. M. Parrish, L. A. Burns, D. G. A. Smith, A. C. Simmonett,
    A. E. DePrince III, E. G. Hohenstein, U. Bozkaya, A. Yu. Sokolov,
    R. Di Remigio, R. M. Richard, J. F. Gonthier, A. M. James,
    H. R. McAlexander, A. Kumar, M. Saitow, X. Wang, B. P. Pritchard,
    P. Verma, H. F. Schaefer III, K. Patkowski, R. A. King, E. F. Valeev,
    F. A. Evangelista, J. M. Turney, T. D. Crawford, and C. D. Sherrill,
    J. Chem. Theory Comput. 13(7) pp 3185--3197 (2017).
    (doi: 10.1021/acs.jctc.7b00174)


                         Additional Contributions by
    P. Kraus, H. Kruse, M. H. Lechner, M. C. Schieber, R. A. Shaw,
    A. Alenaizan, R. Galvelis, Z. L. Glick, S. Lehtola, and J. P. Misiewicz

    -----------------------------------------------------------------------


    Psi4 started on: Wednesday, 04 March 2020 05:50AM

    Process ID: 109404
    Host:       node42.bme.utexas.edu
    PSIDATADIR: /home/bdw2292/miniconda3/envs/p4env/share/psi4
    Memory:     500.0 MiB
    Threads:    1
    
  ==> Input File <==

--------------------------------------------------------------------------
molecule { 
0 1
 C    0.351479    4.643164   -1.973506
 C    1.672326    4.475935   -1.535108
 C    2.137551    3.196313   -1.171715
 C    1.199848    2.142672   -1.304190
 N   -0.065120    2.279747   -1.722152
 C   -0.474470    3.515816   -2.045625
 C    3.536060    2.926360   -0.672567
 C    4.563030    3.877973   -0.566800
 C    5.785923    3.399206   -0.084170
 N    6.010465    2.139742    0.279046
 C    4.962278    1.297361    0.161914
 N    3.758642    1.651548   -0.297378
 N    5.203082   -0.008837    0.562032
 C    4.415911   -1.217543    0.539558
 C    5.065812   -2.480262    0.692313
 C    4.257421   -3.629184    0.648723
 C    2.870506   -3.600896    0.462547
 C    2.247254   -2.355782    0.338450
 C    3.025909   -1.188732    0.373645
 N    0.850395   -2.140092    0.145081
 C   -0.089859   -2.892397   -0.517701
 C   -1.441914   -2.258322   -0.778457
 C   -1.601377   -0.893803   -1.071661
 C   -2.873946   -0.356971   -1.272523
 C   -4.028460   -1.158489   -1.201358
 C   -3.853249   -2.527958   -0.923459
 C   -2.582683   -3.075924   -0.730228
 C   -5.421194   -0.546961   -1.358494
 N   -6.059849    0.077601   -0.185073
 C   -5.577546    1.400148    0.273916
 C   -4.509133    1.344533    1.396319
 N   -4.911794    0.542780    2.575473
 C   -5.771405    1.207325    3.561953
 C   -5.348178   -0.797777    2.115694
 C   -6.400859   -0.776724    0.976279
 O    0.129893   -4.039016   -0.873680
 C    6.565662   -2.632894    0.878978
 H   -0.029793    5.621565   -2.250424
 H    2.308324    5.355268   -1.472207
 H    1.498035    1.125016   -1.076501
 H   -1.506351    3.602090   -2.382884
 H    4.458014    4.919350   -0.845373
 H    6.636875    4.072183    0.017160
 H    6.167462   -0.101174    0.844023
 H    4.720838   -4.610200    0.746537
 H    2.283110   -4.509322    0.408141
 H    2.547943   -0.228468    0.269442
 H    0.520095   -1.251075    0.494841
 H   -0.727062   -0.251743   -1.144667
 H   -2.957192    0.709146   -1.482995
 H   -4.720435   -3.183754   -0.848787
 H   -2.455526   -4.134250   -0.517349
 H   -5.379877    0.218352   -2.147000
 H   -6.107881   -1.330672   -1.710694
 H   -5.277862    1.994289   -0.543122
 H   -6.815405    2.129466    0.918296
 H   -4.268769    2.759668    1.843431
 H   -3.514458    0.926046    1.006274
 H   -6.754041    1.439162    3.136057
 H   -5.305090    2.138264    3.903916
 H   -5.910264    0.561724    4.436773
 H   -5.750012   -1.430728    3.055351
 H   -4.135422   -1.488881    1.589823
 H   -7.700533   -0.162259    1.627928
 H   -6.664563   -1.790641    0.644135
 H    6.903988   -2.154220    1.808872
 H    7.122963   -2.175759    0.049218
 H    6.887309   -3.682215    0.930862
}
memory 20GB
set_num_threads(6)
psi4_io.set_default_path("/scratch/bdw2292")
set freeze_core True
E, wfn = energy('mp2/6-311++G**',return_wfn=True)
oeprop(wfn,"WIBERG_LOWDIN_INDICES")
clean()
--------------------------------------------------------------------------

  Memory set to  18.626 GiB by Python driver.
  Threads set to 6 by Python driver.
    SCF Algorithm Type (re)set to DF.

*** tstart() called on node42.bme.utexas.edu
*** at Wed Mar  4 05:50:18 2020

   => Loading Basis Set <=

    Name: 6-311++G**
    Role: ORBITAL
    Keyword: BASIS
    atoms 1-4, 6-9, 11, 14-19, 21-28, 30-31, 33-35, 37 entry C          line   119 file /home/bdw2292/miniconda3/envs/p4env/share/psi4/basis/6-311ppgss.gbs 
    atoms 5, 10, 12-13, 20, 29, 32                     entry N          line   140 file /home/bdw2292/miniconda3/envs/p4env/share/psi4/basis/6-311ppgss.gbs 
    atoms 36                                           entry O          line   161 file /home/bdw2292/miniconda3/envs/p4env/share/psi4/basis/6-311ppgss.gbs 
    atoms 38-68                                        entry H          line    42 file /home/bdw2292/miniconda3/envs/p4env/share/psi4/basis/6-311ppgss.gbs 


         ---------------------------------------------------------
                                   SCF
               by Justin Turney, Rob Parrish, Andy Simmonett
                          and Daniel G. A. Smith
                              RHF Reference
                        6 Threads,  19073 MiB Core
         ---------------------------------------------------------

  ==> Geometry <==

    Molecular point group: c1
    Full point group: C1

    Geometry (in Angstrom), charge = 0, multiplicity = 1:

       Center              X                  Y                   Z               Mass       
    ------------   -----------------  -----------------  -----------------  -----------------
         C            0.215454827818     4.609580496867    -1.890341650479    12.000000000000
         C            1.536301827818     4.442351496867    -1.451943650479    12.000000000000
         C            2.001526827818     3.162729496867    -1.088550650479    12.000000000000
         C            1.063823827818     2.109088496867    -1.221025650479    12.000000000000
         N           -0.201144172182     2.246163496867    -1.638987650479    14.003074004430
         C           -0.610494172182     3.482232496867    -1.962460650479    12.000000000000
         C            3.400035827818     2.892776496867    -0.589402650479    12.000000000000
         C            4.427005827818     3.844389496867    -0.483635650479    12.000000000000
         C            5.649898827818     3.365622496867    -0.001005650479    12.000000000000
         N            5.874440827818     2.106158496867     0.362210349521    14.003074004430
         C            4.826253827818     1.263777496867     0.245078349521    12.000000000000
         N            3.622617827818     1.617964496867    -0.214213650479    14.003074004430
         N            5.067057827818    -0.042420503133     0.645196349521    14.003074004430
         C            4.279886827818    -1.251126503133     0.622722349521    12.000000000000
         C            4.929787827818    -2.513845503133     0.775477349521    12.000000000000
         C            4.121396827818    -3.662767503133     0.731887349521    12.000000000000
         C            2.734481827818    -3.634479503133     0.545711349521    12.000000000000
         C            2.111229827818    -2.389365503133     0.421614349521    12.000000000000
         C            2.889884827818    -1.222315503133     0.456809349521    12.000000000000
         N            0.714370827818    -2.173675503133     0.228245349521    14.003074004430
         C           -0.225883172182    -2.925980503133    -0.434536650479    12.000000000000
         C           -1.577938172182    -2.291905503133    -0.695292650479    12.000000000000
         C           -1.737401172182    -0.927386503133    -0.988496650479    12.000000000000
         C           -3.009970172182    -0.390554503133    -1.189358650479    12.000000000000
         C           -4.164484172182    -1.192072503133    -1.118193650479    12.000000000000
         C           -3.989273172182    -2.561541503133    -0.840294650479    12.000000000000
         C           -2.718707172182    -3.109507503133    -0.647063650479    12.000000000000
         C           -5.557218172182    -0.580544503133    -1.275329650479    12.000000000000
         N           -6.195873172182     0.044017496867    -0.101908650479    14.003074004430
         C           -5.713570172182     1.366564496867     0.357080349521    12.000000000000
         C           -4.645157172182     1.310949496867     1.479483349521    12.000000000000
         N           -5.047818172182     0.509196496867     2.658637349521    14.003074004430
         C           -5.907429172182     1.173741496867     3.645117349521    12.000000000000
         C           -5.484202172182    -0.831360503133     2.198858349521    12.000000000000
         C           -6.536883172182    -0.810307503133     1.059443349521    12.000000000000
         O           -0.006131172182    -4.072599503133    -0.790515650479    15.994914619570
         C            6.429637827818    -2.666477503133     0.962142349521    12.000000000000
         H           -0.165817172182     5.587981496867    -2.167259650479     1.007825032230
         H            2.172299827818     5.321684496867    -1.389042650479     1.007825032230
         H            1.362010827818     1.091432496867    -0.993336650479     1.007825032230
         H           -1.642375172182     3.568506496867    -2.299719650479     1.007825032230
         H            4.321989827818     4.885766496867    -0.762208650479     1.007825032230
         H            6.500850827818     4.038599496867     0.100324349521     1.007825032230
         H            6.031437827818    -0.134757503133     0.927187349521     1.007825032230
         H            4.584813827818    -4.643783503133     0.829701349521     1.007825032230
         H            2.147085827818    -4.542905503133     0.491305349521     1.007825032230
         H            2.411918827818    -0.262051503133     0.352606349521     1.007825032230
         H            0.384070827818    -1.284658503133     0.578005349521     1.007825032230
         H           -0.863086172182    -0.285326503133    -1.061502650479     1.007825032230
         H           -3.093216172182     0.675562496867    -1.399830650479     1.007825032230
         H           -4.856459172182    -3.217337503133    -0.765622650479     1.007825032230
         H           -2.591550172182    -4.167833503133    -0.434184650479     1.007825032230
         H           -5.515901172182     0.184768496867    -2.063835650479     1.007825032230
         H           -6.243905172182    -1.364255503133    -1.627529650479     1.007825032230
         H           -5.413886172182     1.960705496867    -0.459957650479     1.007825032230
         H           -6.951429172182     2.095882496867     1.001460349521     1.007825032230
         H           -4.404793172182     2.726084496867     1.926595349521     1.007825032230
         H           -3.650482172182     0.892462496867     1.089438349521     1.007825032230
         H           -6.890065172182     1.405578496867     3.219221349521     1.007825032230
         H           -5.441114172182     2.104680496867     3.987080349521     1.007825032230
         H           -6.046288172182     0.528140496867     4.519937349521     1.007825032230
         H           -5.886036172182    -1.464311503133     3.138515349521     1.007825032230
         H           -4.271446172182    -1.522464503133     1.672987349521     1.007825032230
         H           -7.836557172182    -0.195842503133     1.711092349521     1.007825032230
         H           -6.800587172182    -1.824224503133     0.727299349521     1.007825032230
         H            6.767963827818    -2.187803503133     1.892036349521     1.007825032230
         H            6.986938827818    -2.209342503133     0.132382349521     1.007825032230
         H            6.751284827818    -3.715798503133     1.014026349521     1.007825032230

  Running in c1 symmetry.

  Rotational constants: A =      0.00445  B =      0.00186  C =      0.00148 [cm^-1]
  Rotational constants: A =    133.31765  B =     55.86115  C =     44.39767 [MHz]
  Nuclear repulsion = 3752.003496047486806

  Charge       = 0
  Multiplicity = 1
  Electrons    = 262
  Nalpha       = 131
  Nbeta        = 131

  ==> Algorithm <==

  SCF Algorithm Type is DF.
  DIIS enabled.
  MOM disabled.
  Fractional occupation disabled.
  Guess Type is SAD.
  Energy threshold   = 1.00e-08
  Density threshold  = 1.00e-08
  Integral threshold = 0.00e+00

  ==> Primary Basis <==

  Basis Set: 6-311++G**
    Blend: 6-311++G**
    Number of shells: 525
    Number of basis function: 1031
    Number of Cartesian functions: 1068
    Spherical Harmonics?: true
    Max angular momentum: 2

   => Loading Basis Set <=

    Name: (6-311++G** AUX)
    Role: JKFIT
    Keyword: DF_BASIS_SCF
    atoms 1-4, 6-9, 11, 14-19, 21-28, 30-31, 33-35, 37 entry C          line   162 file /home/bdw2292/miniconda3/envs/p4env/share/psi4/basis/aug-cc-pvtz-jkfit.gbs 
    atoms 5, 10, 12-13, 20, 29, 32                     entry N          line   224 file /home/bdw2292/miniconda3/envs/p4env/share/psi4/basis/aug-cc-pvtz-jkfit.gbs 
    atoms 36                                           entry O          line   286 file /home/bdw2292/miniconda3/envs/p4env/share/psi4/basis/aug-cc-pvtz-jkfit.gbs 
    atoms 38-68                                        entry H          line    70 file /home/bdw2292/miniconda3/envs/p4env/share/psi4/basis/aug-cc-pvtz-jkfit.gbs 

  ==> Pre-Iterations <==

   -------------------------------------------------------
    Irrep   Nso     Nmo     Nalpha   Nbeta   Ndocc  Nsocc
   -------------------------------------------------------
     A       1031    1031       0       0       0       0
   -------------------------------------------------------
    Total    1031    1031     131     131     131       0
   -------------------------------------------------------

  ==> Integral Setup <==

  ==> DiskDFJK: Density-Fitted J/K Matrices <==

    J tasked:                  Yes
    K tasked:                  Yes
    wK tasked:                  No
    OpenMP threads:              6
    Integrals threads:           6
    Memory [MiB]:            14305
    Algorithm:                Disk
    Integral Cache:           NONE
    Schwarz Cutoff:          1E-12
    Fitting Condition:       1E-10

   => Auxiliary Basis Set <=

  Basis Set: (6-311++G** AUX)
    Blend: AUG-CC-PVTZ-JKFIT
    Number of shells: 1544
    Number of basis function: 5274
    Number of Cartesian functions: 6552
    Spherical Harmonics?: true
    Max angular momentum: 4

  Minimum eigenvalue in the overlap matrix is 1.2597475525E-07.
  Using Symmetric Orthogonalization.

  SCF Guess: Superposition of Atomic Densities via on-the-fly atomic UHF.

  ==> Iterations <==

                           Total Energy        Delta E     RMS |[F,P]|

   @DF-RHF iter SAD: -1571.28901862268026   -1.57129e+03   0.00000e+00 
   @DF-RHF iter   1: -1571.33683003440046   -4.78114e-02   1.21573e-03 DIIS
   @DF-RHF iter   2: -1572.10790025367533   -7.71070e-01   6.47349e-04 DIIS
   @DF-RHF iter   3: -1572.30590160185466   -1.98001e-01   1.66890e-04 DIIS
   @DF-RHF iter   4: -1572.32359965866476   -1.76981e-02   6.65437e-05 DIIS
   @DF-RHF iter   5: -1572.32630834199244   -2.70868e-03   1.38228e-05 DIIS
   @DF-RHF iter   6: -1572.32647456252494   -1.66221e-04   6.09814e-06 DIIS
   @DF-RHF iter   7: -1572.32651313844917   -3.85759e-05   2.03744e-06 DIIS
   @DF-RHF iter   8: -1572.32651911994640   -5.98150e-06   8.10960e-07 DIIS
   @DF-RHF iter   9: -1572.32652007159140   -9.51645e-07   3.31157e-07 DIIS
   @DF-RHF iter  10: -1572.32652025961124   -1.88020e-07   1.50927e-07 DIIS
   @DF-RHF iter  11: -1572.32652030042573   -4.08145e-08   6.90774e-08 DIIS
   @DF-RHF iter  12: -1572.32652031063481   -1.02091e-08   2.85912e-08 DIIS
   @DF-RHF iter  13: -1572.32652031319253   -2.55773e-09   1.19479e-08 DIIS
   @DF-RHF iter  14: -1572.32652031341308   -2.20552e-10   5.77080e-09 DIIS
  Energy and wave function converged.


  ==> Post-Iterations <==

    Orbital Energies [Eh]
    ---------------------

    Doubly Occupied:                                                      

       1A    -20.519486     2A    -15.604265     3A    -15.598394  
       4A    -15.587886     5A    -15.574641     6A    -15.573198  
       7A    -15.569901     8A    -15.555526     9A    -11.376094  
      10A    -11.362631    11A    -11.335022    12A    -11.314493  
      13A    -11.310158    14A    -11.308620    15A    -11.303823  
      16A    -11.303235    17A    -11.302295    18A    -11.301780  
      19A    -11.301102    20A    -11.290003    21A    -11.289959  
      22A    -11.281048    23A    -11.280916    24A    -11.266213  
      25A    -11.257762    26A    -11.256768    27A    -11.252835  
      28A    -11.252359    29A    -11.250291    30A    -11.249689  
      31A    -11.246345    32A    -11.245817    33A    -11.243488  
      34A    -11.240713    35A    -11.236630    36A    -11.231914  
      37A    -11.227863    38A     -1.385466    39A     -1.344884  
      40A     -1.279426    41A     -1.250881    42A     -1.247401  
      43A     -1.241422    44A     -1.210140    45A     -1.201051  
      46A     -1.162189    47A     -1.140351    48A     -1.116476  
      49A     -1.075995    50A     -1.060211    51A     -1.049235  
      52A     -1.038443    53A     -1.024033    54A     -1.008981  
      55A     -1.001371    56A     -0.978752    57A     -0.947050  
      58A     -0.928512    59A     -0.927024    60A     -0.901565  
      61A     -0.873323    62A     -0.867161    63A     -0.858469  
      64A     -0.845719    65A     -0.836976    66A     -0.835859  
      67A     -0.825966    68A     -0.806849    69A     -0.779132  
      70A     -0.754169    71A     -0.740136    72A     -0.731458  
      73A     -0.723454    74A     -0.712052    75A     -0.699067  
      76A     -0.683916    77A     -0.680891    78A     -0.669057  
      79A     -0.660213    80A     -0.657988    81A     -0.653279  
      82A     -0.648389    83A     -0.638563    84A     -0.629727  
      85A     -0.625820    86A     -0.619260    87A     -0.613310  
      88A     -0.610361    89A     -0.607344    90A     -0.605114  
      91A     -0.599904    92A     -0.598084    93A     -0.591300  
      94A     -0.590577    95A     -0.585178    96A     -0.582762  
      97A     -0.581119    98A     -0.573464    99A     -0.565154  
     100A     -0.562275   101A     -0.548741   102A     -0.545003  
     103A     -0.544352   104A     -0.531602   105A     -0.525747  
     106A     -0.522807   107A     -0.515580   108A     -0.509465  
     109A     -0.508660   110A     -0.505931   111A     -0.496054  
     112A     -0.493547   113A     -0.486273   114A     -0.478484  
     115A     -0.453171   116A     -0.451976   117A     -0.443824  
     118A     -0.429259   119A     -0.423249   120A     -0.419260  
     121A     -0.415294   122A     -0.400968   123A     -0.395228  
     124A     -0.380766   125A     -0.374387   126A     -0.346787  
     127A     -0.346309   128A     -0.342474   129A     -0.317624  
     130A     -0.311388   131A     -0.292752  

    Virtual:                                                              

     132A      0.026129   133A      0.034556   134A      0.040915  
     135A      0.041110   136A      0.043988   137A      0.047071  
     138A      0.048889   139A      0.054765   140A      0.057696  
     141A      0.060468   142A      0.062508   143A      0.066747  
     144A      0.068955   145A      0.069695   146A      0.071618  
     147A      0.073869   148A      0.075809   149A      0.081324  
     150A      0.084835   151A      0.085575   152A      0.085879  
     153A      0.089357   154A      0.091460   155A      0.096900  
     156A      0.097100   157A      0.100228   158A      0.102264  
     159A      0.104397   160A      0.107810   161A      0.109187  
     162A      0.113111   163A      0.113157   164A      0.114743  
     165A      0.117031   166A      0.119224   167A      0.121848  
     168A      0.122406   169A      0.125982   170A      0.131305  
     171A      0.133955   172A      0.138501   173A      0.143133  
     174A      0.143230   175A      0.146832   176A      0.147046  
     177A      0.148565   178A      0.151228   179A      0.153649  
     180A      0.155072   181A      0.157190   182A      0.160047  
     183A      0.161224   184A      0.163885   185A      0.165479  
     186A      0.166425   187A      0.168776   188A      0.172159  
     189A      0.173102   190A      0.175565   191A      0.176875  
     192A      0.179323   193A      0.181202   194A      0.181679  
     195A      0.183272   196A      0.184895   197A      0.186399  
     198A      0.188429   199A      0.190343   200A      0.191328  
     201A      0.194284   202A      0.197653   203A      0.199814  
     204A      0.202632   205A      0.204401   206A      0.205908  
     207A      0.207432   208A      0.209322   209A      0.209416  
     210A      0.210545   211A      0.211814   212A      0.212539  
     213A      0.214852   214A      0.216935   215A      0.218300  
     216A      0.219111   217A      0.221673   218A      0.224578  
     219A      0.226447   220A      0.226916   221A      0.228789  
     222A      0.230227   223A      0.232478   224A      0.234434  
     225A      0.237078   226A      0.237516   227A      0.239640  
     228A      0.241402   229A      0.245053   230A      0.246585  
     231A      0.250789   232A      0.252825   233A      0.256056  
     234A      0.257433   235A      0.259370   236A      0.261468  
     237A      0.263335   238A      0.268295   239A      0.270327  
     240A      0.271536   241A      0.273736   242A      0.276177  
     243A      0.277551   244A      0.279159   245A      0.280532  
     246A      0.284318   247A      0.285067   248A      0.286577  
     249A      0.287909   250A      0.289276   251A      0.294216  
     252A      0.297635   253A      0.300127   254A      0.301537  
     255A      0.305528   256A      0.307548   257A      0.309874  
     258A      0.311437   259A      0.313566   260A      0.315011  
     261A      0.317328   262A      0.322170   263A      0.325420  
     264A      0.326688   265A      0.329143   266A      0.331288  
     267A      0.332597   268A      0.337772   269A      0.338164  
     270A      0.340525   271A      0.342139   272A      0.345107  
     273A      0.347290   274A      0.347798   275A      0.349733  
     276A      0.354166   277A      0.355178   278A      0.356786  
     279A      0.359561   280A      0.360631   281A      0.361839  
     282A      0.365263   283A      0.365712   284A      0.367607  
     285A      0.369392   286A      0.372990   287A      0.374603  
     288A      0.375372   289A      0.377521   290A      0.379031  
     291A      0.380377   292A      0.382546   293A      0.383715  
     294A      0.385531   295A      0.387562   296A      0.389958  
     297A      0.390569   298A      0.393075   299A      0.396555  
     300A      0.398029   301A      0.398497   302A      0.398970  
     303A      0.401268   304A      0.404466   305A      0.406746  
     306A      0.410748   307A      0.412272   308A      0.413021  
     309A      0.413960   310A      0.415564   311A      0.417320  
     312A      0.417965   313A      0.420530   314A      0.421703  
     315A      0.423299   316A      0.425316   317A      0.426409  
     318A      0.428875   319A      0.431831   320A      0.433632  
     321A      0.434952   322A      0.437750   323A      0.439317  
     324A      0.441084   325A      0.441693   326A      0.444345  
     327A      0.447722   328A      0.449168   329A      0.452658  
     330A      0.453474   331A      0.456327   332A      0.457625  
     333A      0.457868   334A      0.462083   335A      0.463610  
     336A      0.465470   337A      0.468152   338A      0.472490  
     339A      0.475335   340A      0.477912   341A      0.480535  
     342A      0.483566   343A      0.487523   344A      0.487817  
     345A      0.490169   346A      0.494110   347A      0.498394  
     348A      0.501558   349A      0.503932   350A      0.505126  
     351A      0.506284   352A      0.507699   353A      0.511164  
     354A      0.513953   355A      0.521433   356A      0.523143  
     357A      0.524117   358A      0.526486   359A      0.530528  
     360A      0.533364   361A      0.535052   362A      0.536390  
     363A      0.542985   364A      0.543274   365A      0.546737  
     366A      0.552140   367A      0.553642   368A      0.557817  
     369A      0.565467   370A      0.568918   371A      0.572119  
     372A      0.576723   373A      0.583096   374A      0.584080  
     375A      0.588599   376A      0.592171   377A      0.603388  
     378A      0.605108   379A      0.606047   380A      0.614180  
     381A      0.615847   382A      0.619282   383A      0.620983  
     384A      0.626013   385A      0.629405   386A      0.638969  
     387A      0.648956   388A      0.658095   389A      0.662861  
     390A      0.681875   391A      0.688391   392A      0.691670  
     393A      0.702340   394A      0.706283   395A      0.710406  
     396A      0.712943   397A      0.721260   398A      0.725157  
     399A      0.730877   400A      0.734505   401A      0.738642  
     402A      0.745076   403A      0.746919   404A      0.751428  
     405A      0.753416   406A      0.761310   407A      0.763123  
     408A      0.764428   409A      0.769868   410A      0.775956  
     411A      0.777385   412A      0.782736   413A      0.784474  
     414A      0.790354   415A      0.792234   416A      0.796364  
     417A      0.801588   418A      0.804251   419A      0.807503  
     420A      0.810974   421A      0.812669   422A      0.817897  
     423A      0.819045   424A      0.822664   425A      0.826619  
     426A      0.828738   427A      0.832792   428A      0.835898  
     429A      0.840167   430A      0.841263   431A      0.850485  
     432A      0.856646   433A      0.857802   434A      0.861689  
     435A      0.868392   436A      0.870426   437A      0.872414  
     438A      0.877199   439A      0.877961   440A      0.882069  
     441A      0.884995   442A      0.892780   443A      0.893762  
     444A      0.897941   445A      0.900035   446A      0.902263  
     447A      0.904289   448A      0.904829   449A      0.909394  
     450A      0.912503   451A      0.916061   452A      0.922705  
     453A      0.923936   454A      0.926697   455A      0.930734  
     456A      0.933620   457A      0.937058   458A      0.939830  
     459A      0.941728   460A      0.943857   461A      0.945435  
     462A      0.947012   463A      0.952260   464A      0.957276  
     465A      0.959259   466A      0.965481   467A      0.965930  
     468A      0.968048   469A      0.971347   470A      0.977042  
     471A      0.979897   472A      0.983399   473A      0.984671  
     474A      0.988646   475A      0.994712   476A      0.995920  
     477A      0.999727   478A      1.003017   479A      1.011801  
     480A      1.017610   481A      1.019656   482A      1.022714  
     483A      1.023360   484A      1.031850   485A      1.034974  
     486A      1.039424   487A      1.045101   488A      1.045216  
     489A      1.050547   490A      1.054295   491A      1.055788  
     492A      1.066336   493A      1.069350   494A      1.071402  
     495A      1.077340   496A      1.078670   497A      1.081418  
     498A      1.085804   499A      1.091325   500A      1.092538  
     501A      1.095473   502A      1.103822   503A      1.108246  
     504A      1.116786   505A      1.121503   506A      1.127700  
     507A      1.131705   508A      1.138707   509A      1.139239  
     510A      1.144400   511A      1.146320   512A      1.150206  
     513A      1.156264   514A      1.158756   515A      1.162739  
     516A      1.168203   517A      1.170804   518A      1.174085  
     519A      1.177746   520A      1.181310   521A      1.184447  
     522A      1.187592   523A      1.193016   524A      1.195172  
     525A      1.199972   526A      1.203108   527A      1.207077  
     528A      1.209540   529A      1.217122   530A      1.221091  
     531A      1.223539   532A      1.225474   533A      1.232219  
     534A      1.235106   535A      1.237614   536A      1.245143  
     537A      1.249829   538A      1.252185   539A      1.253154  
     540A      1.254102   541A      1.259333   542A      1.268390  
     543A      1.271573   544A      1.279371   545A      1.279943  
     546A      1.282288   547A      1.286432   548A      1.290282  
     549A      1.295298   550A      1.301306   551A      1.302132  
     552A      1.312813   553A      1.321899   554A      1.323780  
     555A      1.328834   556A      1.336897   557A      1.341059  
     558A      1.348403   559A      1.353907   560A      1.357860  
     561A      1.360893   562A      1.372179   563A      1.376997  
     564A      1.382578   565A      1.387891   566A      1.391846  
     567A      1.393775   568A      1.399901   569A      1.412693  
     570A      1.420683   571A      1.427120   572A      1.432072  
     573A      1.437193   574A      1.441305   575A      1.446775  
     576A      1.454058   577A      1.458572   578A      1.465664  
     579A      1.472244   580A      1.485535   581A      1.494852  
     582A      1.501555   583A      1.509759   584A      1.511860  
     585A      1.518619   586A      1.527632   587A      1.534686  
     588A      1.549713   589A      1.562604   590A      1.570650  
     591A      1.575657   592A      1.584527   593A      1.594024  
     594A      1.605074   595A      1.611046   596A      1.618314  
     597A      1.619182   598A      1.623122   599A      1.632761  
     600A      1.637236   601A      1.654503   602A      1.663921  
     603A      1.679900   604A      1.690977   605A      1.698548  
     606A      1.701595   607A      1.705831   608A      1.716743  
     609A      1.727743   610A      1.730397   611A      1.740836  
     612A      1.745219   613A      1.751012   614A      1.754201  
     615A      1.759584   616A      1.763069   617A      1.767121  
     618A      1.775620   619A      1.778688   620A      1.784493  
     621A      1.790334   622A      1.796617   623A      1.797375  
     624A      1.804240   625A      1.808656   626A      1.813477  
     627A      1.816246   628A      1.820710   629A      1.823491  
     630A      1.828145   631A      1.830643   632A      1.833928  
     633A      1.841043   634A      1.842633   635A      1.846511  
     636A      1.851343   637A      1.853385   638A      1.857611  
     639A      1.862582   640A      1.866025   641A      1.867752  
     642A      1.873532   643A      1.875658   644A      1.877227  
     645A      1.888162   646A      1.896551   647A      1.899888  
     648A      1.905765   649A      1.914435   650A      1.919226  
     651A      1.931751   652A      1.934866   653A      1.936931  
     654A      1.941425   655A      1.948235   656A      1.953355  
     657A      1.956967   658A      1.963219   659A      1.965186  
     660A      1.967585   661A      1.968737   662A      1.973864  
     663A      1.978543   664A      1.985986   665A      1.990851  
     666A      1.995280   667A      1.997040   668A      2.002265  
     669A      2.002636   670A      2.007131   671A      2.009700  
     672A      2.025697   673A      2.027561   674A      2.031855  
     675A      2.033864   676A      2.041204   677A      2.047905  
     678A      2.050498   679A      2.055892   680A      2.059132  
     681A      2.063231   682A      2.065550   683A      2.073608  
     684A      2.082217   685A      2.083049   686A      2.087287  
     687A      2.090941   688A      2.093467   689A      2.102448  
     690A      2.108480   691A      2.117871   692A      2.119667  
     693A      2.126700   694A      2.139227   695A      2.145789  
     696A      2.154844   697A      2.161694   698A      2.170368  
     699A      2.174943   700A      2.178847   701A      2.183937  
     702A      2.192414   703A      2.193232   704A      2.198571  
     705A      2.207203   706A      2.222572   707A      2.223727  
     708A      2.228313   709A      2.236009   710A      2.240076  
     711A      2.245780   712A      2.250836   713A      2.254779  
     714A      2.260771   715A      2.261776   716A      2.265463  
     717A      2.271340   718A      2.272152   719A      2.278391  
     720A      2.280273   721A      2.287641   722A      2.291398  
     723A      2.297996   724A      2.300110   725A      2.307198  
     726A      2.312948   727A      2.316112   728A      2.322560  
     729A      2.328881   730A      2.333295   731A      2.335300  
     732A      2.345952   733A      2.352567   734A      2.356162  
     735A      2.365436   736A      2.370588   737A      2.377955  
     738A      2.382171   739A      2.394069   740A      2.399393  
     741A      2.407119   742A      2.407434   743A      2.412130  
     744A      2.425549   745A      2.429652   746A      2.438370  
     747A      2.439670   748A      2.446044   749A      2.457180  
     750A      2.459760   751A      2.470082   752A      2.484157  
     753A      2.492481   754A      2.506547   755A      2.508583  
     756A      2.518926   757A      2.525141   758A      2.537504  
     759A      2.538741   760A      2.546465   761A      2.548964  
     762A      2.563996   763A      2.571963   764A      2.576512  
     765A      2.586469   766A      2.597803   767A      2.603902  
     768A      2.624782   769A      2.636209   770A      2.650786  
     771A      2.654036   772A      2.663333   773A      2.680255  
     774A      2.684960   775A      2.697406   776A      2.706557  
     777A      2.710278   778A      2.723988   779A      2.729040  
     780A      2.737082   781A      2.748435   782A      2.756439  
     783A      2.774043   784A      2.784486   785A      2.788441  
     786A      2.802163   787A      2.807176   788A      2.814567  
     789A      2.816965   790A      2.828772   791A      2.829550  
     792A      2.836399   793A      2.850627   794A      2.852697  
     795A      2.863524   796A      2.867942   797A      2.871472  
     798A      2.881612   799A      2.887817   800A      2.894648  
     801A      2.901706   802A      2.906444   803A      2.910853  
     804A      2.917981   805A      2.939055   806A      2.940591  
     807A      2.949306   808A      2.954570   809A      2.959387  
     810A      2.965227   811A      2.971984   812A      2.976257  
     813A      2.980196   814A      2.984683   815A      2.992912  
     816A      2.997079   817A      3.006187   818A      3.010976  
     819A      3.016307   820A      3.023720   821A      3.033098  
     822A      3.033910   823A      3.042295   824A      3.050513  
     825A      3.054031   826A      3.054312   827A      3.057717  
     828A      3.061048   829A      3.070581   830A      3.074311  
     831A      3.077073   832A      3.086543   833A      3.091112  
     834A      3.095235   835A      3.103278   836A      3.109537  
     837A      3.113029   838A      3.115546   839A      3.121810  
     840A      3.123265   841A      3.126094   842A      3.137028  
     843A      3.140359   844A      3.148132   845A      3.158997  
     846A      3.159869   847A      3.166175   848A      3.170796  
     849A      3.174462   850A      3.182420   851A      3.188809  
     852A      3.199321   853A      3.208405   854A      3.211025  
     855A      3.214149   856A      3.225116   857A      3.233118  
     858A      3.239054   859A      3.249939   860A      3.250183  
     861A      3.255768   862A      3.267883   863A      3.271199  
     864A      3.282199   865A      3.288077   866A      3.288643  
     867A      3.300795   868A      3.303202   869A      3.306469  
     870A      3.311197   871A      3.319322   872A      3.324441  
     873A      3.326616   874A      3.331345   875A      3.335518  
     876A      3.338549   877A      3.348787   878A      3.351824  
     879A      3.359520   880A      3.364810   881A      3.368234  
     882A      3.370937   883A      3.385474   884A      3.389755  
     885A      3.393298   886A      3.395779   887A      3.400417  
     888A      3.418296   889A      3.427126   890A      3.431069  
     891A      3.440900   892A      3.460471   893A      3.471987  
     894A      3.508115   895A      3.523998   896A      3.536426  
     897A      3.577025   898A      3.586168   899A      3.592759  
     900A      3.609021   901A      3.613861   902A      3.632043  
     903A      3.641429   904A      3.653822   905A      3.664445  
     906A      3.669585   907A      3.679147   908A      3.683354  
     909A      3.734620   910A      3.761058   911A      3.765020  
     912A      3.779202   913A      3.787089   914A      3.801396  
     915A      3.813582   916A      3.815075   917A      3.836585  
     918A      3.860537   919A      3.869753   920A      3.883717  
     921A      3.906864   922A      3.925205   923A      3.927688  
     924A      3.939175   925A      3.943320   926A      3.959983  
     927A      3.972093   928A      3.976552   929A      3.989762  
     930A      3.993952   931A      4.005432   932A      4.018830  
     933A      4.046696   934A      4.061554   935A      4.071878  
     936A      4.092019   937A      4.098993   938A      4.108927  
     939A      4.122791   940A      4.128059   941A      4.143437  
     942A      4.159130   943A      4.186754   944A      4.192117  
     945A      4.200489   946A      4.203212   947A      4.203909  
     948A      4.211403   949A      4.255527   950A      4.353195  
     951A      4.356594   952A      4.367845   953A      4.378648  
     954A      4.382690   955A      4.412176   956A      4.418842  
     957A      4.427888   958A      4.434099   959A      4.440065  
     960A      4.448123   961A      4.481241   962A      4.489434  
     963A      4.519895   964A      4.542846   965A      4.552064  
     966A      4.583843   967A      4.595332   968A      4.605215  
     969A      4.620291   970A      4.673339   971A      4.718615  
     972A      4.767638   973A      4.776185   974A      4.788494  
     975A      4.908825   976A      4.942719   977A      5.010285  
     978A      5.051649   979A      5.238854   980A      5.246998  
     981A      5.269875   982A      5.285263   983A      5.288453  
     984A      5.338576   985A      5.340774   986A      5.383675  
     987A      5.415213   988A      5.592454   989A      5.689477  
     990A      5.718816   991A      5.799610   992A      5.852863  
     993A      5.862110   994A      6.386705   995A     24.779409  
     996A     24.821490   997A     24.824918   998A     24.843864  
     999A     24.887631  1000A     24.934433  1001A     24.937551  
    1002A     25.010139  1003A     25.014721  1004A     25.017295  
    1005A     25.040079  1006A     25.068839  1007A     25.071766  
    1008A     25.091917  1009A     25.102025  1010A     25.123033  
    1011A     25.128384  1012A     25.134807  1013A     25.141926  
    1014A     25.150665  1015A     25.172728  1016A     25.201804  
    1017A     25.214013  1018A     25.235159  1019A     25.246404  
    1020A     25.250577  1021A     25.251856  1022A     25.323807  
    1023A     25.327922  1024A     36.947339  1025A     36.986090  
    1026A     37.022712  1027A     37.069259  1028A     37.079344  
    1029A     37.133158  1030A     37.152608  1031A     51.764176  

    Final Occupation by Irrep:
              A 
    DOCC [   131 ]

  @DF-RHF Final Energy: -1572.32652031341308

   => Energetics <=

    Nuclear Repulsion Energy =           3752.0034960474868058
    One-Electron Energy =               -9602.0524051945503743
    Two-Electron Energy =                4277.7223888336502569
    Total Energy =                      -1572.3265203134133117

Computation Completed


Properties will be evaluated at   0.000000,   0.000000,   0.000000 [a0]

Properties computed using the SCF density matrix

  Nuclear Dipole Moment: [e a0]
     X:   -35.7684      Y:     3.7601      Z:    13.0094

  Electronic Dipole Moment: [e a0]
     X:    36.4029      Y:    -1.3583      Z:   -13.0769

  Dipole Moment: [e a0]
     X:     0.6345      Y:     2.4018      Z:    -0.0675     Total:     2.4851

  Dipole Moment: [D]
     X:     1.6127      Y:     6.1047      Z:    -0.1716     Total:     6.3165


*** tstop() called on node42.bme.utexas.edu at Wed Mar  4 06:17:08 2020
Module time:
	user time   =    3857.78 seconds =      64.30 minutes
	system time =     123.25 seconds =       2.05 minutes
	total time  =       1610 seconds =      26.83 minutes
Total time:
	user time   =    3857.78 seconds =      64.30 minutes
	system time =     123.25 seconds =       2.05 minutes
	total time  =       1610 seconds =      26.83 minutes

*** tstart() called on node42.bme.utexas.edu
*** at Wed Mar  4 06:17:08 2020


  //>>>>>>>>>>>>>>>>>>>>>>>>>>>>>>>>>>>//
  //               DFMP2               //
  //<<<<<<<<<<<<<<<<<<<<<<<<<<<<<<<<<<<//

   => Loading Basis Set <=

    Name: (6-311++G** AUX)
    Role: RIFIT
    Keyword: DF_BASIS_MP2
    atoms 1-4, 6-9, 11, 14-19, 21-28, 30-31, 33-35, 37 entry C          line   148 file /home/bdw2292/miniconda3/envs/p4env/share/psi4/basis/aug-cc-pvtz-ri.gbs 
    atoms 5, 10, 12-13, 20, 29, 32                     entry N          line   206 file /home/bdw2292/miniconda3/envs/p4env/share/psi4/basis/aug-cc-pvtz-ri.gbs 
    atoms 36                                           entry O          line   264 file /home/bdw2292/miniconda3/envs/p4env/share/psi4/basis/aug-cc-pvtz-ri.gbs 
    atoms 38-68                                        entry H          line    30 file /home/bdw2292/miniconda3/envs/p4env/share/psi4/basis/aug-cc-pvtz-ri.gbs 

	 --------------------------------------------------------
	                          DF-MP2                         
	      2nd-Order Density-Fitted Moller-Plesset Theory     
	              RMP2 Wavefunction,   6 Threads             
	                                                         
	        Rob Parrish, Justin Turney, Andy Simmonett,      
	           Ed Hohenstein, and C. David Sherrill          
	 --------------------------------------------------------

   => Auxiliary Basis Set <=

  Basis Set: (6-311++G** AUX)
    Blend: AUG-CC-PVTZ-RI
    Number of shells: 1470
    Number of basis function: 5348
    Number of Cartesian functions: 6737
    Spherical Harmonics?: true
    Max angular momentum: 4

	 --------------------------------------------------------
	                 NBF =  1031, NAUX =  5348
	 --------------------------------------------------------
	   CLASS    FOCC     OCC    AOCC    AVIR     VIR    FVIR
	   PAIRS      37     131      94     900     900       0
	 --------------------------------------------------------

	-----------------------------------------------------------
	 ==================> DF-MP2 Energies <==================== 
	-----------------------------------------------------------
	 Reference Energy          =   -1572.3265203134130843 [Eh]
	 Singles Energy            =      -0.0000000000000000 [Eh]
	 Same-Spin Energy          =      -1.4712328978798008 [Eh]
	 Opposite-Spin Energy      =      -4.0487029997462969 [Eh]
	 Correlation Energy        =      -5.5199358976260982 [Eh]
	 Total Energy              =   -1577.8464562110391398 [Eh]
	-----------------------------------------------------------
	 ================> DF-SCS-MP2 Energies <================== 
	-----------------------------------------------------------
	 SCS Same-Spin Scale       =       0.3333333333333333 [-]
	 SCS Opposite-Spin Scale   =       1.2000000000000000 [-]
	 SCS Same-Spin Energy      =      -0.4904109659599336 [Eh]
	 SCS Opposite-Spin Energy  =      -4.8584435996955557 [Eh]
	 SCS Correlation Energy    =      -5.3488545656554898 [Eh]
	 SCS Total Energy          =   -1577.6753748790686132 [Eh]
	-----------------------------------------------------------


*** tstop() called on node42.bme.utexas.edu at Wed Mar  4 06:25:09 2020
Module time:
	user time   =    2645.66 seconds =      44.09 minutes
	system time =      24.44 seconds =       0.41 minutes
	total time  =        481 seconds =       8.02 minutes
Total time:
	user time   =    6503.45 seconds =     108.39 minutes
	system time =     147.69 seconds =       2.46 minutes
	total time  =       2091 seconds =      34.85 minutes


Properties will be evaluated at   0.000000,   0.000000,   0.000000 [a0]
OEProp: No title given, name of density matrix used for the following properties is 'SCF density'


  Wiberg Bond Indices using Orthogonal Lowdin Orbitals:

  Irrep: 1 Size: 68 x 68

                 1                   2                   3                   4                   5

    1     0.00000000000000     1.46385070249265     0.12479206281825     0.14028614444224     0.12373713435142
    2     1.46385070249265     0.00000000000000     1.40089434970004     0.12894125128707     0.12139021610838
    3     0.12479206281825     1.40089434970004     0.00000000000000     1.36168457890007     0.11803457610448
    4     0.14028614444224     0.12894125128707     1.36168457890007     0.00000000000000     1.65721910722305
    5     0.12373713435142     0.12139021610838     0.11803457610448     1.65721910722305     0.00000000000000
    6     1.46607598388270     0.13838241688424     0.13557419052675     0.15344702923028     1.62457855193792
    7     0.01455121926387     0.10282252677879     1.01988578402015     0.10330670264197     0.01378497741208
    8     0.00354821993904     0.04146178370004     0.09785732961927     0.02387493561574     0.00216537926416
    9     0.00036284366157     0.00467581030391     0.01475231338334     0.00409839580894     0.00068120215154
   10     0.00040562558170     0.00536802721900     0.00574717895206     0.00605476850641     0.00032109642327
   11     0.00088251253405     0.00336262954602     0.01811308324591     0.00686039865062     0.00042434433633
   12     0.00278316441088     0.02216048699099     0.11967545215831     0.06210081818233     0.00406882412344
   13     0.00016976002276     0.00048476804318     0.00163404132564     0.00093473768741     0.00008898542439
   14     0.00003153492285     0.00009315378335     0.00055003573818     0.00122030384011     0.00010430718885
   15     0.00001102748891     0.00002298798888     0.00006550784327     0.00014583946475     0.00001595061724
   16     0.00000203288069     0.00000536733404     0.00003675470970     0.00021990441844     0.00001106160737
   17     0.00001250245932     0.00001961305602     0.00005219649682     0.00026693159759     0.00003795855339
   18     0.00002010268395     0.00004715338496     0.00026508917152     0.00161697251043     0.00021924994809
   19     0.00014902987181     0.00024549750440     0.00192915048696     0.01052126653978     0.00064741709930
   20     0.00003915665027     0.00006060299616     0.00030454409279     0.00292648772532     0.00071936222987
   21     0.00001417761026     0.00001839706569     0.00007279618757     0.00052396340846     0.00026505017533
   22     0.00005555072827     0.00003843566817     0.00007640339037     0.00078526333245     0.00187655477736
   23     0.00062042450084     0.00039388514119     0.00061377488194     0.00946277296289     0.02905562898820
   24     0.00027632424907     0.00024557455703     0.00033947602957     0.00179251125634     0.01453426509954
   25     0.00002299678438     0.00001279482490     0.00002267472297     0.00016658907565     0.00074534398980
   26     0.00000911914153     0.00000550498580     0.00001012956501     0.00015121707207     0.00043625339701
   27     0.00000937506688     0.00000495946739     0.00001364909183     0.00019205904823     0.00052927548471
   28     0.00000595506599     0.00000257727379     0.00000382299808     0.00002542475030     0.00009651064459
   29     0.00000302151662     0.00000161690493     0.00000207655973     0.00000614804052     0.00002300035168
   30     0.00002631905766     0.00001602649203     0.00002288847726     0.00002871297174     0.00009224078241
   31     0.00003373874715     0.00007734571661     0.00008352533043     0.00004263495872     0.00019790632666
   32     0.00000681339674     0.00000257023895     0.00000287720623     0.00002390278156     0.00002529986105
   33     0.00000171900048     0.00000050074422     0.00000068672092     0.00000260974510     0.00000399470661
   34     0.00000303774052     0.00000130851293     0.00000129714598     0.00000765822749     0.00001577008444
   35     0.00000169118455     0.00000050659131     0.00000071507681     0.00000367940614     0.00000912824521
   36     0.00000164117089     0.00000267718729     0.00001345976902     0.00012978225917     0.00004775735464
   37     0.00000205988699     0.00000741300263     0.00003241099813     0.00003668156722     0.00000312103088
   38     0.88602754504932     0.07923142568791     0.01173400447377     0.00635216526496     0.01067075227985
   39     0.07766368412537     0.87053361611610     0.07262880773269     0.01178480764186     0.00393953370785
   40     0.00560804960712     0.01052259503198     0.06939288758238     0.84906644206928     0.08623072202440
   41     0.07719970405224     0.01177967390709     0.00601712263805     0.01591996038639     0.08771781570486
   42     0.00107864335402     0.01417836209464     0.01427199283982     0.00135460618030     0.00028236037112
   43     0.00004386286803     0.00028182012384     0.00144651242301     0.00031583317207     0.00007690037319
   44     0.00002488594991     0.00008330292371     0.00035041407454     0.00009070114099     0.00000769745081
   45     0.00000031195321     0.00000098308149     0.00000635322148     0.00001720506469     0.00000127623459
   46     0.00000077819654     0.00000161959076     0.00000745573852     0.00002628984524     0.00000863922630
   47     0.00011545356330     0.00021087024235     0.00202593364637     0.00829353117958     0.00064012415622
   48     0.00006344435857     0.00003961611200     0.00010270313129     0.00136081204642     0.00040123559523
   49     0.00053994747197     0.00023111308494     0.00051650912577     0.00794937568930     0.01877272923504
   50     0.00012914061391     0.00010970220572     0.00017087947397     0.00053942229220     0.00473329407999
   51     0.00000100847175     0.00000064481316     0.00000221286067     0.00001874350610     0.00003591935772
   52     0.00000196089706     0.00000080962595     0.00000207763134     0.00001381054004     0.00005232182358
   53     0.00000441280040     0.00000178991019     0.00000140428461     0.00000409533045     0.00002025245590
   54     0.00000047471909     0.00000009935014     0.00000049217144     0.00000872845058     0.00000814293697
   55     0.00002071174011     0.00000833307118     0.00001520790002     0.00001040392750     0.00004532179762
   56     0.00000089864789     0.00000019412662     0.00000049960494     0.00001127666589     0.00001178722682
   57     0.00000948615426     0.00001639436925     0.00002624427776     0.00000693282118     0.00002578617667
   58     0.00000826184097     0.00003770798123     0.00002515020497     0.00004233297624     0.00026095562085
   59     0.00000037779888     0.00000017083809     0.00000021298208     0.00000038202211     0.00000127508061
   60     0.00000032366810     0.00000011237465     0.00000019267287     0.00000022571110     0.00000044084659
   61     0.00000021655948     0.00000004567355     0.00000005353110     0.00000011937937     0.00000049045355
   62     0.00000013687447     0.00000006074643     0.00000009694785     0.00000074045123     0.00000121311221
   63     0.00000161386212     0.00000074862673     0.00000110428958     0.00000641701564     0.00001666597905
   64     0.00000074772397     0.00000019340767     0.00000020388930     0.00000118757792     0.00000273797536
   65     0.00000021788432     0.00000006325540     0.00000011154453     0.00000121729036     0.00000164955874
   66     0.00000080179525     0.00000201262463     0.00001130909436     0.00000871004765     0.00000053897855
   67     0.00000109209976     0.00000283609852     0.00001026491935     0.00000856132044     0.00000077579891
   68     0.00000023742164     0.00000074343168     0.00000380416183     0.00000822967658     0.00000046937761

                 6                   7                   8                   9                  10

    1     1.46607598388270     0.01455121926387     0.00354821993904     0.00036284366157     0.00040562558170
    2     0.13838241688424     0.10282252677879     0.04146178370004     0.00467581030391     0.00536802721900
    3     0.13557419052675     1.01988578402015     0.09785732961927     0.01475231338334     0.00574717895206
    4     0.15344702923028     0.10330670264197     0.02387493561574     0.00409839580894     0.00605476850641
    5     1.62457855193792     0.01378497741208     0.00216537926416     0.00068120215154     0.00032109642327
    6     0.00000000000000     0.00963048999467     0.00683422578325     0.00119525917894     0.00335987964937
    7     0.00963048999467     0.00000000000000     1.38964482826724     0.14707281456769     0.11226312354799
    8     0.00683422578325     1.38964482826724     0.00000000000000     1.43152567230123     0.13083743527514
    9     0.00119525917894     0.14707281456769     1.43152567230123     0.00000000000000     1.66387261136874
   10     0.00335987964937     0.11226312354799     0.13083743527514     1.66387261136874     0.00000000000000
   11     0.00084742023477     0.14177745809879     0.11305898159536     0.15255002084075     1.50563449995498
   12     0.00601469569336     1.52994837289808     0.12586415563727     0.11079371514014     0.10980886995438
   13     0.00007329356244     0.01927034406265     0.02049560522800     0.02428825365281     0.15973870908075
   14     0.00004194240117     0.00283133435337     0.00246031287565     0.00326397030853     0.01685480406366
   15     0.00000590694699     0.00049479658049     0.00144924425077     0.00094318619155     0.00313869344509
   16     0.00000346865428     0.00015542318064     0.00019178856328     0.00016362510278     0.00047175929190
   17     0.00000660437431     0.00024752817252     0.00129724501094     0.00044578287797     0.00126872151269
   18     0.00004138025261     0.00052926366631     0.00026109316333     0.00014253408329     0.00041103735883
   19     0.00019119949666     0.00554209301721     0.00308144613784     0.00151251038593     0.00426914175456
   20     0.00008654730554     0.00012939258895     0.00003180162304     0.00001875998087     0.00006293449801
   21     0.00003268211688     0.00002529151610     0.00001023447047     0.00000540045508     0.00001820914755
   22     0.00018698957322     0.00001104029031     0.00000308436216     0.00000156380876     0.00000413435122
   23     0.00268227165203     0.00009276844147     0.00001904389613     0.00000514340060     0.00000458520894
   24     0.00305601999134     0.00003749797881     0.00001815069805     0.00000294182129     0.00000283698709
   25     0.00027588018097     0.00000389776264     0.00000185260846     0.00000034390013     0.00000039322574
   26     0.00012287604249     0.00000176779889     0.00000047997332     0.00000019940928     0.00000027569898
   27     0.00010744766224     0.00000285229730     0.00000103277287     0.00000053178766     0.00000130740537
   28     0.00006115289724     0.00000106339816     0.00000028281242     0.00000004356181     0.00000008566316
   29     0.00002274768280     0.00000029207743     0.00000016026491     0.00000002685879     0.00000004705540
   30     0.00010915571700     0.00000178368689     0.00000196513401     0.00000025194657     0.00000103286795
   31     0.00017343060847     0.00000414892669     0.00000650177049     0.00000120880125     0.00000279015360
   32     0.00004623094518     0.00000061258396     0.00000024261012     0.00000004494818     0.00000008422297
   33     0.00001044548812     0.00000019549512     0.00000006240235     0.00000001410470     0.00000001692893
   34     0.00001720714158     0.00000020725548     0.00000010100572     0.00000003281761     0.00000003420381
   35     0.00001870233376     0.00000011187646     0.00000009031569     0.00000001588456     0.00000003583787
   36     0.00000878740893     0.00001108463967     0.00001581504235     0.00000590035161     0.00001896722527
   37     0.00000194022153     0.00014376724573     0.00013756310914     0.00013584749763     0.00075458492397
   38     0.08252231180765     0.00127775479067     0.00024540260014     0.00003857489434     0.00002522739119
   39     0.01172460290074     0.01608575240454     0.01480549861338     0.00114642927457     0.00039664086382
   40     0.01463224324974     0.01556194761044     0.00165633325888     0.00039404480350     0.00062406972640
   41     0.87861152425479     0.00053742636541     0.00026479365459     0.00005193307812     0.00010473860086
   42     0.00048081294559     0.07570508605786     0.87610820070143     0.08045146130229     0.01041571689477
   43     0.00004328590391     0.01180743490102     0.07626893346361     0.87532979816798     0.08899029890932
   44     0.00001169500729     0.00205667813633     0.00201168925067     0.00366944256393     0.03139154966556
   45     0.00000033964491     0.00001818186374     0.00000765014082     0.00002322750159     0.00005197925435
   46     0.00000118422312     0.00002323949051     0.00004165943337     0.00001662809687     0.00005274605472
   47     0.00020867746285     0.00407161820158     0.00090387199630     0.00041171756622     0.00074690490390
   48     0.00005470982611     0.00005458080649     0.00002124292269     0.00000874519189     0.00001744749981
   49     0.00195601537025     0.00008302483539     0.00001714122369     0.00000494329744     0.00000456795188
   50     0.00214427034183     0.00001684079451     0.00000766018177     0.00000135769191     0.00000096509602
   51     0.00000722314651     0.00000017868991     0.00000007807403     0.00000002256029     0.00000002491891
   52     0.00001367453888     0.00000073896584     0.00000019472946     0.00000008225159     0.00000018904935
   53     0.00002439651453     0.00000028041322     0.00000008702189     0.00000001270002     0.00000004019325
   54     0.00000354092691     0.00000007755308     0.00000001836075     0.00000000560554     0.00000001473346
   55     0.00006981357906     0.00000117330619     0.00000145950640     0.00000019583217     0.00000070059144
   56     0.00002793060800     0.00000010123483     0.00000002573094     0.00000000596243     0.00000001463256
   57     0.00005075137663     0.00000107751919     0.00000147967572     0.00000027785818     0.00000051051751
   58     0.00008874873706     0.00000281444098     0.00000145653682     0.00000030002516     0.00000108126030
   59     0.00000394491610     0.00000004341211     0.00000002597574     0.00000000629848     0.00000000748392
   60     0.00000078403685     0.00000004559924     0.00000000983999     0.00000000382422     0.00000000541809
   61     0.00000043494930     0.00000001293934     0.00000000596717     0.00000000225608     0.00000000240434
   62     0.00000083881582     0.00000002571027     0.00000001395574     0.00000000260241     0.00000000450892
   63     0.00000885506048     0.00000023739898     0.00000008353103     0.00000002568881     0.00000004956248
   64     0.00001496672542     0.00000003615918     0.00000005166972     0.00000000265708     0.00000000786392
   65     0.00000145468773     0.00000002227650     0.00000001246890     0.00000000273304     0.00000000363899
   66     0.00000042401358     0.00004333253997     0.00007733039744     0.00004265767783     0.00025208506350
   67     0.00000137527512     0.00004570705193     0.00011060226349     0.00004278217746     0.00032451900570
   68     0.00000016687643     0.00001424170807     0.00000580125098     0.00000432908914     0.00003345472185

                11                  12                  13                  14                  15

    1     0.00088251253405     0.00278316441088     0.00016976002276     0.00003153492285     0.00001102748891
    2     0.00336262954602     0.02216048699099     0.00048476804318     0.00009315378335     0.00002298798888
    3     0.01811308324591     0.11967545215831     0.00163404132564     0.00055003573818     0.00006550784327
    4     0.00686039865062     0.06210081818233     0.00093473768741     0.00122030384011     0.00014583946475
    5     0.00042434433633     0.00406882412344     0.00008898542439     0.00010430718885     0.00001595061724
    6     0.00084742023477     0.00601469569336     0.00007329356244     0.00004194240117     0.00000590694699
    7     0.14177745809879     1.52994837289808     0.01927034406265     0.00283133435337     0.00049479658049
    8     0.11305898159536     0.12586415563727     0.02049560522800     0.00246031287565     0.00144924425077
    9     0.15255002084075     0.11079371514014     0.02428825365281     0.00326397030853     0.00094318619155
   10     1.50563449995498     0.10980886995438     0.15973870908075     0.01685480406366     0.00313869344509
   11     0.00000000000000     1.53431981611470     1.26952320032415     0.08224616611216     0.01790714484393
   12     1.53431981611470     0.00000000000000     0.14161958683960     0.02895714548366     0.00345464966067
   13     1.26952320032415     0.14161958683960     0.00000000000000     1.12573826116881     0.10609829092796
   14     0.08224616611216     0.02895714548366     1.12573826116881     0.00000000000000     1.31735432298361
   15     0.01790714484393     0.00345464966067     0.10609829092796     1.31735432298361     0.00000000000000
   16     0.00238873217134     0.00111628403376     0.01433742911736     0.12552462498667     1.44111190538113
   17     0.00414604163368     0.00249299684130     0.01197249442323     0.12004915524279     0.12380777561803
   18     0.00241289753236     0.00469604239194     0.01324730204276     0.12341084539541     0.12143503133905
   19     0.02822847513192     0.05408805880516     0.11056382783671     1.40167928594161     0.11936479166140
   20     0.00034391210085     0.00110300877882     0.00133530346022     0.01502609248392     0.01062856341389
   21     0.00006541594495     0.00016527281430     0.00031614609070     0.00280896422970     0.00531345264741
   22     0.00001289435016     0.00003985879003     0.00005009546976     0.00034312977184     0.00035776239280
   23     0.00002052397657     0.00016344141711     0.00001778755638     0.00013915087413     0.00025064454656
   24     0.00000305975359     0.00001783942268     0.00000290301129     0.00001490271272     0.00002687170606
   25     0.00000085994745     0.00000379606319     0.00000282496161     0.00002528109046     0.00010754467709
   26     0.00000055627170     0.00000112596567     0.00000194497568     0.00001644579410     0.00003757008577
   27     0.00000309684475     0.00000491189387     0.00001565903237     0.00010432679466     0.00027760455361
   28     0.00000015112760     0.00000064802255     0.00000021344283     0.00000214333237     0.00000745589258
   29     0.00000005644868     0.00000021459325     0.00000015624696     0.00000158261908     0.00000598823121
   30     0.00000020284880     0.00000150461186     0.00000016960753     0.00000042981947     0.00000091482390
   31     0.00000061074158     0.00000417920518     0.00000027218581     0.00000048956213     0.00000034861429
   32     0.00000018572484     0.00000050924222     0.00000005717638     0.00000014347199     0.00000023796770
   33     0.00000004447499     0.00000008484148     0.00000002420738     0.00000011587060     0.00000009701763
   34     0.00000009507009     0.00000031570296     0.00000006460752     0.00000072650426     0.00000087444474
   35     0.00000003648864     0.00000012345192     0.00000004582856     0.00000039759083     0.00000094230086
   36     0.00004865138071     0.00005640680807     0.00019209922393     0.00135680905170     0.00291086561906
   37     0.00362403461183     0.00078093553310     0.03799967835703     0.09640941362569     1.06074863845966
   38     0.00009021993830     0.00031335792043     0.00001629453556     0.00000649093282     0.00000079461731
   39     0.00028620991231     0.00108790531313     0.00006621965545     0.00002518046825     0.00000392465906
   40     0.00278561492062     0.02565397697016     0.00041347694404     0.00115758067487     0.00016256889867
   41     0.00004290655424     0.00025372107265     0.00000545618791     0.00000384774404     0.00000055567934
   42     0.00572883479711     0.01067458473516     0.00103633839625     0.00011855239800     0.00006499570265
   43     0.01580707650384     0.00399624921079     0.00134165368108     0.00038239254821     0.00006177700634
   44     0.07351900746770     0.01149421398818     0.93436431367127     0.05965044882049     0.01505718333289
   45     0.00036911453767     0.00006046999339     0.00115573196985     0.01143731074517     0.07478839938272
   46     0.00014884004070     0.00015295217890     0.00052472560561     0.00526796009958     0.01062161980561
   47     0.00957979386283     0.03685995808810     0.01585728164841     0.07340826827307     0.00969163235888
   48     0.00009554723630     0.00042119309154     0.00017963833956     0.00194825738301     0.00139909096845
   49     0.00001750093453     0.00012688318673     0.00000789141660     0.00004896510130     0.00007727226887
   50     0.00000106994490     0.00000503946577     0.00000044328628     0.00000183696818     0.00000133884396
   51     0.00000006311498     0.00000017585495     0.00000039376269     0.00000252313966     0.00000437734048
   52     0.00000074858445     0.00000090615768     0.00000284257971     0.00001984271749     0.00001692566631
   53     0.00000003434180     0.00000011911470     0.00000008166988     0.00000043770388     0.00000116794060
   54     0.00000001527761     0.00000004262397     0.00000004769380     0.00000030565725     0.00000117299095
   55     0.00000009628366     0.00000068923248     0.00000006017495     0.00000007353407     0.00000010589085
   56     0.00000001134868     0.00000012668803     0.00000000870368     0.00000006452656     0.00000029616336
   57     0.00000010043669     0.00000091899871     0.00000001181648     0.00000004047162     0.00000008337059
   58     0.00000061197691     0.00000089658547     0.00000007320721     0.00000065027398     0.00000174035570
   59     0.00000001080798     0.00000001140491     0.00000000855765     0.00000004104502     0.00000002087938
   60     0.00000000587595     0.00000001025253     0.00000000221395     0.00000000669435     0.00000001024154
   61     0.00000000209108     0.00000000910673     0.00000000206731     0.00000000646776     0.00000001047867
   62     0.00000000939706     0.00000005021382     0.00000000629447     0.00000003369854     0.00000008503997
   63     0.00000008161216     0.00000076090731     0.00000006753562     0.00000077889210     0.00000324521956
   64     0.00000000821068     0.00000003751192     0.00000000985503     0.00000013091619     0.00000035603843
   65     0.00000000445826     0.00000002325719     0.00000001576268     0.00000008690514     0.00000007678313
   66     0.00075400820035     0.00025985971508     0.00911136570517     0.01655437130811     0.05840291698964
   67     0.00095716962246     0.00029925953071     0.01039454134618     0.01662285400841     0.05824678770074
   68     0.00023321426994     0.00006209947361     0.00201501332438     0.00893937564218     0.05940705299537

                16                  17                  18                  19                  20

    1     0.00000203288069     0.00001250245932     0.00002010268395     0.00014902987181     0.00003915665027
    2     0.00000536733404     0.00001961305602     0.00004715338496     0.00024549750440     0.00006060299616
    3     0.00003675470970     0.00005219649682     0.00026508917152     0.00192915048696     0.00030454409279
    4     0.00021990441844     0.00026693159759     0.00161697251043     0.01052126653978     0.00292648772532
    5     0.00001106160737     0.00003795855339     0.00021924994809     0.00064741709930     0.00071936222987
    6     0.00000346865428     0.00000660437431     0.00004138025261     0.00019119949666     0.00008654730554
    7     0.00015542318064     0.00024752817252     0.00052926366631     0.00554209301721     0.00012939258895
    8     0.00019178856328     0.00129724501094     0.00026109316333     0.00308144613784     0.00003180162304
    9     0.00016362510278     0.00044578287797     0.00014253408329     0.00151251038593     0.00001875998087
   10     0.00047175929190     0.00126872151269     0.00041103735883     0.00426914175456     0.00006293449801
   11     0.00238873217134     0.00414604163368     0.00241289753236     0.02822847513192     0.00034391210085
   12     0.00111628403376     0.00249299684130     0.00469604239194     0.05408805880516     0.00110300877882
   13     0.01433742911736     0.01197249442323     0.01324730204276     0.11056382783671     0.00133530346022
   14     0.12552462498667     0.12004915524279     0.12341084539541     1.40167928594161     0.01502609248392
   15     1.44111190538113     0.12380777561803     0.12143503133905     0.11936479166140     0.01062856341389
   16     0.00000000000000     1.44449291071676     0.13323791385123     0.12567869389897     0.01367328940068
   17     1.44449291071676     0.00000000000000     1.40269237593356     0.12215403875964     0.10530060919033
   18     0.13323791385123     1.40269237593356     0.00000000000000     1.36672692419601     1.12375048001506
   19     0.12567869389897     0.12215403875964     1.36672692419601     0.00000000000000     0.12598783914531
   20     0.01367328940068     0.10530060919033     1.12375048001506     0.12598783914531     0.00000000000000
   21     0.00283506400159     0.03046187446502     0.08778220996632     0.02315450503390     1.31329504434757
   22     0.00036666992778     0.00334543925875     0.01461318000271     0.00215699900935     0.10388420743021
   23     0.00014483173773     0.00106886591127     0.00392374234187     0.00145596886934     0.04207994067329
   24     0.00002028262053     0.00015019194780     0.00042082460057     0.00014541590692     0.00360859630340
   25     0.00001939299356     0.00022153028487     0.00044833038780     0.00019767291218     0.00334034838641
   26     0.00002205751957     0.00013608095147     0.00049110344578     0.00010598052559     0.00245422841720
   27     0.00009385933238     0.00085595487810     0.00234550505145     0.00065164144460     0.01768598411774
   28     0.00000188638406     0.00001823058870     0.00004073538320     0.00001726278591     0.00025982001850
   29     0.00000103238684     0.00001038317770     0.00002270266909     0.00000977837037     0.00015806059407
   30     0.00000026949583     0.00000234732372     0.00000476129585     0.00000238278840     0.00002923260396
   31     0.00000027986293     0.00000235561138     0.00000504299431     0.00000367079934     0.00003511649943
   32     0.00000013107680     0.00000083670147     0.00000186201795     0.00000086966109     0.00001016066374
   33     0.00000006256699     0.00000032547028     0.00000069126187     0.00000049323187     0.00000202472008
   34     0.00000038712823     0.00000261157546     0.00000606599851     0.00000307735852     0.00003373073966
   35     0.00000038390556     0.00000293061731     0.00000652197675     0.00000232089168     0.00003558110469
   36     0.00341246674591     0.04269985995308     0.03485196611353     0.00560852031599     0.19423838996056
   37     0.11556792514288     0.01434535600638     0.00741150495502     0.01391930677578     0.00066584668486
   38     0.00000032205556     0.00000066438788     0.00000509490489     0.00002214484317     0.00000599628923
   39     0.00000141098692     0.00000170462742     0.00000598244282     0.00003737242280     0.00000654786304
   40     0.00018533381848     0.00022338564228     0.00166003394281     0.00867553105452     0.00206809308123
   41     0.00000036325209     0.00000053671571     0.00000245411406     0.00001355353971     0.00000592391962
   42     0.00001042686098     0.00004645038153     0.00002850270427     0.00019682691193     0.00000671844069
   43     0.00001572688907     0.00001168363621     0.00001502471346     0.00010457826063     0.00000181963983
   44     0.00153125393466     0.00109972479508     0.00130503644909     0.01043540099566     0.00024583515989
   45     0.87167886073199     0.07919920766567     0.01176649597346     0.00564122461303     0.00105796786955
   46     0.07705831921095     0.86324361435844     0.07569625050300     0.01127257971232     0.01518069443061
   47     0.00564979748631     0.01015796195146     0.07097496335450     0.83792113171786     0.02448216385298
   48     0.00141217195716     0.01092286132126     0.06277908810211     0.02047684047136     0.93682213360919
   49     0.00005458456792     0.00030941277210     0.00143875520972     0.00083137610450     0.01512772632255
   50     0.00000170800011     0.00001262515483     0.00003224144130     0.00001019364969     0.00019972598464
   51     0.00000305539384     0.00001928325084     0.00006495440320     0.00001855162624     0.00028254253312
   52     0.00002218011086     0.00013214617708     0.00026158564830     0.00006889551562     0.00163729918448
   53     0.00000042290670     0.00000379382073     0.00000844299404     0.00000290416147     0.00003685184334
   54     0.00000038597626     0.00000365565340     0.00000769582125     0.00000318372690     0.00004702292322
   55     0.00000006506516     0.00000029349906     0.00000088187324     0.00000029623005     0.00000415105536
   56     0.00000005576425     0.00000049044175     0.00000087515690     0.00000051318202     0.00000630226942
   57     0.00000002590578     0.00000020251004     0.00000026932102     0.00000022941150     0.00000221150493
   58     0.00000062052304     0.00000824825429     0.00001356893541     0.00000967426828     0.00003227375606
   59     0.00000001331995     0.00000006542200     0.00000016581665     0.00000012267542     0.00000041390371
   60     0.00000000439908     0.00000002989192     0.00000009009816     0.00000004716057     0.00000029304335
   61     0.00000001594041     0.00000002875868     0.00000009287949     0.00000002580657     0.00000029830962
   62     0.00000002404667     0.00000016580805     0.00000033081060     0.00000021423682     0.00000212281116
   63     0.00000076245226     0.00000758386337     0.00001360799725     0.00000826471858     0.00005402919734
   64     0.00000011987978     0.00000076203576     0.00000094861566     0.00000099848902     0.00000762637166
   65     0.00000008844279     0.00000047951124     0.00000170552175     0.00000043753387     0.00000830619000
   66     0.01535538338828     0.00126305366043     0.00304851276855     0.00120196766384     0.00035068110697
   67     0.01486665256498     0.00124359794670     0.00278549160194     0.00126393174699     0.00028952191238
   68     0.02379688526835     0.00189728523280     0.00054972578367     0.00108926175863     0.00008637058670

                21                  22                  23                  24                  25

    1     0.00001417761026     0.00005555072827     0.00062042450084     0.00027632424907     0.00002299678438
    2     0.00001839706569     0.00003843566817     0.00039388514119     0.00024557455703     0.00001279482490
    3     0.00007279618757     0.00007640339037     0.00061377488194     0.00033947602957     0.00002267472297
    4     0.00052396340846     0.00078526333245     0.00946277296289     0.00179251125634     0.00016658907565
    5     0.00026505017533     0.00187655477736     0.02905562898820     0.01453426509954     0.00074534398980
    6     0.00003268211688     0.00018698957322     0.00268227165203     0.00305601999134     0.00027588018097
    7     0.00002529151610     0.00001104029031     0.00009276844147     0.00003749797881     0.00000389776264
    8     0.00001023447047     0.00000308436216     0.00001904389613     0.00001815069805     0.00000185260846
    9     0.00000540045508     0.00000156380876     0.00000514340060     0.00000294182129     0.00000034390013
   10     0.00001820914755     0.00000413435122     0.00000458520894     0.00000283698709     0.00000039322574
   11     0.00006541594495     0.00001289435016     0.00002052397657     0.00000305975359     0.00000085994745
   12     0.00016527281430     0.00003985879003     0.00016344141711     0.00001783942268     0.00000379606319
   13     0.00031614609070     0.00005009546976     0.00001778755638     0.00000290301129     0.00000282496161
   14     0.00280896422970     0.00034312977184     0.00013915087413     0.00001490271272     0.00002528109046
   15     0.00531345264741     0.00035776239280     0.00025064454656     0.00002687170606     0.00010754467709
   16     0.00283506400159     0.00036666992778     0.00014483173773     0.00002028262053     0.00001939299356
   17     0.03046187446502     0.00334543925875     0.00106886591127     0.00015019194780     0.00022153028487
   18     0.08778220996632     0.01461318000271     0.00392374234187     0.00042082460057     0.00044833038780
   19     0.02315450503390     0.00215699900935     0.00145596886934     0.00014541590692     0.00019767291218
   20     1.31329504434757     0.10388420743021     0.04207994067329     0.00360859630340     0.00334034838641
   21     0.00000000000000     0.97275708310305     0.10557383708953     0.01448601154313     0.01118058082158
   22     0.97275708310305     0.00000000000000     1.39975280614242     0.12740338717440     0.12380699460577
   23     0.10557383708953     1.39975280614242     0.00000000000000     1.45329025169155     0.12651879579413
   24     0.01448601154313     0.12740338717440     1.45329025169155     0.00000000000000     1.40187560115712
   25     0.01118058082158     0.12380699460577     0.12651879579413     1.40187560115712     0.00000000000000
   26     0.01472862568537     0.12682743811103     0.13018936432285     0.12588726526750     1.39590636115728
   27     0.11067570833597     1.38591372375277     0.12461616595485     0.13148014547059     0.12659076021725
   28     0.00074027136845     0.00918698300905     0.01466444644217     0.10862557862782     1.01716975529456
   29     0.00039708130807     0.00444209396098     0.00214688285461     0.02290181804574     0.08775135737015
   30     0.00008496014839     0.00091416669711     0.00187305368051     0.01521832851821     0.01907447082729
   31     0.00006767656068     0.00109170836436     0.00788677289627     0.02314642430959     0.01458279534051
   32     0.00007637092596     0.00067609418677     0.00090475702436     0.00276339605427     0.00381330913101
   33     0.00000956222025     0.00011663056610     0.00021004384960     0.00064102595399     0.00101419657450
   34     0.00015875348631     0.00303372028654     0.00301957289221     0.00874059059407     0.02278649955527
   35     0.00011876914087     0.00116918906753     0.00116888088759     0.00550062243219     0.02258318397760
   36     2.18055533905246     0.13766207391301     0.02548756172558     0.00310676323355     0.00617897110280
[...]
   15     0.00000029616336     0.00000008337059     0.00000174035570     0.00000002087938     0.00000001024154
   16     0.00000005576425     0.00000002590578     0.00000062052304     0.00000001331995     0.00000000439908
   17     0.00000049044175     0.00000020251004     0.00000824825429     0.00000006542200     0.00000002989192
   18     0.00000087515690     0.00000026932102     0.00001356893541     0.00000016581665     0.00000009009816
   19     0.00000051318202     0.00000022941150     0.00000967426828     0.00000012267542     0.00000004716057
   20     0.00000630226942     0.00000221150493     0.00003227375606     0.00000041390371     0.00000029304335
   21     0.00002464690948     0.00000540106183     0.00005194860156     0.00000189641110     0.00000071360404
   22     0.00021561394218     0.00008270500733     0.00090660769690     0.00001270906191     0.00001052145548
   23     0.00029344939827     0.00021695618811     0.00641022266547     0.00002304516007     0.00002417853813
   24     0.00074057095082     0.00074167339783     0.01772846529428     0.00008160041832     0.00007695855107
   25     0.00146260684683     0.00052622802738     0.00797610981688     0.00017225209892     0.00009284744144
   26     0.00048318458372     0.00014533696900     0.00182079596334     0.00008066940670     0.00003607646329
   27     0.00012944667977     0.00010560428611     0.00162086150358     0.00002420088479     0.00002392956954
   28     0.01251299326409     0.00099754938972     0.00492886528386     0.00069320397183     0.00012168175253
   29     0.06593410327566     0.01386831217216     0.01209764712953     0.00330172027781     0.00075052140044
   30     0.77529622320906     0.05964783225503     0.05037120049046     0.01319369358965     0.00416532399041
   31     0.05245693794777     0.81443542414086     0.85942278312322     0.01645381566919     0.02205649488493
   32     0.01445836667329     0.05068905544138     0.06189158914938     0.06754570434712     0.06244322132899
   33     0.01629912897263     0.02546733557866     0.01086197781123     0.91094011464953     0.91992686583272
   34     0.00831168309588     0.01576644694440     0.01878822488855     0.01631505689163     0.01251880709192
   35     0.02338147743118     0.00176228544519     0.00693708330867     0.01247288677010     0.00175884938666
   36     0.00001549880428     0.00000416212104     0.00003038225390     0.00000098561598     0.00000047147781
   37     0.00000001709615     0.00000000661942     0.00000015343465     0.00000000227664     0.00000000185223
   38     0.00000023088048     0.00000492055933     0.00000117229505     0.00000005054137     0.00000003057825
   39     0.00000003152857     0.00000042227322     0.00000106891635     0.00000001562505     0.00000000590011
   40     0.00000182900584     0.00000186630162     0.00000642473729     0.00000003952793     0.00000003298009
   41     0.00001499871850     0.00001151163991     0.00001105849844     0.00000116233754     0.00000016231883
   42     0.00000000217630     0.00000009551034     0.00000015826545     0.00000000144528     0.00000000060161
   43     0.00000000082227     0.00000000255155     0.00000002756602     0.00000000020550     0.00000000014077
   44     0.00000000154710     0.00000000207491     0.00000002441126     0.00000000049547     0.00000000020187
   45     0.00000000633336     0.00000000135164     0.00000007210502     0.00000000074180     0.00000000025275
   46     0.00000013099641     0.00000009044865     0.00000138480895     0.00000000652251     0.00000000459174
   47     0.00000018476976     0.00000029799924     0.00000248071316     0.00000000640672     0.00000004476506
   48     0.00001443504049     0.00000671834616     0.00001468934739     0.00000051423942     0.00000037896577
   49     0.00004678576170     0.00002143093878     0.00052106568605     0.00000187188511     0.00000195750281
   50     0.00011977253149     0.00030172337233     0.00435542490730     0.00004241894353     0.00002266392637
   51     0.00011908443679     0.00001552909776     0.00009695452102     0.00002837961728     0.00000500913878
   52     0.00001351915278     0.00000353898217     0.00004645393242     0.00000247344131     0.00000137070523
   53     0.00124176012618     0.00007952721350     0.00078313906627     0.00006365030959     0.00001891002936
   54     0.00047152378746     0.00044265402599     0.00028618344286     0.00006580011181     0.00002450186433
   55     0.02509720608121     0.00624322217082     0.00756906248444     0.00061467650044     0.00017550073290
   56     0.00000000000000     0.01096623094641     0.01379866707016     0.00846516777451     0.00169449898230
   57     0.01096623094641     0.00000000000000     0.02339040419575     0.00349407414316     0.00845356927445
   58     0.01379866707016     0.02339040419575     0.00000000000000     0.00093882460454     0.00105176990416
   59     0.00846516777451     0.00349407414316     0.00093882460454     0.00000000000000     0.03483152672169
   60     0.00169449898230     0.00845356927445     0.00105176990416     0.03483152672169     0.00000000000000
   61     0.00074220711451     0.00130226645490     0.00076404273134     0.03503668374300     0.03777154690512
   62     0.00046779701020     0.00133916682240     0.00094227359676     0.00290887763102     0.00112428666500
   63     0.00077643931466     0.00115639805430     0.00488614546197     0.00102545060756     0.00064917589839
   64     0.00633701276204     0.00042098960808     0.00100278540442     0.00791200130549     0.00065287175426
   65     0.00093435349894     0.00043770292986     0.00040874806202     0.00053407043449     0.00022226697488
   66     0.00000001384191     0.00000000374983     0.00000006592687     0.00000000068519     0.00000000038383
   67     0.00000001151456     0.00000000331526     0.00000005932046     0.00000000077065     0.00000000016166
   68     0.00000000140118     0.00000000092036     0.00000000753717     0.00000000022468     0.00000000013306

                61                  62                  63                  64                  65

    1     0.00000021655948     0.00000013687447     0.00000161386212     0.00000074772397     0.00000021788432
    2     0.00000004567355     0.00000006074643     0.00000074862673     0.00000019340767     0.00000006325540
    3     0.00000005353110     0.00000009694785     0.00000110428958     0.00000020388930     0.00000011154453
    4     0.00000011937937     0.00000074045123     0.00000641701564     0.00000118757792     0.00000121729036
    5     0.00000049045355     0.00000121311221     0.00001666597905     0.00000273797536     0.00000164955874
    6     0.00000043494930     0.00000083881582     0.00000885506048     0.00001496672542     0.00000145468773
    7     0.00000001293934     0.00000002571027     0.00000023739898     0.00000003615918     0.00000002227650
    8     0.00000000596717     0.00000001395574     0.00000008353103     0.00000005166972     0.00000001246890
    9     0.00000000225608     0.00000000260241     0.00000002568881     0.00000000265708     0.00000000273304
   10     0.00000000240434     0.00000000450892     0.00000004956248     0.00000000786392     0.00000000363899
   11     0.00000000209108     0.00000000939706     0.00000008161216     0.00000000821068     0.00000000445826
   12     0.00000000910673     0.00000005021382     0.00000076090731     0.00000003751192     0.00000002325719
   13     0.00000000206731     0.00000000629447     0.00000006753562     0.00000000985503     0.00000001576268
   14     0.00000000646776     0.00000003369854     0.00000077889210     0.00000013091619     0.00000008690514
   15     0.00000001047867     0.00000008503997     0.00000324521956     0.00000035603843     0.00000007678313
   16     0.00000001594041     0.00000002404667     0.00000076245226     0.00000011987978     0.00000008844279
   17     0.00000002875868     0.00000016580805     0.00000758386337     0.00000076203576     0.00000047951124
   18     0.00000009287949     0.00000033081060     0.00001360799725     0.00000094861566     0.00000170552175
   19     0.00000002580657     0.00000021423682     0.00000826471858     0.00000099848902     0.00000043753387
   20     0.00000029830962     0.00000212281116     0.00005402919734     0.00000762637166     0.00000830619000
   21     0.00000136521467     0.00001599617627     0.00020976168594     0.00005043353240     0.00002155480321
   22     0.00001425590946     0.00015314099824     0.00367218104985     0.00033279221913     0.00021561116390
   23     0.00002419942027     0.00015162329360     0.00334540768468     0.00034397948339     0.00026878339447
   24     0.00005061140179     0.00033918237895     0.00686295814198     0.00066255837124     0.00066899736386
   25     0.00010207143188     0.00086850782516     0.01611054556832     0.00149206066684     0.00629950610933
   26     0.00006270384852     0.00078041488194     0.01973037540435     0.00093365163139     0.00597289628784
   27     0.00003471814028     0.00027752298565     0.00935803578923     0.00042361938020     0.00052808538969
   28     0.00011985708258     0.00111316320204     0.00687307942779     0.01207724701428     0.01921097286982
   29     0.00065309391666     0.01069459864608     0.01204761246471     0.06510728541072     0.05858517319207
   30     0.00182745871114     0.00232099273523     0.00732881649505     0.02333862779041     0.01205584995585
   31     0.01279849217875     0.01354817065957     0.01804173004340     0.00830170294792     0.00256956258678
   32     0.06310212800020     0.05562808573137     0.05993223066592     0.01380526919727     0.01011639592511
   33     0.91975469264297     0.02060600168191     0.01268118489565     0.01568103886895     0.00162798205572
   34     0.01900219738723     0.87290197037708     0.76352869249834     0.04946253753398     0.06062759214681
   35     0.00381095490942     0.05856406749347     0.04362824772770     0.77024551037388     0.89147388771865
   36     0.00000059832080     0.00000468083222     0.00011455044083     0.00001313036021     0.00000689783634
   37     0.00000000163289     0.00000000985450     0.00000022256761     0.00000002313357     0.00000001394926
   38     0.00000003345027     0.00000001636376     0.00000020445971     0.00000007562292     0.00000003113515
   39     0.00000000179306     0.00000000620581     0.00000010252062     0.00000001276141     0.00000000860197
   40     0.00000005588134     0.00000017509417     0.00000266890287     0.00000023533252     0.00000026646170
   41     0.00000033137171     0.00000031152842     0.00000676102754     0.00000995636325     0.00000052427318
   42     0.00000000101997     0.00000000117578     0.00000001529566     0.00000000157904     0.00000000152343
   43     0.00000000008475     0.00000000040688     0.00000000487549     0.00000000107014     0.00000000022133
   44     0.00000000034260     0.00000000089573     0.00000000760993     0.00000000305624     0.00000000296214
   45     0.00000000043747     0.00000000190061     0.00000007437577     0.00000000322346     0.00000001784604
   46     0.00000000887396     0.00000003588011     0.00000109195895     0.00000005577647     0.00000019052973
   47     0.00000000412271     0.00000004005794     0.00000080364333     0.00000019373952     0.00000012828730
   48     0.00000017497937     0.00000302304347     0.00000956065811     0.00000644559063     0.00000161866555
   49     0.00000083864727     0.00000589567647     0.00010966609315     0.00001777948890     0.00002148564279
   50     0.00001436044196     0.00002590629385     0.00065122082291     0.00016011260339     0.00007862877346
   51     0.00001326936540     0.00010270925043     0.00308884453147     0.00010464250278     0.00235406125584
   52     0.00000344587445     0.00002674219553     0.00075680301473     0.00004992140973     0.00002910013887
   53     0.00002003813543     0.00028801512498     0.00042362388465     0.00057505984717     0.00107927553882
   54     0.00002196153287     0.00011379531264     0.00089624293114     0.00120595029772     0.00533431828457
   55     0.00021796141113     0.00032211004147     0.00049102267126     0.00092479056810     0.00112674470544
   56     0.00074220711451     0.00046779701020     0.00077643931466     0.00633701276204     0.00093435349894
   57     0.00130226645490     0.00133916682240     0.00115639805430     0.00042098960808     0.00043770292986
   58     0.00076404273134     0.00094227359676     0.00488614546197     0.00100278540442     0.00040874806202
   59     0.03503668374300     0.00290887763102     0.00102545060756     0.00791200130549     0.00053407043449
   60     0.03777154690512     0.00112428666500     0.00064917589839     0.00065287175426     0.00022226697488
   61     0.00000000000000     0.00643221404713     0.00105234598066     0.00174744898543     0.00014230539984
   62     0.00643221404713     0.00000000000000     0.02015413371661     0.00992650345933     0.00570982795549
   63     0.00105234598066     0.02015413371661     0.00000000000000     0.02469474070073     0.00874039992960
   64     0.00174744898543     0.00992650345933     0.02469474070073     0.00000000000000     0.02371362313371
   65     0.00014230539984     0.00570982795549     0.00874039992960     0.02371362313371     0.00000000000000
   66     0.00000000042470     0.00000000396355     0.00000009062788     0.00000001763597     0.00000000253364
   67     0.00000000053125     0.00000000389486     0.00000014636001     0.00000001394693     0.00000000436509
   68     0.00000000010046     0.00000000074111     0.00000001642015     0.00000000090463     0.00000000186181

                66                  67                  68

    1     0.00000080179525     0.00000109209976     0.00000023742164
    2     0.00000201262463     0.00000283609852     0.00000074343168
    3     0.00001130909436     0.00001026491935     0.00000380416183
    4     0.00000871004765     0.00000856132044     0.00000822967658
    5     0.00000053897855     0.00000077579891     0.00000046937761
    6     0.00000042401358     0.00000137527512     0.00000016687643
    7     0.00004333253997     0.00004570705193     0.00001424170807
    8     0.00007733039744     0.00011060226349     0.00000580125098
    9     0.00004265767783     0.00004278217746     0.00000432908914
   10     0.00025208506350     0.00032451900570     0.00003345472185
   11     0.00075400820035     0.00095716962246     0.00023321426994
   12     0.00025985971508     0.00029925953071     0.00006209947361
   13     0.00911136570517     0.01039454134618     0.00201501332438
   14     0.01655437130811     0.01662285400841     0.00893937564218
   15     0.05840291698964     0.05824678770074     0.05940705299537
   16     0.01535538338828     0.01486665256498     0.02379688526835
   17     0.00126305366043     0.00124359794670     0.00189728523280
   18     0.00304851276855     0.00278549160194     0.00054972578367
   19     0.00120196766384     0.00126393174699     0.00108926175863
   20     0.00035068110697     0.00028952191238     0.00008637058670
   21     0.00019962238133     0.00018116096380     0.00003212125493
   22     0.00001311751749     0.00001426308200     0.00000664881358
   23     0.00001024406255     0.00000944002506     0.00000310780773
   24     0.00000101485668     0.00000128329536     0.00000034744143
   25     0.00000490429428     0.00000389199450     0.00000024150850
   26     0.00000134738443     0.00000146683457     0.00000024215869
   27     0.00001023655305     0.00001051399242     0.00000149576713
   28     0.00000037634418     0.00000024494659     0.00000003289977
   29     0.00000027174545     0.00000022599594     0.00000001205935
   30     0.00000003637964     0.00000004505661     0.00000000563064
   31     0.00000001899138     0.00000000970007     0.00000000916870
   32     0.00000000649253     0.00000001547527     0.00000000651144
   33     0.00000000375330     0.00000000341874     0.00000000094307
   34     0.00000003163987     0.00000003905313     0.00000001014419
   35     0.00000003813683     0.00000004603113     0.00000000815900
   36     0.00009245752095     0.00011313330980     0.00001544333297
   37     0.91896606653113     0.91850948295850     0.92006627974215
   38     0.00000008332211     0.00000010157275     0.00000003879973
   39     0.00000024762297     0.00000031120769     0.00000010316533
   40     0.00000725148296     0.00000744806990     0.00000834830572
   41     0.00000005232886     0.00000007356122     0.00000003909464
   42     0.00000337978343     0.00000440282109     0.00000045301941
   43     0.00000276540742     0.00000310669124     0.00000062303577
   44     0.00485937510263     0.00440093972470     0.00105642329595
   45     0.00128072407961     0.00120530848311     0.00766184883905
   46     0.00021374456794     0.00022185643844     0.00012940952053
   47     0.00018313772399     0.00018275383189     0.00035031143377
   48     0.00004407840173     0.00005964573782     0.00003441411211
   49     0.00000315178949     0.00000252244086     0.00000149967514
   50     0.00000004896805     0.00000012259787     0.00000004491746
   51     0.00000026112964     0.00000014263801     0.00000007770920
   52     0.00000059338516     0.00000082835200     0.00000043020507
   53     0.00000004468059     0.00000005804448     0.00000001127616
   54     0.00000004787359     0.00000004863588     0.00000000910414
   55     0.00000000422179     0.00000000719193     0.00000000308186
   56     0.00000001384191     0.00000001151456     0.00000000140118
   57     0.00000000374983     0.00000000331526     0.00000000092036
   58     0.00000006592687     0.00000005932046     0.00000000753717
   59     0.00000000068519     0.00000000077065     0.00000000022468
   60     0.00000000038383     0.00000000016166     0.00000000013306
   61     0.00000000042470     0.00000000053125     0.00000000010046
   62     0.00000000396355     0.00000000389486     0.00000000074111
   63     0.00000009062788     0.00000014636001     0.00000001642015
   64     0.00000001763597     0.00000001394693     0.00000000090463
   65     0.00000000253364     0.00000000436509     0.00000000186181
   66     0.00000000000000     0.03487467014561     0.03836691021071
   67     0.03487467014561     0.00000000000000     0.03852534249074
   68     0.03836691021071     0.03852534249074     0.00000000000000



  Atomic Valences: 

 #  #
 Irrep: 1
      1:  4.3913532
      2:  4.4223991
      3:  4.6019331
      4:  4.5823315
      5:  3.9301766
      6:  4.5460355
      7:  4.7416366
      8:  4.3687170
      9:  4.5241578
     10:  3.8641339
     11:  4.9992261
     12:  3.9580338
     13:  4.0367084
     14:  4.6642608
     15:  4.6255210
     16:  4.4369570
     17:  4.4038997
     18:  4.6800093
     19:  4.4293048
     20:  4.0814047
     21:  5.0052068
     22:  4.6207257
     23:  4.4695888
     24:  4.4869603
     25:  4.7139447
     26:  4.4705463
     27:  4.4372662
     28:  4.4917147
     29:  4.2496757
     30:  4.5614867
     31:  4.5736122
     32:  4.2133738
     33:  4.2929820
     34:  4.5586602
     35:  4.5487883
     36:  2.7557105
     37:  4.1503727
     38:  1.0979603
     39:  1.1015261
     40:  1.1149659
     41:  1.0920291
     42:  1.1094302
     43:  1.0860325
     44:  1.1761470
     45:  1.1002003
     46:  1.1026018
     47:  1.1346211
     48:  1.1805327
     49:  1.1210763
     50:  1.1124588
     51:  1.1054631
     52:  1.0979032
     53:  1.1062108
     54:  1.1071259
     55:  1.1375260
     56:  1.0434013
     57:  1.0426997
     58:  1.1232627
     59:  1.1372886
     60:  1.1107122
     61:  1.1066448
     62:  1.0878682
     63:  1.0531648
     64:  1.0417659
     65:  1.1211355
     66:  1.1058819
     67:  1.1058535
     68:  1.1044101


    Psi4 stopped on: Wednesday, 04 March 2020 06:25AM
    Psi4 wall time for execution: 0:34:54.66

*** Psi4 exiting successfully. Buy a developer a beer!
