
    -----------------------------------------------------------------------
          Psi4: An Open-Source Ab Initio Electronic Structure Package
                               Psi4 1.3.2 release

                         Git: Rev {HEAD} ecbda83 


    R. M. Parrish, L. A. Burns, D. G. A. Smith, A. C. Simmonett,
    A. E. DePrince III, E. G. Hohenstein, U. Bozkaya, A. Yu. Sokolov,
    R. Di Remigio, R. M. Richard, J. F. Gonthier, A. M. James,
    H. R. McAlexander, A. Kumar, M. Saitow, X. Wang, B. P. Pritchard,
    P. Verma, H. F. Schaefer III, K. Patkowski, R. A. King, E. F. Valeev,
    F. A. Evangelista, J. M. Turney, T. D. Crawford, and C. D. Sherrill,
    J. Chem. Theory Comput. 13(7) pp 3185--3197 (2017).
    (doi: 10.1021/acs.jctc.7b00174)


                         Additional Contributions by
    P. Kraus, H. Kruse, M. H. Lechner, M. C. Schieber, R. A. Shaw,
    A. Alenaizan, R. Galvelis, Z. L. Glick, S. Lehtola, and J. P. Misiewicz

    -----------------------------------------------------------------------


    Psi4 started on: Tuesday, 14 April 2020 12:41PM

    Process ID: 31038
    Host:       node144.bme.utexas.edu
    PSIDATADIR: /home/bdw2292/miniconda3/envs/p4env/share/psi4
    Memory:     500.0 MiB
    Threads:    1
    
  ==> Input File <==

--------------------------------------------------------------------------
molecule { 
0 1
 C    0.284304    4.662777   -0.933322
 C    1.598535    4.518797   -0.467969
 C    2.164949    3.234495   -0.351234
 C    1.340920    2.157053   -0.760035
 N    0.084166    2.273639   -1.207870
 C   -0.429993    3.511143   -1.283793
 C    3.557649    2.971831    0.164512
 C    4.516811    3.954170    0.460579
 C    5.755192    3.480852    0.911972
 N    6.052885    2.193421    1.077719
 C    5.068400    1.320546    0.783106
 N    3.860128    1.673121    0.342363
 N    5.376180   -0.015806    0.968215
 C    4.671721   -1.236726    0.662357
 C    5.399747   -2.458422    0.535008
 C    4.668149   -3.613053    0.209898
 C    3.284196   -3.629236    0.000502
 C    2.576673   -2.431660    0.149854
 C    3.281508   -1.265969    0.489619
 N    1.165300   -2.264670   -0.036617
 C    0.197777   -3.122580   -0.508394
 C   -1.182922   -2.550516   -0.777361
 C   -1.423787   -1.213655   -1.137961
 C   -2.728791   -0.755605   -1.334550
 C   -3.844381   -1.602717   -1.187721
 C   -3.581168   -2.953485   -0.879958
 C   -2.280216   -3.422245   -0.679865
 C   -5.283126   -1.108105   -1.387824
 N   -5.793556    0.191035   -0.901940
 C   -5.056646    0.964726    0.124886
 C   -5.463742    0.575203    1.569590
 N   -6.920495    0.645425    1.844702
 C   -7.452114    1.966433    2.200390
 C   -7.652944   -0.096813    0.789962
 C   -7.249165    0.292955   -0.654789
 O    0.415872   -4.310264   -0.694372
 C    6.906191   -2.552882    0.710306
 H   -0.176254    5.642291   -1.022308
 H    2.150718    5.411461   -0.184359
 H    1.721464    1.140535   -0.746757
 H   -1.453942    3.570470   -1.649827
 H    4.360705    5.019524    0.343133
 H    6.572889    4.157732    1.158577
 H    6.338943   -0.100024    1.257916
 H    5.195661   -4.559233    0.096797
 H    2.761442   -4.537808   -0.270538
 H    2.738388   -0.345812    0.627376
 H    0.831603   -1.333239    0.166188
 H   -0.590665   -0.527230   -1.272485
 H   -2.865759    0.279597   -1.644489
 H   -4.405355   -3.659963   -0.783671
 H   -2.098410   -4.466510   -0.437282
 H   -5.465561   -1.056036   -2.472189
 H   -5.913555   -1.909738   -0.976765
 H   -4.162826    0.908740    0.000819
 H   -5.393203    2.384530   -0.063384
 H   -4.804639    1.386038    2.476239
 H   -5.030941   -0.845809    1.818894
 H   -7.365355    2.663116    1.358859
 H   -6.906163    2.376910    3.057668
 H   -8.507835    1.885477    2.484288
 H   -8.859121    0.045820    0.956233
 H   -7.344509   -1.531272    0.989779
 H   -7.645069    1.648488   -0.893832
 H   -7.919502   -0.472361   -1.549888
 H    7.234732   -2.263175    1.718841
 H    7.425775   -1.901822    0.001585
 H    7.287662   -3.563253    0.541141
}
memory 20GB
set_num_threads(6)
psi4_io.set_default_path("/scratch/bdw2292")
set freeze_core True
E, wfn = energy('mp2/6-311++G**',return_wfn=True)
oeprop(wfn,"WIBERG_LOWDIN_INDICES")
clean()
--------------------------------------------------------------------------

  Memory set to  18.626 GiB by Python driver.
  Threads set to 6 by Python driver.
    SCF Algorithm Type (re)set to DF.

*** tstart() called on node144.bme.utexas.edu
*** at Tue Apr 14 12:41:00 2020

   => Loading Basis Set <=

    Name: 6-311++G**
    Role: ORBITAL
    Keyword: BASIS
    atoms 1-4, 6-9, 11, 14-19, 21-28, 30-31, 33-35, 37 entry C          line   119 file /home/bdw2292/miniconda3/envs/p4env/share/psi4/basis/6-311ppgss.gbs 
    atoms 5, 10, 12-13, 20, 29, 32                     entry N          line   140 file /home/bdw2292/miniconda3/envs/p4env/share/psi4/basis/6-311ppgss.gbs 
    atoms 36                                           entry O          line   161 file /home/bdw2292/miniconda3/envs/p4env/share/psi4/basis/6-311ppgss.gbs 
    atoms 38-68                                        entry H          line    42 file /home/bdw2292/miniconda3/envs/p4env/share/psi4/basis/6-311ppgss.gbs 


         ---------------------------------------------------------
                                   SCF
               by Justin Turney, Rob Parrish, Andy Simmonett
                          and Daniel G. A. Smith
                              RHF Reference
                        6 Threads,  19073 MiB Core
         ---------------------------------------------------------

  ==> Geometry <==

    Molecular point group: c1
    Full point group: C1

    Geometry (in Angstrom), charge = 0, multiplicity = 1:

       Center              X                  Y                   Z               Mass       
    ------------   -----------------  -----------------  -----------------  -----------------
         C            0.208657661990     4.667893468562    -0.917613301124    12.000000000000
         C            1.522888661990     4.523913468562    -0.452260301124    12.000000000000
         C            2.089302661990     3.239611468562    -0.335525301124    12.000000000000
         C            1.265273661990     2.162169468562    -0.744326301124    12.000000000000
         N            0.008519661990     2.278755468562    -1.192161301124    14.003074004430
         C           -0.505639338010     3.516259468562    -1.268084301124    12.000000000000
         C            3.482002661990     2.976947468562     0.180220698876    12.000000000000
         C            4.441164661990     3.959286468562     0.476287698876    12.000000000000
         C            5.679545661990     3.485968468562     0.927680698876    12.000000000000
         N            5.977238661990     2.198537468562     1.093427698876    14.003074004430
         C            4.992753661990     1.325662468562     0.798814698876    12.000000000000
         N            3.784481661990     1.678237468562     0.358071698876    14.003074004430
         N            5.300533661990    -0.010689531438     0.983923698876    14.003074004430
         C            4.596074661990    -1.231609531438     0.678065698876    12.000000000000
         C            5.324100661990    -2.453305531438     0.550716698876    12.000000000000
         C            4.592502661990    -3.607936531438     0.225606698876    12.000000000000
         C            3.208549661990    -3.624119531438     0.016210698876    12.000000000000
         C            2.501026661990    -2.426543531438     0.165562698876    12.000000000000
         C            3.205861661990    -1.260852531438     0.505327698876    12.000000000000
         N            1.089653661990    -2.259553531438    -0.020908301124    14.003074004430
         C            0.122130661990    -3.117463531438    -0.492685301124    12.000000000000
         C           -1.258568338010    -2.545399531438    -0.761652301124    12.000000000000
         C           -1.499433338010    -1.208538531438    -1.122252301124    12.000000000000
         C           -2.804437338010    -0.750488531438    -1.318841301124    12.000000000000
         C           -3.920027338010    -1.597600531438    -1.172012301124    12.000000000000
         C           -3.656814338010    -2.948368531438    -0.864249301124    12.000000000000
         C           -2.355862338010    -3.417128531438    -0.664156301124    12.000000000000
         C           -5.358772338010    -1.102988531438    -1.372115301124    12.000000000000
         N           -5.869202338010     0.196151468562    -0.886231301124    14.003074004430
         C           -5.132292338010     0.969842468562     0.140594698876    12.000000000000
         C           -5.539388338010     0.580319468562     1.585298698876    12.000000000000
         N           -6.996141338010     0.650541468562     1.860410698876    14.003074004430
         C           -7.527760338010     1.971549468562     2.216098698876    12.000000000000
         C           -7.728590338010    -0.091696531438     0.805670698876    12.000000000000
         C           -7.324811338010     0.298071468562    -0.639080301124    12.000000000000
         O            0.340225661990    -4.305147531438    -0.678663301124    15.994914619570
         C            6.830544661990    -2.547765531438     0.726014698876    12.000000000000
         H           -0.251900338010     5.647407468562    -1.006599301124     1.007825032230
         H            2.075071661990     5.416577468562    -0.168650301124     1.007825032230
         H            1.645817661990     1.145651468562    -0.731048301124     1.007825032230
         H           -1.529588338010     3.575586468562    -1.634118301124     1.007825032230
         H            4.285058661990     5.024640468562     0.358841698876     1.007825032230
         H            6.497242661990     4.162848468562     1.174285698876     1.007825032230
         H            6.263296661990    -0.094907531438     1.273624698876     1.007825032230
         H            5.120014661990    -4.554116531438     0.112505698876     1.007825032230
         H            2.685795661990    -4.532691531438    -0.254829301124     1.007825032230
         H            2.662741661990    -0.340695531438     0.643084698876     1.007825032230
         H            0.755956661990    -1.328122531438     0.181896698876     1.007825032230
         H           -0.666311338010    -0.522113531438    -1.256776301124     1.007825032230
         H           -2.941405338010     0.284713468562    -1.628780301124     1.007825032230
         H           -4.481001338010    -3.654846531438    -0.767962301124     1.007825032230
         H           -2.174056338010    -4.461393531438    -0.421573301124     1.007825032230
         H           -5.541207338010    -1.050919531438    -2.456480301124     1.007825032230
         H           -5.989201338010    -1.904621531438    -0.961056301124     1.007825032230
         H           -4.238472338010     0.913856468562     0.016527698876     1.007825032230
         H           -5.468849338010     2.389646468562    -0.047675301124     1.007825032230
         H           -4.880285338010     1.391154468562     2.491947698876     1.007825032230
         H           -5.106587338010    -0.840692531438     1.834602698876     1.007825032230
         H           -7.441001338010     2.668232468562     1.374567698876     1.007825032230
         H           -6.981809338010     2.382026468562     3.073376698876     1.007825032230
         H           -8.583481338010     1.890593468562     2.499996698876     1.007825032230
         H           -8.934767338010     0.050936468562     0.971941698876     1.007825032230
         H           -7.420155338010    -1.526155531438     1.005487698876     1.007825032230
         H           -7.720715338010     1.653604468562    -0.878123301124     1.007825032230
         H           -7.995148338010    -0.467244531438    -1.534179301124     1.007825032230
         H            7.159085661990    -2.258058531438     1.734549698876     1.007825032230
         H            7.350128661990    -1.896705531438     0.017293698876     1.007825032230
         H            7.212015661990    -3.558136531438     0.556849698876     1.007825032230

  Running in c1 symmetry.

  Rotational constants: A =      0.00457  B =      0.00165  C =      0.00129 [cm^-1]
  Rotational constants: A =    136.88613  B =     49.52466  C =     38.81856 [MHz]
  Nuclear repulsion = 3675.665022809310813

  Charge       = 0
  Multiplicity = 1
  Electrons    = 262
  Nalpha       = 131
  Nbeta        = 131

  ==> Algorithm <==

  SCF Algorithm Type is DF.
  DIIS enabled.
  MOM disabled.
  Fractional occupation disabled.
  Guess Type is SAD.
  Energy threshold   = 1.00e-08
  Density threshold  = 1.00e-08
  Integral threshold = 0.00e+00

  ==> Primary Basis <==

  Basis Set: 6-311++G**
    Blend: 6-311++G**
    Number of shells: 525
    Number of basis function: 1031
    Number of Cartesian functions: 1068
    Spherical Harmonics?: true
    Max angular momentum: 2

   => Loading Basis Set <=

    Name: (6-311++G** AUX)
    Role: JKFIT
    Keyword: DF_BASIS_SCF
    atoms 1-4, 6-9, 11, 14-19, 21-28, 30-31, 33-35, 37 entry C          line   162 file /home/bdw2292/miniconda3/envs/p4env/share/psi4/basis/aug-cc-pvtz-jkfit.gbs 
    atoms 5, 10, 12-13, 20, 29, 32                     entry N          line   224 file /home/bdw2292/miniconda3/envs/p4env/share/psi4/basis/aug-cc-pvtz-jkfit.gbs 
    atoms 36                                           entry O          line   286 file /home/bdw2292/miniconda3/envs/p4env/share/psi4/basis/aug-cc-pvtz-jkfit.gbs 
    atoms 38-68                                        entry H          line    70 file /home/bdw2292/miniconda3/envs/p4env/share/psi4/basis/aug-cc-pvtz-jkfit.gbs 

  ==> Pre-Iterations <==

   -------------------------------------------------------
    Irrep   Nso     Nmo     Nalpha   Nbeta   Ndocc  Nsocc
   -------------------------------------------------------
     A       1031    1031       0       0       0       0
   -------------------------------------------------------
    Total    1031    1031     131     131     131       0
   -------------------------------------------------------

  ==> Integral Setup <==

  ==> DiskDFJK: Density-Fitted J/K Matrices <==

    J tasked:                  Yes
    K tasked:                  Yes
    wK tasked:                  No
    OpenMP threads:              6
    Integrals threads:           6
    Memory [MiB]:            14305
    Algorithm:                Core
    Integral Cache:           NONE
    Schwarz Cutoff:          1E-12
    Fitting Condition:       1E-10

   => Auxiliary Basis Set <=

  Basis Set: (6-311++G** AUX)
    Blend: AUG-CC-PVTZ-JKFIT
    Number of shells: 1544
    Number of basis function: 5274
    Number of Cartesian functions: 6552
    Spherical Harmonics?: true
    Max angular momentum: 4

  Minimum eigenvalue in the overlap matrix is 8.2168575755E-08.
  Using Canonical Orthogonalization with cutoff of 1.0000000000E-07.
  Overall, 1 of 1031 possible MOs eliminated.

  SCF Guess: Superposition of Atomic Densities via on-the-fly atomic UHF.

  ==> Iterations <==

                           Total Energy        Delta E     RMS |[F,P]|

   @DF-RHF iter SAD: -1571.09973604208176   -1.57110e+03   0.00000e+00 
   @DF-RHF iter   1: -1571.28209566290661   -1.82360e-01   1.21763e-03 DIIS
   @DF-RHF iter   2: -1572.05909933043290   -7.77004e-01   6.38231e-04 DIIS
   @DF-RHF iter   3: -1572.25120517466053   -1.92106e-01   1.61261e-04 DIIS
   @DF-RHF iter   4: -1572.26796932809179   -1.67642e-02   6.40068e-05 DIIS
   @DF-RHF iter   5: -1572.27039521843881   -2.42589e-03   1.32799e-05 DIIS
   @DF-RHF iter   6: -1572.27054287177316   -1.47653e-04   6.03819e-06 DIIS
   @DF-RHF iter   7: -1572.27057724615725   -3.43744e-05   1.96058e-06 DIIS
   @DF-RHF iter   8: -1572.27058267095731   -5.42480e-06   7.72669e-07 DIIS
   @DF-RHF iter   9: -1572.27058359064881   -9.19692e-07   3.17237e-07 DIIS
   @DF-RHF iter  10: -1572.27058377659569   -1.85947e-07   1.40266e-07 DIIS
   @DF-RHF iter  11: -1572.27058381432198   -3.77263e-08   6.97174e-08 DIIS
   @DF-RHF iter  12: -1572.27058382444125   -1.01193e-08   2.79006e-08 DIIS
   @DF-RHF iter  13: -1572.27058382639416   -1.95291e-09   1.14698e-08 DIIS
   @DF-RHF iter  14: -1572.27058382680889   -4.14730e-10   5.58897e-09 DIIS
  Energy and wave function converged.


  ==> Post-Iterations <==

    Orbital Energies [Eh]
    ---------------------

    Doubly Occupied:                                                      

       1A    -20.520231     2A    -15.603408     3A    -15.601658  
       4A    -15.586922     5A    -15.573371     6A    -15.567994  
       7A    -15.565432     8A    -15.565109     9A    -11.374030  
      10A    -11.364229    11A    -11.334252    12A    -11.326527  
      13A    -11.326446    14A    -11.316101    15A    -11.313799  
      16A    -11.301103    17A    -11.301089    18A    -11.300248  
      19A    -11.292936    20A    -11.289553    21A    -11.282860  
      22A    -11.280241    23A    -11.275208    24A    -11.266639  
      25A    -11.265748    26A    -11.256082    27A    -11.254738  
      28A    -11.253359    29A    -11.252456    30A    -11.249211  
      31A    -11.247005    32A    -11.246235    33A    -11.244742  
      34A    -11.239330    35A    -11.233776    36A    -11.231500  
      37A    -11.224684    38A     -1.385675    39A     -1.345025  
      40A     -1.278352    41A     -1.250317    42A     -1.248097  
      43A     -1.241225    44A     -1.209401    45A     -1.202557  
      46A     -1.161573    47A     -1.139549    48A     -1.115880  
      49A     -1.075097    50A     -1.060010    51A     -1.048198  
      52A     -1.037898    53A     -1.022737    54A     -1.008101  
      55A     -1.007494    56A     -0.976335    57A     -0.947423  
      58A     -0.929738    59A     -0.926379    60A     -0.900722  
      61A     -0.873934    62A     -0.872458    63A     -0.858067  
      64A     -0.847273    65A     -0.839272    66A     -0.828334  
      67A     -0.823258    68A     -0.804100    69A     -0.777812  
      70A     -0.754374    71A     -0.739168    72A     -0.730821  
      73A     -0.721784    74A     -0.705981    75A     -0.698051  
      76A     -0.682328    77A     -0.678181    78A     -0.666530  
      79A     -0.661383    80A     -0.656266    81A     -0.651783  
      82A     -0.637351    83A     -0.636742    84A     -0.629607  
      85A     -0.622683    86A     -0.618535    87A     -0.614223  
      88A     -0.610748    89A     -0.606746    90A     -0.603972  
      91A     -0.602623    92A     -0.596622    93A     -0.595288  
      94A     -0.593197    95A     -0.590088    96A     -0.582555  
      97A     -0.580112    98A     -0.572356    99A     -0.561456  
     100A     -0.560568   101A     -0.548889   102A     -0.547190  
     103A     -0.544333   104A     -0.523900   105A     -0.519783  
     106A     -0.515958   107A     -0.513276   108A     -0.508619  
     109A     -0.506194   110A     -0.500479   111A     -0.496373  
     112A     -0.493113   113A     -0.484633   114A     -0.478881  
     115A     -0.464137   116A     -0.451581   117A     -0.442825  
     118A     -0.430857   119A     -0.427358   120A     -0.425494  
     121A     -0.414027   122A     -0.403126   123A     -0.400216  
     124A     -0.384560   125A     -0.373255   126A     -0.346021  
     127A     -0.343871   128A     -0.338143   129A     -0.319366  
     130A     -0.314116   131A     -0.290329  

    Virtual:                                                              

     132A      0.026564   133A      0.035359   134A      0.041154  
     135A      0.041971   136A      0.044333   137A      0.047560  
     138A      0.048681   139A      0.052067   140A      0.057949  
     141A      0.060749   142A      0.064234   143A      0.064391  
     144A      0.067045   145A      0.069479   146A      0.071139  
     147A      0.074335   148A      0.076346   149A      0.081515  
     150A      0.082501   151A      0.084422   152A      0.085058  
     153A      0.086659   154A      0.091056   155A      0.095486  
     156A      0.098361   157A      0.099346   158A      0.100151  
     159A      0.103535   160A      0.104670   161A      0.107478  
     162A      0.109202   163A      0.113794   164A      0.115634  
     165A      0.119207   166A      0.120397   167A      0.121065  
     168A      0.125223   169A      0.128754   170A      0.130710  
     171A      0.131584   172A      0.136242   173A      0.139246  
     174A      0.140739   175A      0.143783   176A      0.145871  
     177A      0.150691   178A      0.151395   179A      0.154407  
     180A      0.154793   181A      0.158297   182A      0.159532  
     183A      0.160815   184A      0.162040   185A      0.163889  
     186A      0.166659   187A      0.167828   188A      0.170920  
     189A      0.173708   190A      0.174914   191A      0.177698  
     192A      0.178793   193A      0.179308   194A      0.180689  
     195A      0.182313   196A      0.183691   197A      0.184166  
     198A      0.187580   199A      0.189660   200A      0.190152  
     201A      0.192101   202A      0.195865   203A      0.196233  
     204A      0.198770   205A      0.200356   206A      0.201542  
     207A      0.203520   208A      0.205301   209A      0.209443  
     210A      0.210362   211A      0.211889   212A      0.212635  
     213A      0.214234   214A      0.216379   215A      0.217714  
     216A      0.219145   217A      0.220400   218A      0.221403  
     219A      0.223916   220A      0.226499   221A      0.227742  
     222A      0.229356   223A      0.231742   224A      0.233402  
     225A      0.234168   226A      0.237179   227A      0.237889  
     228A      0.240601   229A      0.244623   230A      0.244923  
     231A      0.247817   232A      0.249499   233A      0.253367  
     234A      0.255087   235A      0.256828   236A      0.258866  
     237A      0.261773   238A      0.264813   239A      0.265799  
     240A      0.268094   241A      0.271729   242A      0.272969  
     243A      0.276081   244A      0.276865   245A      0.278866  
     246A      0.282528   247A      0.284477   248A      0.287104  
     249A      0.290289   250A      0.292925   251A      0.294575  
     252A      0.296000   253A      0.300243   254A      0.301195  
     255A      0.304437   256A      0.304966   257A      0.310100  
     258A      0.310389   259A      0.311504   260A      0.313852  
     261A      0.315818   262A      0.318732   263A      0.321235  
     264A      0.322229   265A      0.326180   266A      0.327198  
     267A      0.329788   268A      0.331776   269A      0.332729  
     270A      0.336092   271A      0.338694   272A      0.340225  
     273A      0.341148   274A      0.342571   275A      0.347589  
     276A      0.349983   277A      0.352791   278A      0.355510  
     279A      0.356415   280A      0.358656   281A      0.360674  
     282A      0.362954   283A      0.363450   284A      0.365991  
     285A      0.366503   286A      0.370949   287A      0.372440  
     288A      0.373294   289A      0.374862   290A      0.376910  
     291A      0.377995   292A      0.379592   293A      0.381160  
     294A      0.383716   295A      0.385580   296A      0.387300  
     297A      0.389206   298A      0.391541   299A      0.393031  
     300A      0.394603   301A      0.394911   302A      0.397715  
     303A      0.399264   304A      0.401086   305A      0.402782  
     306A      0.405593   307A      0.405984   308A      0.409918  
     309A      0.412414   310A      0.413631   311A      0.413744  
     312A      0.416735   313A      0.417794   314A      0.419117  
     315A      0.420377   316A      0.421773   317A      0.428219  
     318A      0.429214   319A      0.430692   320A      0.431134  
     321A      0.432056   322A      0.435586   323A      0.438219  
     324A      0.438482   325A      0.441854   326A      0.443691  
     327A      0.446191   328A      0.447090   329A      0.448355  
     330A      0.450682   331A      0.451667   332A      0.454676  
     333A      0.456719   334A      0.459148   335A      0.464569  
     336A      0.465227   337A      0.466973   338A      0.470890  
     339A      0.471101   340A      0.472883   341A      0.475565  
     342A      0.477222   343A      0.480282   344A      0.482561  
     345A      0.484942   346A      0.489978   347A      0.492453  
     348A      0.494501   349A      0.496967   350A      0.501300  
     351A      0.504394   352A      0.508178   353A      0.508906  
     354A      0.509871   355A      0.513488   356A      0.516434  
     357A      0.517476   358A      0.521634   359A      0.523678  
     360A      0.526179   361A      0.530666   362A      0.534112  
     363A      0.536033   364A      0.540839   365A      0.543090  
     366A      0.548662   367A      0.553722   368A      0.555824  
     369A      0.561161   370A      0.568002   371A      0.570035  
     372A      0.574512   373A      0.578636   374A      0.584487  
     375A      0.592961   376A      0.597008   377A      0.604295  
     378A      0.606211   379A      0.613760   380A      0.614431  
     381A      0.621486   382A      0.623032   383A      0.625205  
     384A      0.635222   385A      0.639435   386A      0.650937  
     387A      0.661739   388A      0.665252   389A      0.678164  
     390A      0.684638   391A      0.686901   392A      0.699779  
     393A      0.702891   394A      0.703910   395A      0.710538  
     396A      0.713111   397A      0.721485   398A      0.724831  
     399A      0.729989   400A      0.731507   401A      0.733851  
     402A      0.736362   403A      0.746437   404A      0.749726  
     405A      0.758516   406A      0.760248   407A      0.761619  
     408A      0.765554   409A      0.767257   410A      0.768813  
     411A      0.773484   412A      0.774991   413A      0.777828  
     414A      0.785006   415A      0.786292   416A      0.797722  
     417A      0.798403   418A      0.800404   419A      0.805264  
     420A      0.808335   421A      0.811358   422A      0.815314  
     423A      0.818703   424A      0.821815   425A      0.823523  
     426A      0.827490   427A      0.830855   428A      0.832386  
     429A      0.835294   430A      0.839603   431A      0.841303  
     432A      0.845790   433A      0.850258   434A      0.855221  
     435A      0.856894   436A      0.859998   437A      0.861772  
     438A      0.868254   439A      0.871065   440A      0.875494  
     441A      0.877709   442A      0.881683   443A      0.883126  
     444A      0.888117   445A      0.889688   446A      0.893423  
     447A      0.900417   448A      0.903992   449A      0.905708  
     450A      0.910273   451A      0.913247   452A      0.915520  
     453A      0.917821   454A      0.923932   455A      0.925477  
     456A      0.927485   457A      0.932543   458A      0.937458  
     459A      0.939758   460A      0.940166   461A      0.941919  
     462A      0.946076   463A      0.947142   464A      0.952545  
     465A      0.954784   466A      0.956672   467A      0.962712  
     468A      0.963810   469A      0.974017   470A      0.975345  
     471A      0.978469   472A      0.979641   473A      0.987422  
     474A      0.991219   475A      0.993787   476A      0.996610  
     477A      0.999481   478A      1.004417   479A      1.006802  
     480A      1.013798   481A      1.018271   482A      1.025651  
     483A      1.026583   484A      1.030511   485A      1.033954  
     486A      1.037734   487A      1.038722   488A      1.046720  
     489A      1.050850   490A      1.053699   491A      1.059218  
     492A      1.063029   493A      1.066240   494A      1.073369  
     495A      1.076529   496A      1.078442   497A      1.083497  
     498A      1.089785   499A      1.095683   500A      1.097984  
     501A      1.100637   502A      1.103520   503A      1.110372  
     504A      1.119532   505A      1.124837   506A      1.134214  
     507A      1.137966   508A      1.138992   509A      1.141195  
     510A      1.146741   511A      1.149227   512A      1.155912  
     513A      1.156910   514A      1.159780   515A      1.165643  
     516A      1.168506   517A      1.171010   518A      1.174882  
     519A      1.179986   520A      1.184091   521A      1.186406  
     522A      1.188626   523A      1.190587   524A      1.195941  
     525A      1.200077   526A      1.203810   527A      1.208709  
     528A      1.213409   529A      1.214774   530A      1.216442  
     531A      1.222695   532A      1.225064   533A      1.226297  
     534A      1.230197   535A      1.242585   536A      1.243883  
     537A      1.250577   538A      1.251952   539A      1.255934  
     540A      1.259683   541A      1.262199   542A      1.269687  
     543A      1.272947   544A      1.279639   545A      1.281875  
     546A      1.283489   547A      1.284854   548A      1.288858  
     549A      1.289377   550A      1.296300   551A      1.301568  
     552A      1.303523   553A      1.321118   554A      1.322594  
     555A      1.326037   556A      1.336186   557A      1.339695  
     558A      1.343873   559A      1.347865   560A      1.351298  
     561A      1.354641   562A      1.366867   563A      1.378595  
     564A      1.384845   565A      1.387011   566A      1.397229  
     567A      1.407344   568A      1.412004   569A      1.417114  
     570A      1.421069   571A      1.430970   572A      1.439141  
     573A      1.443820   574A      1.448010   575A      1.458706  
     576A      1.462266   577A      1.467655   578A      1.468648  
     579A      1.476357   580A      1.485299   581A      1.488901  
     582A      1.497566   583A      1.501501   584A      1.506193  
     585A      1.523019   586A      1.526821   587A      1.534062  
     588A      1.545214   589A      1.552288   590A      1.561201  
     591A      1.567237   592A      1.573829   593A      1.589655  
     594A      1.596561   595A      1.597640   596A      1.619358  
     597A      1.622430   598A      1.634045   599A      1.639530  
     600A      1.653462   601A      1.668017   602A      1.683963  
     603A      1.684569   604A      1.693644   605A      1.694993  
     606A      1.700476   607A      1.704083   608A      1.716397  
     609A      1.718898   610A      1.727736   611A      1.734986  
     612A      1.745671   613A      1.746964   614A      1.750694  
     615A      1.757504   616A      1.763167   617A      1.772324  
     618A      1.777160   619A      1.786231   620A      1.790120  
     621A      1.791598   622A      1.798085   623A      1.800862  
     624A      1.807612   625A      1.808404   626A      1.808730  
     627A      1.810800   628A      1.818132   629A      1.821450  
     630A      1.824181   631A      1.828507   632A      1.832430  
     633A      1.837684   634A      1.843155   635A      1.846345  
     636A      1.849598   637A      1.853668   638A      1.854440  
     639A      1.856515   640A      1.863547   641A      1.865745  
     642A      1.873873   643A      1.877275   644A      1.879510  
     645A      1.882375   646A      1.884389   647A      1.896143  
     648A      1.898091   649A      1.901062   650A      1.913328  
     651A      1.922753   652A      1.924645   653A      1.932350  
     654A      1.935485   655A      1.939509   656A      1.942647  
     657A      1.949986   658A      1.955805   659A      1.959880  
     660A      1.962966   661A      1.971271   662A      1.976741  
     663A      1.977943   664A      1.981804   665A      1.983489  
     666A      1.992352   667A      1.997550   668A      1.999319  
     669A      2.004382   670A      2.009324   671A      2.011433  
     672A      2.019080   673A      2.020891   674A      2.029681  
     675A      2.033516   676A      2.047191   677A      2.047392  
     678A      2.048864   679A      2.053120   680A      2.062490  
     681A      2.071214   682A      2.073161   683A      2.079317  
     684A      2.083841   685A      2.085992   686A      2.087150  
     687A      2.091615   688A      2.096556   689A      2.103501  
     690A      2.113211   691A      2.122218   692A      2.132363  
     693A      2.135187   694A      2.137703   695A      2.145137  
     696A      2.150716   697A      2.157702   698A      2.162286  
     699A      2.168535   700A      2.174192   701A      2.181194  
     702A      2.182759   703A      2.187109   704A      2.193719  
     705A      2.208759   706A      2.212567   707A      2.220928  
     708A      2.222858   709A      2.227353   710A      2.236092  
     711A      2.236943   712A      2.241553   713A      2.249962  
     714A      2.253863   715A      2.256891   716A      2.258661  
     717A      2.262984   718A      2.269597   719A      2.273682  
     720A      2.280946   721A      2.287017   722A      2.292131  
     723A      2.301322   724A      2.302382   725A      2.308708  
     726A      2.318945   727A      2.325798   728A      2.329711  
     729A      2.334159   730A      2.342163   731A      2.350680  
     732A      2.356285   733A      2.360427   734A      2.369411  
     735A      2.372356   736A      2.373889   737A      2.377660  
     738A      2.386553   739A      2.389826   740A      2.400440  
     741A      2.405708   742A      2.414606   743A      2.428697  
     744A      2.429317   745A      2.430761   746A      2.439597  
     747A      2.447808   748A      2.452166   749A      2.459121  
     750A      2.468335   751A      2.480475   752A      2.495197  
     753A      2.497732   754A      2.499846   755A      2.517711  
     756A      2.520479   757A      2.535032   758A      2.541634  
     759A      2.542374   760A      2.550411   761A      2.554629  
     762A      2.558252   763A      2.570885   764A      2.576480  
     765A      2.586647   766A      2.606426   767A      2.612538  
     768A      2.621708   769A      2.629082   770A      2.651855  
     771A      2.657257   772A      2.666913   773A      2.680270  
     774A      2.680719   775A      2.684897   776A      2.690966  
     777A      2.697645   778A      2.710000   779A      2.718817  
     780A      2.734796   781A      2.745242   782A      2.748143  
     783A      2.770957   784A      2.779225   785A      2.782053  
     786A      2.784287   787A      2.789687   788A      2.808149  
     789A      2.812680   790A      2.818055   791A      2.828530  
     792A      2.831304   793A      2.838691   794A      2.854082  
     795A      2.855778   796A      2.859982   797A      2.862260  
     798A      2.873171   799A      2.877893   800A      2.885266  
     801A      2.896771   802A      2.906307   803A      2.911069  
     804A      2.927099   805A      2.933476   806A      2.940544  
     807A      2.952336   808A      2.954067   809A      2.960605  
     810A      2.963839   811A      2.972285   812A      2.973728  
     813A      2.980822   814A      2.983984   815A      2.988866  
     816A      3.002618   817A      3.008172   818A      3.015350  
     819A      3.018544   820A      3.025545   821A      3.032403  
     822A      3.035327   823A      3.039372   824A      3.047507  
     825A      3.049322   826A      3.055857   827A      3.061504  
     828A      3.064166   829A      3.070538   830A      3.076214  
     831A      3.082902   832A      3.089743   833A      3.093471  
     834A      3.095515   835A      3.103259   836A      3.105919  
     837A      3.111953   838A      3.116415   839A      3.118096  
     840A      3.121461   841A      3.123353   842A      3.132079  
     843A      3.140082   844A      3.142568   845A      3.154349  
     846A      3.155944   847A      3.162960   848A      3.169559  
     849A      3.171778   850A      3.196602   851A      3.199559  
     852A      3.205494   853A      3.208319   854A      3.211285  
     855A      3.221754   856A      3.229905   857A      3.233107  
     858A      3.250523   859A      3.252045   860A      3.254698  
     861A      3.265544   862A      3.273719   863A      3.278709  
     864A      3.281949   865A      3.286636   866A      3.295423  
     867A      3.296705   868A      3.300550   869A      3.304169  
     870A      3.310711   871A      3.316832   872A      3.328457  
     873A      3.331664   874A      3.332679   875A      3.337568  
     876A      3.346236   877A      3.351675   878A      3.354714  
     879A      3.361333   880A      3.364919   881A      3.365367  
     882A      3.374113   883A      3.381749   884A      3.387293  
     885A      3.390005   886A      3.397878   887A      3.406688  
     888A      3.418035   889A      3.431150   890A      3.461248  
     891A      3.467935   892A      3.500540   893A      3.507811  
     894A      3.521970   895A      3.531409   896A      3.566544  
     897A      3.588052   898A      3.602188   899A      3.610493  
     900A      3.612679   901A      3.633276   902A      3.644475  
     903A      3.651505   904A      3.668880   905A      3.672764  
     906A      3.680436   907A      3.683019   908A      3.723853  
     909A      3.763448   910A      3.773767   911A      3.782289  
     912A      3.796695   913A      3.803967   914A      3.813271  
     915A      3.816913   916A      3.843592   917A      3.848183  
     918A      3.857399   919A      3.871595   920A      3.880411  
     921A      3.886619   922A      3.902152   923A      3.918891  
     924A      3.921708   925A      3.923855   926A      3.939977  
     927A      3.957233   928A      3.961136   929A      3.976884  
     930A      4.006723   931A      4.011845   932A      4.044789  
     933A      4.059564   934A      4.072628   935A      4.092589  
     936A      4.102557   937A      4.102791   938A      4.118102  
     939A      4.122844   940A      4.142027   941A      4.154926  
     942A      4.177362   943A      4.188715   944A      4.190728  
     945A      4.197169   946A      4.201667   947A      4.216307  
     948A      4.263298   949A      4.355462   950A      4.363645  
     951A      4.366857   952A      4.378842   953A      4.396742  
     954A      4.416691   955A      4.421110   956A      4.424031  
     957A      4.430414   958A      4.434340   959A      4.445309  
     960A      4.453944   961A      4.516362   962A      4.519073  
     963A      4.546085   964A      4.551370   965A      4.568818  
     966A      4.584878   967A      4.623485   968A      4.623985  
     969A      4.662092   970A      4.701055   971A      4.768440  
     972A      4.771043   973A      4.792805   974A      4.908138  
     975A      4.939457   976A      5.002459   977A      5.044444  
     978A      5.231482   979A      5.249364   980A      5.265443  
     981A      5.273456   982A      5.290852   983A      5.340920  
     984A      5.352928   985A      5.414581   986A      5.417458  
     987A      5.612473   988A      5.686767   989A      5.692025  
     990A      5.796837   991A      5.853382   992A      5.870293  
     993A      6.396607   994A     24.753146   995A     24.754550  
     996A     24.761576   997A     24.803222   998A     24.840005  
     999A     24.881243  1000A     24.938210  1001A     25.009654  
    1002A     25.018342  1003A     25.030561  1004A     25.069815  
    1005A     25.071527  1006A     25.091127  1007A     25.099294  
    1008A     25.105538  1009A     25.115079  1010A     25.122890  
    1011A     25.132206  1012A     25.135612  1013A     25.171093  
    1014A     25.180121  1015A     25.198556  1016A     25.204855  
    1017A     25.233996  1018A     25.245576  1019A     25.246403  
    1020A     25.251915  1021A     25.320576  1022A     25.328380  
    1023A     36.934104  1024A     36.991644  1025A     37.020916  
    1026A     37.070951  1027A     37.075008  1028A     37.136779  
    1029A     37.153125  1030A     51.764048  

    Final Occupation by Irrep:
              A 
    DOCC [   131 ]

  @DF-RHF Final Energy: -1572.27058382680889

   => Energetics <=

    Nuclear Repulsion Energy =           3675.6650228093108126
    One-Electron Energy =               -9449.3040990994813910
    Two-Electron Energy =                4201.3684924633616902
    Total Energy =                      -1572.2705838268084335

Computation Completed


Properties will be evaluated at   0.000000,   0.000000,   0.000000 [a0]

Properties computed using the SCF density matrix

  Nuclear Dipole Moment: [e a0]
     X:   -41.8507      Y:     5.2211      Z:     5.2154

  Electronic Dipole Moment: [e a0]
     X:    41.9761      Y:    -2.3554      Z:    -5.0469

  Dipole Moment: [e a0]
     X:     0.1254      Y:     2.8657      Z:     0.1684     Total:     2.8734

  Dipole Moment: [D]
     X:     0.3188      Y:     7.2839      Z:     0.4281     Total:     7.3034


*** tstop() called on node144.bme.utexas.edu at Tue Apr 14 13:21:05 2020
Module time:
	user time   =   10776.06 seconds =     179.60 minutes
	system time =     121.48 seconds =       2.02 minutes
	total time  =       2405 seconds =      40.08 minutes
Total time:
	user time   =   10776.06 seconds =     179.60 minutes
	system time =     121.48 seconds =       2.02 minutes
	total time  =       2405 seconds =      40.08 minutes

*** tstart() called on node144.bme.utexas.edu
*** at Tue Apr 14 13:21:05 2020


  //>>>>>>>>>>>>>>>>>>>>>>>>>>>>>>>>>>>//
  //               DFMP2               //
  //<<<<<<<<<<<<<<<<<<<<<<<<<<<<<<<<<<<//

   => Loading Basis Set <=

    Name: (6-311++G** AUX)
    Role: RIFIT
    Keyword: DF_BASIS_MP2
    atoms 1-4, 6-9, 11, 14-19, 21-28, 30-31, 33-35, 37 entry C          line   148 file /home/bdw2292/miniconda3/envs/p4env/share/psi4/basis/aug-cc-pvtz-ri.gbs 
    atoms 5, 10, 12-13, 20, 29, 32                     entry N          line   206 file /home/bdw2292/miniconda3/envs/p4env/share/psi4/basis/aug-cc-pvtz-ri.gbs 
    atoms 36                                           entry O          line   264 file /home/bdw2292/miniconda3/envs/p4env/share/psi4/basis/aug-cc-pvtz-ri.gbs 
    atoms 38-68                                        entry H          line    30 file /home/bdw2292/miniconda3/envs/p4env/share/psi4/basis/aug-cc-pvtz-ri.gbs 

	 --------------------------------------------------------
	                          DF-MP2                         
	      2nd-Order Density-Fitted Moller-Plesset Theory     
	              RMP2 Wavefunction,   6 Threads             
	                                                         
	        Rob Parrish, Justin Turney, Andy Simmonett,      
	           Ed Hohenstein, and C. David Sherrill          
	 --------------------------------------------------------

   => Auxiliary Basis Set <=

  Basis Set: (6-311++G** AUX)
    Blend: AUG-CC-PVTZ-RI
    Number of shells: 1470
    Number of basis function: 5348
    Number of Cartesian functions: 6737
    Spherical Harmonics?: true
    Max angular momentum: 4

	 --------------------------------------------------------
	                 NBF =  1031, NAUX =  5348
	 --------------------------------------------------------
	   CLASS    FOCC     OCC    AOCC    AVIR     VIR    FVIR
	   PAIRS      37     131      94     899     899       0
	 --------------------------------------------------------

	-----------------------------------------------------------
	 ==================> DF-MP2 Energies <==================== 
	-----------------------------------------------------------
	 Reference Energy          =   -1572.2705838268088883 [Eh]
	 Singles Energy            =      -0.0000000000000000 [Eh]
	 Same-Spin Energy          =      -1.4682753886205093 [Eh]
	 Opposite-Spin Energy      =      -4.0459526316389933 [Eh]
	 Correlation Energy        =      -5.5142280202595026 [Eh]
	 Total Energy              =   -1577.7848118470683403 [Eh]
	-----------------------------------------------------------
	 ================> DF-SCS-MP2 Energies <================== 
	-----------------------------------------------------------
	 SCS Same-Spin Scale       =       0.3333333333333333 [-]
	 SCS Opposite-Spin Scale   =       1.2000000000000000 [-]
	 SCS Same-Spin Energy      =      -0.4894251295401698 [Eh]
	 SCS Opposite-Spin Energy  =      -4.8551431579667916 [Eh]
	 SCS Correlation Energy    =      -5.3445682875069611 [Eh]
	 SCS Total Energy          =   -1577.6151521143158334 [Eh]
	-----------------------------------------------------------


*** tstop() called on node144.bme.utexas.edu at Tue Apr 14 13:40:50 2020
Module time:
	user time   =    5623.45 seconds =      93.72 minutes
	system time =      51.02 seconds =       0.85 minutes
	total time  =       1185 seconds =      19.75 minutes
Total time:
	user time   =   16399.51 seconds =     273.33 minutes
	system time =     172.50 seconds =       2.88 minutes
	total time  =       3590 seconds =      59.83 minutes


Properties will be evaluated at   0.000000,   0.000000,   0.000000 [a0]
OEProp: No title given, name of density matrix used for the following properties is 'SCF density'


  Wiberg Bond Indices using Orthogonal Lowdin Orbitals:

  Irrep: 1 Size: 68 x 68

                 1                   2                   3                   4                   5

    1     0.00000000000000     1.46401551607665     0.12526647361461     0.14046756693747     0.12371014032144
    2     1.46401551607665     0.00000000000000     1.40185168292433     0.12850454397295     0.12144281194742
    3     0.12526647361461     1.40185168292433     0.00000000000000     1.36095337887593     0.11859709133626
    4     0.14046756693747     0.12850454397295     1.36095337887593     0.00000000000000     1.66216725385895
    5     0.12371014032144     0.12144281194742     0.11859709133626     1.66216725385895     0.00000000000000
    6     1.46581800486741     0.13816339520004     0.13569739603275     0.15355873730763     1.62626558004876
    7     0.01460037657545     0.10277322128267     1.02041809509345     0.10431046737394     0.01391884900127
    8     0.00351890880256     0.04121673130276     0.09806903273831     0.02382832447035     0.00217935557878
    9     0.00036225221862     0.00463794166064     0.01471007356914     0.00408943106580     0.00067672551602
   10     0.00041203769965     0.00536828013549     0.00577260240051     0.00602692978329     0.00032227318025
   11     0.00087004185513     0.00333720818361     0.01801833130675     0.00690882814761     0.00043354888890
   12     0.00281385390320     0.02208021369979     0.11948486371825     0.06232547864977     0.00412657567834
   13     0.00016304613800     0.00047603272111     0.00163400909563     0.00094066823156     0.00008654523057
   14     0.00003072958068     0.00009506418172     0.00058828638898     0.00138847327002     0.00011667401868
   15     0.00001047931078     0.00002313159582     0.00006945351648     0.00014862459697     0.00001620000831
   16     0.00000210206693     0.00000629140785     0.00004539382596     0.00028825253977     0.00001352134484
   17     0.00001234408615     0.00001914320185     0.00005695814456     0.00027673740988     0.00004419894065
   18     0.00002798444355     0.00005563977446     0.00030369581293     0.00195145087707     0.00023201187246
   19     0.00017296950537     0.00024672384625     0.00204394607239     0.01063486893396     0.00062277143891
   20     0.00005832960002     0.00007279331498     0.00033003219984     0.00313414813841     0.00062336825429
   21     0.00001200691433     0.00001246313354     0.00005343617005     0.00037940035383     0.00020020039783
   22     0.00004619367115     0.00003235949589     0.00004842728298     0.00055435552673     0.00144704844298
   23     0.00046099797401     0.00030024153521     0.00038820974792     0.00624015126161     0.02195374961432
   24     0.00017081681400     0.00017593191137     0.00023698840121     0.00112131368239     0.00929161082142
   25     0.00001333463544     0.00000937121705     0.00001514046259     0.00009583239410     0.00042857974268
   26     0.00000729866583     0.00000422697764     0.00001060333087     0.00014021923492     0.00035873407118
   27     0.00000802688443     0.00000393583040     0.00001134387199     0.00015140314663     0.00044298632946
   28     0.00000315845165     0.00000148710948     0.00000239487739     0.00001537447720     0.00004441707839
   29     0.00001003582215     0.00000190115671     0.00000321435508     0.00000619338021     0.00006602254321
   30     0.00007909816577     0.00006440258253     0.00009824517975     0.00002854251310     0.00016307485494
   31     0.00001476652809     0.00000837243228     0.00000898404439     0.00001030752335     0.00003853576932
   32     0.00000195183434     0.00000068615518     0.00000066656103     0.00000182882061     0.00000535677516
   33     0.00000166999559     0.00000029859647     0.00000025173535     0.00000055073840     0.00000174998842
   34     0.00000144946151     0.00000033002896     0.00000034652489     0.00000129032927     0.00000540557361
   35     0.00000141006250     0.00000062895502     0.00000056080479     0.00000193874635     0.00000687286400
   36     0.00000182693329     0.00000236209217     0.00001243914992     0.00012122013899     0.00003640547897
   37     0.00000223070309     0.00000740604083     0.00003258556036     0.00003508116727     0.00000296879730
   38     0.88618933127951     0.07927079508137     0.01179004447394     0.00635725618861     0.01070874806791
   39     0.07738227934116     0.87057195934922     0.07298569475540     0.01178025735982     0.00395225746473
   40     0.00565493087167     0.01050201684685     0.06902394830424     0.84984095565271     0.08682886552679
   41     0.07686641488797     0.01176158330860     0.00604157758306     0.01591946447346     0.08822191313012
   42     0.00103953537243     0.01382616346722     0.01425338154968     0.00136079322628     0.00028768318686
   43     0.00004395165630     0.00027375704324     0.00143241644448     0.00031700278362     0.00007698708811
   44     0.00002460507714     0.00008227330581     0.00035059040480     0.00009346305740     0.00000796421044
   45     0.00000032972827     0.00000111717127     0.00000688568524     0.00001879037353     0.00000174077560
   46     0.00000092148667     0.00000166023186     0.00000682249854     0.00002439572163     0.00000800988385
   47     0.00013492048526     0.00019212428337     0.00191927303919     0.00756105352720     0.00054421694519
   48     0.00011059963833     0.00007518866205     0.00020499686524     0.00235874249906     0.00075351931514
   49     0.00039958954874     0.00015166431880     0.00029790818656     0.00517507341229     0.01420942036857
   50     0.00007372980213     0.00006567451308     0.00010014150447     0.00026892949305     0.00258210960790
   51     0.00000070927077     0.00000048944152     0.00000145788207     0.00001411340180     0.00002596857172
   52     0.00000122194068     0.00000058733627     0.00000132900522     0.00000928023212     0.00003981712042
   53     0.00000043843639     0.00000041515129     0.00000037667952     0.00000253193663     0.00001162383503
   54     0.00000038182925     0.00000018521182     0.00000043240758     0.00000465765854     0.00000486655869
   55     0.00002441204477     0.00003133280340     0.00004957566393     0.00001415861583     0.00018210700977
   56     0.00002144255158     0.00000735964253     0.00001931422596     0.00000959472770     0.00002204547693
   57     0.00000659321023     0.00000573292048     0.00000724276876     0.00000388142489     0.00001052490614
   58     0.00000090592577     0.00000051697248     0.00000074028524     0.00000371610979     0.00000569222469
   59     0.00000090096354     0.00000007551964     0.00000005645564     0.00000025451473     0.00000055248394
   60     0.00000023988013     0.00000008964378     0.00000002804613     0.00000011079356     0.00000036860193
   61     0.00000025263864     0.00000004363546     0.00000004387928     0.00000008646638     0.00000037938329
   62     0.00000022811467     0.00000004634604     0.00000004466085     0.00000018082753     0.00000147058887
   63     0.00000088747720     0.00000022610617     0.00000010777715     0.00000078341546     0.00000336607721
   64     0.00000060787105     0.00000028155492     0.00000010654124     0.00000146236851     0.00000350615168
   65     0.00000016823528     0.00000004963212     0.00000003581923     0.00000014627357     0.00000068903860
   66     0.00000074126557     0.00000190113317     0.00001121626304     0.00000848071547     0.00000059905610
   67     0.00000106470097     0.00000289935797     0.00000987498770     0.00000839097540     0.00000081591806
   68     0.00000026413211     0.00000066279071     0.00000368112409     0.00000804180394     0.00000043678866

                 6                   7                   8                   9                  10

    1     1.46581800486741     0.01460037657545     0.00351890880256     0.00036225221862     0.00041203769965
    2     0.13816339520004     0.10277322128267     0.04121673130276     0.00463794166064     0.00536828013549
    3     0.13569739603275     1.02041809509345     0.09806903273831     0.01471007356914     0.00577260240051
    4     0.15355873730763     0.10431046737394     0.02382832447035     0.00408943106580     0.00602692978329
    5     1.62626558004876     0.01391884900127     0.00217935557878     0.00067672551602     0.00032227318025
    6     0.00000000000000     0.00973304554142     0.00681329894290     0.00119562400862     0.00334518297980
    7     0.00973304554142     0.00000000000000     1.38748272936343     0.14634326276913     0.11206274191698
    8     0.00681329894290     1.38748272936343     0.00000000000000     1.43254260521716     0.13042553175572
    9     0.00119562400862     0.14634326276913     1.43254260521716     0.00000000000000     1.66103559944657
   10     0.00334518297980     0.11206274191698     0.13042553175572     1.66103559944657     0.00000000000000
   11     0.00084836375891     0.14175389242005     0.11323486551548     0.15269613028752     1.50864672752829
   12     0.00605191217925     1.53251675725963     0.12685426148966     0.11134602955300     0.11022686126762
   13     0.00007467227058     0.01942727065405     0.02062797769022     0.02410671108289     0.15962181380842
   14     0.00004492166545     0.00301374500692     0.00251127116632     0.00326160268354     0.01691608950434
   15     0.00000553981721     0.00050750492899     0.00143316511597     0.00093079769237     0.00311952477713
   16     0.00000434953984     0.00017335797579     0.00019209305527     0.00015888494705     0.00046955362380
   17     0.00000729611038     0.00024984486690     0.00125442738536     0.00043274988982     0.00123763391382
   18     0.00004519467649     0.00056267486527     0.00026382876653     0.00014122228396     0.00040695023037
   19     0.00019166020823     0.00572595189743     0.00305166488410     0.00152009638624     0.00428809832991
   20     0.00007598472915     0.00013032941995     0.00002830672020     0.00001768189946     0.00005753229419
   21     0.00002314199056     0.00002155340151     0.00000844913087     0.00000467601050     0.00001585315440
   22     0.00014671070817     0.00000780027257     0.00000289159221     0.00000120649612     0.00000319104132
   23     0.00197022439447     0.00006300789636     0.00001442025917     0.00000404528411     0.00000306444930
   24     0.00178304814063     0.00002614421667     0.00001420175840     0.00000229031630     0.00000190616425
   25     0.00019803738464     0.00000264274698     0.00000173598493     0.00000028728438     0.00000052108524
   26     0.00010718026085     0.00000139917370     0.00000056005800     0.00000014833652     0.00000023857051
   27     0.00008208573577     0.00000246260875     0.00000117314292     0.00000042741164     0.00000088065339
   28     0.00003298887919     0.00000079026133     0.00000025466121     0.00000005534888     0.00000007853949
   29     0.00022920728009     0.00000106587060     0.00000042884730     0.00000009594414     0.00000010159339
   30     0.00048394291016     0.00000496892817     0.00000926589926     0.00000126983469     0.00000426891851
   31     0.00014119512768     0.00000058497617     0.00000077499712     0.00000012614959     0.00000023043804
   32     0.00002229828604     0.00000027415087     0.00000007781014     0.00000001613790     0.00000002099732
   33     0.00001037010726     0.00000009572333     0.00000004333817     0.00000000684140     0.00000000904369
   34     0.00000920201603     0.00000017925743     0.00000008536488     0.00000001647202     0.00000001276492
   35     0.00002571458048     0.00000015313533     0.00000014387753     0.00000001867626     0.00000002644350
   36     0.00000708497165     0.00001097456068     0.00000812911393     0.00000396513315     0.00001092366538
   37     0.00000198154028     0.00014698834244     0.00014310344625     0.00013679616027     0.00076463102017
   38     0.08243289279241     0.00128984170686     0.00024615984222     0.00003905463395     0.00002569159243
   39     0.01170837318859     0.01609517048299     0.01458117940274     0.00112825956641     0.00039498839118
   40     0.01475628709507     0.01576071926522     0.00168867071033     0.00040217493045     0.00060424111322
   41     0.87883757240950     0.00053973095971     0.00026361454430     0.00005214239587     0.00010378244739
   42     0.00047241297604     0.07538129371057     0.87667345274744     0.08075784758725     0.01045803699968
   43     0.00004304433022     0.01169008436079     0.07500660576815     0.87555771252485     0.09024194647564
   44     0.00001182360881     0.00208069838504     0.00203364992398     0.00365486052002     0.03127799607956
   45     0.00000043071637     0.00001872973031     0.00000933712165     0.00002323878176     0.00005356533373
   46     0.00000114074836     0.00002239976045     0.00004079167465     0.00001621689126     0.00005075562659
   47     0.00018246437176     0.00398009467309     0.00086794220898     0.00043397596323     0.00073045338995
   48     0.00009320069729     0.00008608762290     0.00002616287986     0.00000969690381     0.00002006659701
   49     0.00144381091705     0.00005285946609     0.00001313391133     0.00000340498228     0.00000264700405
   50     0.00114564506475     0.00000994711433     0.00000425329173     0.00000074466276     0.00000034281123
   51     0.00000515221513     0.00000009131753     0.00000007056727     0.00000001587270     0.00000003255196
   52     0.00000960405895     0.00000047020051     0.00000012824353     0.00000006050343     0.00000013134074
   53     0.00000480338512     0.00000016112819     0.00000003924975     0.00000000651269     0.00000001640359
   54     0.00000361582381     0.00000009897512     0.00000003964897     0.00000001080954     0.00000001384868
   55     0.00023091471098     0.00000239759089     0.00000456478001     0.00000063677001     0.00000318168681
   56     0.00019545982762     0.00000149284564     0.00000201572870     0.00000028589767     0.00000090837985
   57     0.00002063414331     0.00000033275774     0.00000037700066     0.00000006790893     0.00000013037885
   58     0.00003120153597     0.00000023754814     0.00000007814809     0.00000001663733     0.00000000639887
   59     0.00000605093155     0.00000001889593     0.00000000895581     0.00000000332436     0.00000000215472
   60     0.00000076321434     0.00000001608535     0.00000000929161     0.00000000124263     0.00000000217487
   61     0.00000415953067     0.00000002877227     0.00000000787233     0.00000000091859     0.00000000113456
   62     0.00000496469312     0.00000001282478     0.00000001196394     0.00000000290542     0.00000000122203
   63     0.00000722010145     0.00000004432187     0.00000002684780     0.00000000253414     0.00000000469131
   64     0.00000571524383     0.00000004459214     0.00000005062844     0.00000000354948     0.00000000698636
   65     0.00000179553875     0.00000001424133     0.00000001654430     0.00000000192942     0.00000000197333
   66     0.00000036278081     0.00004380333417     0.00007190265794     0.00004246899972     0.00024604619121
   67     0.00000133077304     0.00004590531750     0.00011089752055     0.00004150556046     0.00032142993955
   68     0.00000014793795     0.00001455170307     0.00000641010340     0.00000442142113     0.00003436077825

                11                  12                  13                  14                  15

    1     0.00087004185513     0.00281385390320     0.00016304613800     0.00003072958068     0.00001047931078
    2     0.00333720818361     0.02208021369979     0.00047603272111     0.00009506418172     0.00002313159582
    3     0.01801833130675     0.11948486371825     0.00163400909563     0.00058828638898     0.00006945351648
    4     0.00690882814761     0.06232547864977     0.00094066823156     0.00138847327002     0.00014862459697
    5     0.00043354888890     0.00412657567834     0.00008654523057     0.00011667401868     0.00001620000831
    6     0.00084836375891     0.00605191217925     0.00007467227058     0.00004492166545     0.00000553981721
    7     0.14175389242005     1.53251675725963     0.01942727065405     0.00301374500692     0.00050750492899
    8     0.11323486551548     0.12685426148966     0.02062797769022     0.00251127116632     0.00143316511597
    9     0.15269613028752     0.11134602955300     0.02410671108289     0.00326160268354     0.00093079769237
   10     1.50864672752829     0.11022686126762     0.15962181380842     0.01691608950434     0.00311952477713
   11     0.00000000000000     1.53353097055393     1.27214112551959     0.08284020334655     0.01801588196591
   12     1.53353097055393     0.00000000000000     0.14236113769200     0.03030086927664     0.00358997758436
   13     1.27214112551959     0.14236113769200     0.00000000000000     1.12464988743763     0.10571304232076
   14     0.08284020334655     0.03030086927664     1.12464988743763     0.00000000000000     1.31801103943208
   15     0.01801588196591     0.00358997758436     0.10571304232076     1.31801103943208     0.00000000000000
   16     0.00237927589811     0.00122641756458     0.01426867546122     0.12574385934135     1.44114540493473
   17     0.00414804981318     0.00243927854560     0.01175638658038     0.11990456002736     0.12419183034453
   18     0.00244722495510     0.00493034559862     0.01307367687073     0.12219302256877     0.12002639656642
   19     0.02860047053243     0.05443854885002     0.11034468060639     1.40236896125221     0.11986446742811
   20     0.00033934318014     0.00107085544328     0.00130231669044     0.01495490236868     0.01129770921438
   21     0.00006190810781     0.00013025908727     0.00029956571637     0.00274129493283     0.00571529102050
   22     0.00001146173842     0.00002448618873     0.00005558108410     0.00035292786495     0.00030490021717
   23     0.00001392748708     0.00010964474118     0.00001276546428     0.00011030947336     0.00034194118718
   24     0.00000201899626     0.00001088922434     0.00000266589919     0.00001214674128     0.00003489072908
   25     0.00000079392353     0.00000258831705     0.00000166786051     0.00002441175114     0.00017750913778
   26     0.00000054215373     0.00000101957189     0.00000235306693     0.00001819671978     0.00003429973338
   27     0.00000332561129     0.00000456627815     0.00001283041038     0.00009914963168     0.00033219698337
   28     0.00000014456199     0.00000057847140     0.00000021902686     0.00000213852042     0.00001148196575
   29     0.00000013387541     0.00000033461799     0.00000009852869     0.00000076676924     0.00000418142460
   30     0.00000062493288     0.00000572679283     0.00000020708538     0.00000053596523     0.00000138715811
   31     0.00000008126439     0.00000059872667     0.00000005120341     0.00000044870904     0.00000085831268
   32     0.00000006172400     0.00000012714658     0.00000001509490     0.00000018725552     0.00000013776960
   33     0.00000002382442     0.00000002470025     0.00000000751524     0.00000010420753     0.00000004447683
   34     0.00000002140535     0.00000004164066     0.00000001518767     0.00000011020090     0.00000019438680
   35     0.00000002753648     0.00000006641585     0.00000002538859     0.00000024963466     0.00000080917405
   36     0.00004006353844     0.00005475047468     0.00014642064212     0.00101408519111     0.00336699193898
   37     0.00373341704224     0.00079474240747     0.03796948928800     0.09657429922189     1.05907078416275
   38     0.00008987460430     0.00031408566856     0.00001601382522     0.00000723223792     0.00000083482289
   39     0.00028920778849     0.00109072694529     0.00006889687286     0.00002574502946     0.00000411760224
   40     0.00277857782531     0.02544711478698     0.00043957047582     0.00124334426018     0.00015461509366
   41     0.00004331893394     0.00025251575266     0.00000583121380     0.00000404392616     0.00000059994516
   42     0.00575567809705     0.01075506329496     0.00104480371296     0.00012303350496     0.00006405460201
   43     0.01583631247158     0.00400992063638     0.00135973217786     0.00038597507556     0.00006261463249
   44     0.07404992226232     0.01164579993791     0.93413417939080     0.05935544259042     0.01488697262222
   45     0.00036509160581     0.00006563578684     0.00115623679175     0.01142467917768     0.07499361739086
   46     0.00014789725722     0.00015118909513     0.00050648772078     0.00525113961302     0.01050725909645
   47     0.00945318413007     0.03530862274070     0.01588699374372     0.07318579657041     0.00972894278772
   48     0.00011996298468     0.00064847321181     0.00017394143662     0.00204110609028     0.00111363353658
   49     0.00000935112523     0.00005627382154     0.00000471184233     0.00003749946719     0.00009812133238
   50     0.00000061642600     0.00000234717259     0.00000032377472     0.00000132218734     0.00000115271462
   51     0.00000007036296     0.00000014449382     0.00000054090010     0.00000277442864     0.00000281644728
   52     0.00000066744153     0.00000058294347     0.00000230878270     0.00001595658781     0.00002005755098
   53     0.00000003883928     0.00000009308692     0.00000008110130     0.00000110830057     0.00000876656369
   54     0.00000001767340     0.00000008267034     0.00000005467407     0.00000033701615     0.00000078356079
   55     0.00000045915192     0.00000106605987     0.00000025728124     0.00000050954033     0.00000056916165
   56     0.00000011922044     0.00000086632458     0.00000001765943     0.00000004536246     0.00000004703634
   57     0.00000002753824     0.00000020462823     0.00000000999226     0.00000006902455     0.00000018649711
   58     0.00000002209426     0.00000014212427     0.00000001406440     0.00000019129863     0.00000047299311
   59     0.00000000434917     0.00000000910105     0.00000000211382     0.00000000775396     0.00000000764588
   60     0.00000000621940     0.00000000681273     0.00000000187109     0.00000001527844     0.00000001481554
   61     0.00000000200929     0.00000000189981     0.00000000082600     0.00000001386545     0.00000000578287
   62     0.00000000268947     0.00000000520145     0.00000000240187     0.00000003425318     0.00000003661278
   63     0.00000000741510     0.00000001173910     0.00000000457198     0.00000002339847     0.00000006382343
   64     0.00000000799368     0.00000002588179     0.00000000554829     0.00000004977101     0.00000020220039
   65     0.00000000144410     0.00000000542008     0.00000000286419     0.00000003977800     0.00000009442398
   66     0.00077888472934     0.00026044220736     0.00914616649900     0.01637040829578     0.05727692428936
   67     0.00098086240140     0.00029935604381     0.01007205403675     0.01667630589713     0.05870980044404
   68     0.00023570987933     0.00006267399656     0.00201122105484     0.00894085419941     0.05983140645904

                16                  17                  18                  19                  20

    1     0.00000210206693     0.00001234408615     0.00002798444355     0.00017296950537     0.00005832960002
    2     0.00000629140785     0.00001914320185     0.00005563977446     0.00024672384625     0.00007279331498
    3     0.00004539382596     0.00005695814456     0.00030369581293     0.00204394607239     0.00033003219984
    4     0.00028825253977     0.00027673740988     0.00195145087707     0.01063486893396     0.00313414813841
    5     0.00001352134484     0.00004419894065     0.00023201187246     0.00062277143891     0.00062336825429
    6     0.00000434953984     0.00000729611038     0.00004519467649     0.00019166020823     0.00007598472915
    7     0.00017335797579     0.00024984486690     0.00056267486527     0.00572595189743     0.00013032941995
    8     0.00019209305527     0.00125442738536     0.00026382876653     0.00305166488410     0.00002830672020
    9     0.00015888494705     0.00043274988982     0.00014122228396     0.00152009638624     0.00001768189946
   10     0.00046955362380     0.00123763391382     0.00040695023037     0.00428809832991     0.00005753229419
   11     0.00237927589811     0.00414804981318     0.00244722495510     0.02860047053243     0.00033934318014
   12     0.00122641756458     0.00243927854560     0.00493034559862     0.05443854885002     0.00107085544328
   13     0.01426867546122     0.01175638658038     0.01307367687073     0.11034468060639     0.00130231669044
   14     0.12574385934135     0.11990456002736     0.12219302256877     1.40236896125221     0.01495490236868
   15     1.44114540493473     0.12419183034453     0.12002639656642     0.11986446742811     0.01129770921438
   16     0.00000000000000     1.44515933181897     0.13288716902734     0.12577730856603     0.01363141759693
   17     1.44515933181897     0.00000000000000     1.39892229858585     0.12206538497249     0.10445680259351
   18     0.13288716902734     1.39892229858585     0.00000000000000     1.36319127963170     1.12503527216806
   19     0.12577730856603     0.12206538497249     1.36319127963170     0.00000000000000     0.12334710531238
   20     0.01363141759693     0.10445680259351     1.12503527216806     0.12334710531238     0.00000000000000
   21     0.00277698166228     0.03118991338879     0.08591872264308     0.02235780447161     1.31281878719633
   22     0.00034763737278     0.00323195474942     0.01452984778190     0.00202344111048     0.10280087749668
   23     0.00014035295548     0.00116655053390     0.00373944417729     0.00116702327835     0.04151461420014
   24     0.00002086466454     0.00015944768776     0.00038539931241     0.00012158220316     0.00350751724095
   25     0.00002772766072     0.00027878161916     0.00040065586757     0.00024195327486     0.00345048490251
   26     0.00002196569040     0.00013162378609     0.00050111675964     0.00010237855406     0.00248836522661
   27     0.00010081819237     0.00092059647599     0.00229875896428     0.00069611717424     0.01775411133352
   28     0.00000285170677     0.00002340490257     0.00003807475132     0.00001829827879     0.00025402446265
   29     0.00000078725792     0.00000622819148     0.00000929349302     0.00000554836840     0.00007169748366
   30     0.00000044104986     0.00000383753995     0.00000595614052     0.00000275592538     0.00003422199300
   31     0.00000021336762     0.00000149873366     0.00000268010972     0.00000170335337     0.00001786299691
   32     0.00000010285702     0.00000056744127     0.00000044306781     0.00000046691366     0.00000231293434
   33     0.00000004737144     0.00000016214554     0.00000017986083     0.00000019406356     0.00000073795592
   34     0.00000014772261     0.00000054040313     0.00000079921660     0.00000040538975     0.00000334696870
   35     0.00000028081375     0.00000134595972     0.00000229153321     0.00000110895759     0.00001411803173
   36     0.00355536194692     0.04977954934451     0.03181869956427     0.00515899454733     0.19167786801387
   37     0.11526369553352     0.01435379199958     0.00737300424921     0.01403600991621     0.00072380615984
   38     0.00000036216065     0.00000072752407     0.00000554241366     0.00002247381385     0.00000532879305
   39     0.00000190488458     0.00000212648423     0.00000631440382     0.00003729761035     0.00000734591643
   40     0.00025982328373     0.00024469974351     0.00189553277989     0.00855673805854     0.00219622532806
   41     0.00000049890825     0.00000080208886     0.00000282227010     0.00001370911685     0.00000596567438
   42     0.00001167411083     0.00004565766513     0.00002995204729     0.00019536398895     0.00000664595473
   43     0.00001582436986     0.00001258435523     0.00001546170836     0.00010989644914     0.00000173438243
   44     0.00150448657466     0.00109890535761     0.00129519063143     0.01047973005274     0.00023816724521
   45     0.87144990829452     0.07897384043363     0.01176233903487     0.00566100820268     0.00102854869822
   46     0.07714358935005     0.85941718634799     0.07555684404644     0.01122929189274     0.01465786357839
   47     0.00568606613185     0.01029527635177     0.07187318110810     0.83924351687663     0.02385572285707
   48     0.00136817435746     0.01014464428268     0.06253468578814     0.02135493872066     0.93743891464219
   49     0.00004932498960     0.00033820806242     0.00142664367837     0.00057120845940     0.01529776106607
   50     0.00000187729694     0.00001242039150     0.00002889725218     0.00000797402995     0.00019369875903
   51     0.00000241067916     0.00001713819771     0.00006642743652     0.00001656811117     0.00028678374873
   52     0.00002768258427     0.00018721480283     0.00026046487422     0.00007251381925     0.00159643981987
   53     0.00000121554305     0.00001301931805     0.00001652869522     0.00001073350640     0.00012299351783
   54     0.00000046053243     0.00000277380157     0.00000973692714     0.00000256844388     0.00005973902348
   55     0.00000022892515     0.00000174061297     0.00000314596073     0.00000167197866     0.00001587549429
   56     0.00000003697946     0.00000032386272     0.00000039036283     0.00000019588868     0.00000176157788
   57     0.00000003584469     0.00000029555354     0.00000028533218     0.00000031407764     0.00000191687312
   58     0.00000012925618     0.00000066067491     0.00000114341200     0.00000100545393     0.00000925605619
   59     0.00000001371313     0.00000002368735     0.00000004352265     0.00000002674851     0.00000035063900
   60     0.00000000897678     0.00000002923029     0.00000003051373     0.00000002623643     0.00000016008079
   61     0.00000000505359     0.00000002100783     0.00000002192735     0.00000001810345     0.00000007954429
   62     0.00000002712923     0.00000004757701     0.00000011176571     0.00000005161047     0.00000033606751
   63     0.00000005608322     0.00000016492832     0.00000047277634     0.00000011898442     0.00000218728733
   64     0.00000010683368     0.00000033813221     0.00000063730848     0.00000026315549     0.00000272617663
   65     0.00000002935982     0.00000020488294     0.00000037817165     0.00000013672442     0.00000171092710
   66     0.01502343970346     0.00124841668082     0.00294848798084     0.00119583350854     0.00037031453291
   67     0.01504942553003     0.00125837419711     0.00280271862753     0.00127289381929     0.00033070142253
   68     0.02380499728376     0.00190513075116     0.00055240884934     0.00109244691337     0.00008274878474

                21                  22                  23                  24                  25

    1     0.00001200691433     0.00004619367115     0.00046099797401     0.00017081681400     0.00001333463544
    2     0.00001246313354     0.00003235949589     0.00030024153521     0.00017593191137     0.00000937121705
    3     0.00005343617005     0.00004842728298     0.00038820974792     0.00023698840121     0.00001514046259
    4     0.00037940035383     0.00055435552673     0.00624015126161     0.00112131368239     0.00009583239410
    5     0.00020020039783     0.00144704844298     0.02195374961432     0.00929161082142     0.00042857974268
    6     0.00002314199056     0.00014671070817     0.00197022439447     0.00178304814063     0.00019803738464
    7     0.00002155340151     0.00000780027257     0.00006300789636     0.00002614421667     0.00000264274698
    8     0.00000844913087     0.00000289159221     0.00001442025917     0.00001420175840     0.00000173598493
    9     0.00000467601050     0.00000120649612     0.00000404528411     0.00000229031630     0.00000028728438
   10     0.00001585315440     0.00000319104132     0.00000306444930     0.00000190616425     0.00000052108524
   11     0.00006190810781     0.00001146173842     0.00001392748708     0.00000201899626     0.00000079392353
   12     0.00013025908727     0.00002448618873     0.00010964474118     0.00001088922434     0.00000258831705
   13     0.00029956571637     0.00005558108410     0.00001276546428     0.00000266589919     0.00000166786051
   14     0.00274129493283     0.00035292786495     0.00011030947336     0.00001214674128     0.00002441175114
   15     0.00571529102050     0.00030490021717     0.00034194118718     0.00003489072908     0.00017750913778
   16     0.00277698166228     0.00034763737278     0.00014035295548     0.00002086466454     0.00002772766072
   17     0.03118991338879     0.00323195474942     0.00116655053390     0.00015944768776     0.00027878161916
   18     0.08591872264308     0.01452984778190     0.00373944417729     0.00038539931241     0.00040065586757
   19     0.02235780447161     0.00202344111048     0.00116702327835     0.00012158220316     0.00024195327486
   20     1.31281878719633     0.10280087749668     0.04151461420014     0.00350751724095     0.00345048490251
   21     0.00000000000000     0.97465316655799     0.10407283166292     0.01445503577818     0.01127919942887
   22     0.97465316655799     0.00000000000000     1.40057565600344     0.12735955563070     0.12363477586079
   23     0.10407283166292     1.40057565600344     0.00000000000000     1.46013441530749     0.12577085137746
   24     0.01445503577818     0.12735955563070     1.46013441530749     0.00000000000000     1.40446439497032
   25     0.01127919942887     0.12363477586079     0.12577085137746     1.40446439497032     0.00000000000000
   26     0.01489832697517     0.12606508461869     0.13080203148766     0.12595613750332     1.40116142391869
   27     0.11121145656767     1.38561454187243     0.12424704514654     0.13107061291489     0.12621566646098
   28     0.00070097474596     0.00801455055405     0.01424431205012     0.10227935595292     1.01948685345368
   29     0.00018511309467     0.00194419533133     0.00166505098578     0.02233076305816     0.06679450424865
   30     0.00011821208609     0.00115259735852     0.00487559351966     0.02941940965993     0.02550986044274
   31     0.00005041283011     0.00053976476222     0.00074960706943     0.00704074070153     0.01395928589919
   32     0.00000598104744     0.00005211956789     0.00010873748677     0.00088075058045     0.00194779594221
   33     0.00000154101397     0.00002121135751     0.00003631213295     0.00021732582446     0.00047470135330
   34     0.00000853679198     0.00007825812754     0.00010683692204     0.00080138460195     0.00336722516304
   35     0.00003402791021     0.00034458893477     0.00027777476402     0.00274456768517     0.01362020030062
   36     2.17155238548743     0.13620155024735     0.02552539613189     0.00327737247798     0.00649901293207
[...]
   15     0.00000004703634     0.00000018649711     0.00000047299311     0.00000000764588     0.00000001481554
   16     0.00000003697946     0.00000003584469     0.00000012925618     0.00000001371313     0.00000000897678
   17     0.00000032386272     0.00000029555354     0.00000066067491     0.00000002368735     0.00000002923029
   18     0.00000039036283     0.00000028533218     0.00000114341200     0.00000004352265     0.00000003051373
   19     0.00000019588868     0.00000031407764     0.00000100545393     0.00000002674851     0.00000002623643
   20     0.00000176157788     0.00000191687312     0.00000925605619     0.00000035063900     0.00000016008079
   21     0.00000397762691     0.00000418113618     0.00001825714147     0.00000094221468     0.00000038363562
   22     0.00004454856417     0.00004275314884     0.00024948020651     0.00000820357455     0.00000513680918
   23     0.00017756982326     0.00003979347461     0.00037151252523     0.00001478926103     0.00000528911227
   24     0.00112774107597     0.00022552347370     0.00317016771997     0.00007828356113     0.00002326878779
   25     0.00099094831913     0.00046350051868     0.00888806092364     0.00010100432616     0.00004951236717
   26     0.00021614429671     0.00021464384071     0.00428456609101     0.00003161606608     0.00002939304283
   27     0.00016790951823     0.00007586950159     0.00062761852314     0.00001028829114     0.00000746946212
   28     0.01196752709252     0.00110829733048     0.01009316678499     0.00062086679368     0.00014001158105
   29     0.06048088370139     0.01354129805196     0.01479338249293     0.00254897788205     0.00069398233692
   30     0.77717095282065     0.05651040834883     0.04629188924780     0.01174244163357     0.00364116259816
   31     0.04747195699661     0.84059209762414     0.78510512114937     0.01691786182220     0.02065130915984
   32     0.01350694468405     0.05353304618134     0.06203791034614     0.06803960983244     0.06228328377450
   33     0.01345121260142     0.02348181242158     0.01275087477423     0.90989915762717     0.91995263287559
   34     0.00823406292479     0.01491264831343     0.02201732370809     0.01663628228450     0.01260487168688
   35     0.02248429400037     0.00200792395734     0.00788440828764     0.01151565355581     0.00161115178956
   36     0.00000275181152     0.00000269063623     0.00001469930079     0.00000065248669     0.00000045729457
   37     0.00000002139828     0.00000001860557     0.00000002594577     0.00000000153896     0.00000000270044
   38     0.00000626181368     0.00000219910090     0.00000017975251     0.00000034127437     0.00000007377707
   39     0.00000042172301     0.00000016388012     0.00000001720868     0.00000003173455     0.00000000805475
   40     0.00000039840409     0.00000082914021     0.00000049885079     0.00000002347022     0.00000001818766
   41     0.00018246517411     0.00000533219063     0.00002877730204     0.00000440126355     0.00000037771543
   42     0.00000005515656     0.00000003023757     0.00000000117346     0.00000000070773     0.00000000140679
   43     0.00000000281982     0.00000000100778     0.00000000112291     0.00000000014369     0.00000000005886
   44     0.00000000195771     0.00000000162144     0.00000000230021     0.00000000050893     0.00000000030126
   45     0.00000000135451     0.00000000452370     0.00000001751400     0.00000000025012     0.00000000059741
   46     0.00000002649466     0.00000002747518     0.00000014679686     0.00000000373287     0.00000000250284
   47     0.00000002522873     0.00000012433947     0.00000008630574     0.00000000184153     0.00000000625560
   48     0.00000090201965     0.00000135208372     0.00000298401997     0.00000021599225     0.00000018370544
   49     0.00001000010855     0.00000551206508     0.00000456295300     0.00000098000502     0.00000053102042
   50     0.00070977488869     0.00004896643165     0.00038959121046     0.00003204363502     0.00000776543769
   51     0.00004039855263     0.00002155444830     0.00058177031344     0.00000455230098     0.00000342383487
   52     0.00000771769750     0.00000478266414     0.00001714526122     0.00000074947021     0.00000065755608
   53     0.00047850023593     0.00036375967716     0.00043305692988     0.00007153782733     0.00003139250094
   54     0.00145366925412     0.00008872431597     0.00286827010176     0.00007271974155     0.00002272375187
   55     0.03755978858044     0.00645302863385     0.00994225842744     0.00067749624547     0.00021831807254
   56     0.00000000000000     0.00872606726933     0.02240553969782     0.00655575546355     0.00137574320302
   57     0.00872606726933     0.00000000000000     0.01775207525080     0.00340102706951     0.00762277316803
   58     0.02240553969782     0.01775207525080     0.00000000000000     0.00094900601782     0.00119248015508
   59     0.00655575546355     0.00340102706951     0.00094900601782     0.00000000000000     0.03473782609241
   60     0.00137574320302     0.00762277316803     0.00119248015508     0.03473782609241     0.00000000000000
   61     0.00053940826235     0.00120613617828     0.00066297906148     0.03484189482874     0.03782220599857
   62     0.00043939351685     0.00127260224105     0.00089866702126     0.00304328390725     0.00116432307682
   63     0.00090811736572     0.00101920111432     0.00608075683506     0.00092982398784     0.00066711036153
   64     0.00633844126608     0.00039143824976     0.00102858039770     0.00575222032769     0.00049139525939
   65     0.00125003596769     0.00066796582243     0.00037464481519     0.00035568567567     0.00024983591338
   66     0.00000000108297     0.00000000720251     0.00000001474858     0.00000000026104     0.00000000047208
   67     0.00000000135131     0.00000000731673     0.00000002068751     0.00000000029340     0.00000000088779
   68     0.00000000164933     0.00000000057444     0.00000000165953     0.00000000025270     0.00000000011285

                61                  62                  63                  64                  65

    1     0.00000025263864     0.00000022811467     0.00000088747720     0.00000060787105     0.00000016823528
    2     0.00000004363546     0.00000004634604     0.00000022610617     0.00000028155492     0.00000004963212
    3     0.00000004387928     0.00000004466085     0.00000010777715     0.00000010654124     0.00000003581923
    4     0.00000008646638     0.00000018082753     0.00000078341546     0.00000146236851     0.00000014627357
    5     0.00000037938329     0.00000147058887     0.00000336607721     0.00000350615168     0.00000068903860
    6     0.00000415953067     0.00000496469312     0.00000722010145     0.00000571524383     0.00000179553875
    7     0.00000002877227     0.00000001282478     0.00000004432187     0.00000004459214     0.00000001424133
    8     0.00000000787233     0.00000001196394     0.00000002684780     0.00000005062844     0.00000001654430
    9     0.00000000091859     0.00000000290542     0.00000000253414     0.00000000354948     0.00000000192942
   10     0.00000000113456     0.00000000122203     0.00000000469131     0.00000000698636     0.00000000197333
   11     0.00000000200929     0.00000000268947     0.00000000741510     0.00000000799368     0.00000000144410
   12     0.00000000189981     0.00000000520145     0.00000001173910     0.00000002588179     0.00000000542008
   13     0.00000000082600     0.00000000240187     0.00000000457198     0.00000000554829     0.00000000286419
   14     0.00000001386545     0.00000003425318     0.00000002339847     0.00000004977101     0.00000003977800
   15     0.00000000578287     0.00000003661278     0.00000006382343     0.00000020220039     0.00000009442398
   16     0.00000000505359     0.00000002712923     0.00000005608322     0.00000010683368     0.00000002935982
   17     0.00000002100783     0.00000004757701     0.00000016492832     0.00000033813221     0.00000020488294
   18     0.00000002192735     0.00000011176571     0.00000047277634     0.00000063730848     0.00000037817165
   19     0.00000001810345     0.00000005161047     0.00000011898442     0.00000026315549     0.00000013672442
   20     0.00000007954429     0.00000033606751     0.00000218728733     0.00000272617663     0.00000171092710
   21     0.00000020548696     0.00000068722336     0.00000477723525     0.00000728486517     0.00000544278591
   22     0.00000262068888     0.00000705142203     0.00004441141341     0.00007999008798     0.00004658761573
   23     0.00000264889344     0.00000704828140     0.00004772564333     0.00005808040659     0.00004836222023
   24     0.00001970139494     0.00005233071376     0.00022636145632     0.00027079547117     0.00036347197443
   25     0.00002629781502     0.00023821579443     0.00177660916438     0.00168241918680     0.00152165493090
   26     0.00001083846295     0.00006993128006     0.00073730538424     0.00045001500429     0.00022841399161
   27     0.00000258623355     0.00000749887313     0.00004097027581     0.00008533471286     0.00003577247295
   28     0.00014438121615     0.00150918895013     0.01270877903217     0.01195490702548     0.02417976499900
   29     0.00059316524179     0.01173935050305     0.01412484832993     0.05982849464206     0.05294272412873
   30     0.00167439268187     0.00251818760173     0.00820536261147     0.02244892928196     0.01399175483532
   31     0.01295635650153     0.01392104861734     0.02271013587216     0.00825089945074     0.00208400210046
   32     0.06268217438325     0.05527169943874     0.06193739730666     0.01302247523497     0.01242545820250
   33     0.91982928697383     0.02140453637323     0.01284470178547     0.01231447927502     0.00134348968508
   34     0.01913300713765     0.87119188366717     0.79565759147244     0.04748218148639     0.05562294763755
   35     0.00351994542915     0.05788891281924     0.04799763162282     0.80820319885087     0.84576481157691
   36     0.00000011554307     0.00000038700017     0.00000295035944     0.00000705218157     0.00000351913817
   37     0.00000000083063     0.00000001144142     0.00000000768754     0.00000001472474     0.00000001758381
   38     0.00000009592859     0.00000002975864     0.00000004394321     0.00000004287769     0.00000002241826
   39     0.00000000183350     0.00000000723470     0.00000000562558     0.00000001923102     0.00000000138071
   40     0.00000000680187     0.00000000912664     0.00000002286427     0.00000020975263     0.00000004767314
   41     0.00000152551775     0.00000102988871     0.00000233108007     0.00000239367289     0.00000150882355
   42     0.00000000087906     0.00000000027892     0.00000000082540     0.00000000189379     0.00000000051568
   43     0.00000000010427     0.00000000025103     0.00000000018548     0.00000000026997     0.00000000029449
   44     0.00000000010572     0.00000000032208     0.00000000080284     0.00000000129687     0.00000000051811
   45     0.00000000028361     0.00000000198048     0.00000000640118     0.00000000296671     0.00000000155311
   46     0.00000000286416     0.00000000421598     0.00000004388397     0.00000002201980     0.00000004497298
   47     0.00000000545752     0.00000002215123     0.00000002293495     0.00000001887772     0.00000002325063
   48     0.00000002283633     0.00000013083598     0.00000079281938     0.00000158244350     0.00000045909274
   49     0.00000014697562     0.00000097243283     0.00000728572130     0.00000933297021     0.00000943253227
   50     0.00000730155703     0.00001264550529     0.00007836616146     0.00008572002776     0.00009545369864
   51     0.00000156794824     0.00001641876858     0.00027911709847     0.00004784743368     0.00003384609890
   52     0.00000018029456     0.00000151785485     0.00000346001607     0.00001642632574     0.00000673795008
   53     0.00002021120135     0.00019208508991     0.00068238036626     0.00086707988572     0.00418009330850
   54     0.00005558411246     0.00071458462891     0.00630092223253     0.00083721629729     0.00583579607592
   55     0.00021329932716     0.00030732304660     0.00070871135102     0.00113848571580     0.00132135759363
   56     0.00053940826235     0.00043939351685     0.00090811736572     0.00633844126608     0.00125003596769
   57     0.00120613617828     0.00127260224105     0.00101920111432     0.00039143824976     0.00066796582243
   58     0.00066297906148     0.00089866702126     0.00608075683506     0.00102858039770     0.00037464481519
   59     0.03484189482874     0.00304328390725     0.00092982398784     0.00575222032769     0.00035568567567
   60     0.03782220599857     0.00116432307682     0.00066711036153     0.00049139525939     0.00024983591338
   61     0.00000000000000     0.00673738721017     0.00116856820954     0.00127520316343     0.00010333079902
   62     0.00673738721017     0.00000000000000     0.01967130231906     0.00832916819618     0.00538487310255
   63     0.00116856820954     0.01967130231906     0.00000000000000     0.02090506098831     0.00884734475192
   64     0.00127520316343     0.00832916819618     0.02090506098831     0.00000000000000     0.01826450676401
   65     0.00010333079902     0.00538487310255     0.00884734475192     0.01826450676401     0.00000000000000
   66     0.00000000029943     0.00000000077273     0.00000000100154     0.00000000827898     0.00000000326057
   67     0.00000000023855     0.00000000098310     0.00000000260830     0.00000000912371     0.00000000381080
   68     0.00000000021355     0.00000000018521     0.00000000098329     0.00000000097965     0.00000000052219

                66                  67                  68

    1     0.00000074126557     0.00000106470097     0.00000026413211
    2     0.00000190113317     0.00000289935797     0.00000066279071
    3     0.00001121626304     0.00000987498770     0.00000368112409
    4     0.00000848071547     0.00000839097540     0.00000804180394
    5     0.00000059905610     0.00000081591806     0.00000043678866
    6     0.00000036278081     0.00000133077304     0.00000014793795
    7     0.00004380333417     0.00004590531750     0.00001455170307
    8     0.00007190265794     0.00011089752055     0.00000641010340
    9     0.00004246899972     0.00004150556046     0.00000442142113
   10     0.00024604619121     0.00032142993955     0.00003436077825
   11     0.00077888472934     0.00098086240140     0.00023570987933
   12     0.00026044220736     0.00029935604381     0.00006267399656
   13     0.00914616649900     0.01007205403675     0.00201122105484
   14     0.01637040829578     0.01667630589713     0.00894085419941
   15     0.05727692428936     0.05870980044404     0.05983140645904
   16     0.01502343970346     0.01504942553003     0.02380499728376
   17     0.00124841668082     0.00125837419711     0.00190513075116
   18     0.00294848798084     0.00280271862753     0.00055240884934
   19     0.00119583350854     0.00127289381929     0.00109244691337
   20     0.00037031453291     0.00033070142253     0.00008274878474
   21     0.00021181314258     0.00020197355621     0.00003040549327
   22     0.00001103606039     0.00001327234919     0.00000629978475
   23     0.00001397902060     0.00001304446119     0.00000260435301
   24     0.00000137942876     0.00000148454473     0.00000032039701
   25     0.00000749681281     0.00000698562826     0.00000025077306
   26     0.00000121329752     0.00000143976889     0.00000026892184
   27     0.00001246392133     0.00001332369524     0.00000157089458
   28     0.00000049165050     0.00000042034236     0.00000003653281
   29     0.00000017019268     0.00000017971021     0.00000001119462
   30     0.00000005449661     0.00000005735803     0.00000000836777
   31     0.00000003319370     0.00000003653108     0.00000000416240
   32     0.00000000751905     0.00000000927855     0.00000000581377
   33     0.00000000195471     0.00000000236538     0.00000000124652
   34     0.00000000715591     0.00000000806488     0.00000000436881
   35     0.00000002951579     0.00000003612320     0.00000000564276
   36     0.00012489642101     0.00012339367127     0.00001649125609
   37     0.91886046750321     0.91917866009509     0.92067007607312
   38     0.00000008808755     0.00000009623236     0.00000003894320
   39     0.00000025285463     0.00000030324937     0.00000010037711
   40     0.00000701651816     0.00000805905400     0.00000742166621
   41     0.00000005237436     0.00000007116832     0.00000003908109
   42     0.00000320054968     0.00000437208237     0.00000047808476
   43     0.00000287561018     0.00000306714166     0.00000063951973
   44     0.00494154620015     0.00407825653400     0.00102350729672
   45     0.00124293537509     0.00122916298181     0.00768642093235
   46     0.00020425784813     0.00021759399264     0.00012845346475
   47     0.00018072835452     0.00018509787816     0.00035026015429
   48     0.00003768894566     0.00004257112027     0.00003902736564
   49     0.00000404454329     0.00000318110316     0.00000112613897
   50     0.00000005049315     0.00000010189394     0.00000004649023
   51     0.00000016339189     0.00000010900724     0.00000007171363
   52     0.00000096098102     0.00000082704429     0.00000051158580
   53     0.00000034902075     0.00000036341314     0.00000001435999
   54     0.00000003446253     0.00000002866810     0.00000000811230
   55     0.00000001901147     0.00000001776173     0.00000001090784
   56     0.00000000108297     0.00000000135131     0.00000000164933
   57     0.00000000720251     0.00000000731673     0.00000000057444
   58     0.00000001474858     0.00000002068751     0.00000000165953
   59     0.00000000026104     0.00000000029340     0.00000000025270
   60     0.00000000047208     0.00000000088779     0.00000000011285
   61     0.00000000029943     0.00000000023855     0.00000000021355
   62     0.00000000077273     0.00000000098310     0.00000000018521
   63     0.00000000100154     0.00000000260830     0.00000000098329
   64     0.00000000827898     0.00000000912371     0.00000000097965
   65     0.00000000326057     0.00000000381080     0.00000000052219
   66     0.00000000000000     0.03541130361418     0.03895387799832
   67     0.03541130361418     0.00000000000000     0.03920611015868
   68     0.03895387799832     0.03920611015868     0.00000000000000



  Atomic Valences: 

 #  #
 Irrep: 1
      1:  4.3911520
      2:  4.4218416
      3:  4.6033540
      4:  4.5819752
      5:  3.9185875
      6:  4.5448776
      7:  4.7431126
      8:  4.3673857
      9:  4.5225297
     10:  3.8651387
     11:  5.0059950
     12:  3.9632291
     13:  4.0373041
     14:  4.6649806
     15:  4.6249869
     16:  4.4372368
     17:  4.4031080
     18:  4.6668195
     19:  4.4255833
     20:  4.0749190
     21:  4.9942241
     22:  4.6066825
     23:  4.4502130
     24:  4.4574863
     25:  4.6647316
     26:  4.4338109
     27:  4.4231637
     28:  4.4924664
     29:  4.2113313
     30:  4.5705821
     31:  4.5493351
     32:  4.2374551
     33:  4.2799518
     34:  4.5753341
     35:  4.5623305
     36:  2.7615034
     37:  4.1496311
     38:  1.0980260
     39:  1.1010265
     40:  1.1129922
     41:  1.0920544
     42:  1.1092293
     43:  1.0860013
     44:  1.1754251
     45:  1.0999639
     46:  1.1073378
     47:  1.1326382
     48:  1.1863724
     49:  1.1163020
     50:  1.1079223
     51:  1.1015028
     52:  1.0975715
     53:  1.1078810
     54:  1.1343926
     55:  1.2377753
     56:  1.0467721
     57:  1.0558711
     58:  1.0442687
     59:  1.1296067
     60:  1.1073104
     61:  1.1052600
     62:  1.0840234
     63:  1.0473442
     64:  1.0519451
     65:  1.0575968
     66:  1.1052839
     67:  1.1079417
     68:  1.1067191


    Psi4 stopped on: Tuesday, 14 April 2020 01:40PM
    Psi4 wall time for execution: 0:59:52.13

*** Psi4 exiting successfully. Buy a developer a beer!
