 Entering Gaussian System, Link 0=g09
 Input=MOLECULE0-opt-23-22-21-36-355.com
 Output=MOLECULE0-opt-23-22-21-36-355.log
 Initial command:
 /opt/g09gh/gaussian/g09/l1.exe /scratch/bdw2292/Gau-MOLECULE0/Gau-63982.inp -scrdir=/scratch/bdw2292/Gau-MOLECULE0/
 Entering Link 1 = /opt/g09gh/gaussian/g09/l1.exe PID=     63983.
  
 Copyright (c) 1988,1990,1992,1993,1995,1998,2003,2009, Gaussian, Inc.
                  All Rights Reserved.
  
 This is part of the Gaussian(R) 09 program.  It is based on
 the Gaussian(R) 03 system (copyright 2003, Gaussian, Inc.),
 the Gaussian(R) 98 system (copyright 1998, Gaussian, Inc.),
 the Gaussian(R) 94 system (copyright 1995, Gaussian, Inc.),
 the Gaussian 92(TM) system (copyright 1992, Gaussian, Inc.),
 the Gaussian 90(TM) system (copyright 1990, Gaussian, Inc.),
 the Gaussian 88(TM) system (copyright 1988, Gaussian, Inc.),
 the Gaussian 86(TM) system (copyright 1986, Carnegie Mellon
 University), and the Gaussian 82(TM) system (copyright 1983,
 Carnegie Mellon University). Gaussian is a federally registered
 trademark of Gaussian, Inc.
  
 This software contains proprietary and confidential information,
 including trade secrets, belonging to Gaussian, Inc.
  
 This software is provided under written license and may be
 used, copied, transmitted, or stored only in accord with that
 written license.
  
 The following legend is applicable only to US Government
 contracts under FAR:
  
                    RESTRICTED RIGHTS LEGEND
  
 Use, reproduction and disclosure by the US Government is
 subject to restrictions as set forth in subparagraphs (a)
 and (c) of the Commercial Computer Software - Restricted
 Rights clause in FAR 52.227-19.
  
 Gaussian, Inc.
 340 Quinnipiac St., Bldg. 40, Wallingford CT 06492
  
  
 ---------------------------------------------------------------
 Warning -- This program may not be used in any manner that
 competes with the business of Gaussian, Inc. or will provide
 assistance to any competitor of Gaussian, Inc.  The licensee
 of this program is prohibited from giving any competitor of
 Gaussian, Inc. access to this program.  By using this program,
 the user acknowledges that Gaussian, Inc. is engaged in the
 business of creating and licensing software in the field of
 computational chemistry and represents and warrants to the
 licensee that it is not a competitor of Gaussian, Inc. and that
 it will not use this program in any manner prohibited above.
 ---------------------------------------------------------------
  

 Cite this work as:
 Gaussian 09, Revision A.02,
 M. J. Frisch, G. W. Trucks, H. B. Schlegel, G. E. Scuseria, 
 M. A. Robb, J. R. Cheeseman, G. Scalmani, V. Barone, B. Mennucci, 
 G. A. Petersson, H. Nakatsuji, M. Caricato, X. Li, H. P. Hratchian, 
 A. F. Izmaylov, J. Bloino, G. Zheng, J. L. Sonnenberg, M. Hada, 
 M. Ehara, K. Toyota, R. Fukuda, J. Hasegawa, M. Ishida, T. Nakajima, 
 Y. Honda, O. Kitao, H. Nakai, T. Vreven, J. A. Montgomery, Jr., 
 J. E. Peralta, F. Ogliaro, M. Bearpark, J. J. Heyd, E. Brothers, 
 K. N. Kudin, V. N. Staroverov, R. Kobayashi, J. Normand, 
 K. Raghavachari, A. Rendell, J. C. Burant, S. S. Iyengar, J. Tomasi, 
 M. Cossi, N. Rega, J. M. Millam, M. Klene, J. E. Knox, J. B. Cross, 
 V. Bakken, C. Adamo, J. Jaramillo, R. Gomperts, R. E. Stratmann, 
 O. Yazyev, A. J. Austin, R. Cammi, C. Pomelli, J. W. Ochterski, 
 R. L. Martin, K. Morokuma, V. G. Zakrzewski, G. A. Voth, 
 P. Salvador, J. J. Dannenberg, S. Dapprich, A. D. Daniels, 
 O. Farkas, J. B. Foresman, J. V. Ortiz, J. Cioslowski, 
 and D. J. Fox, Gaussian, Inc., Wallingford CT, 2009.
 
 ******************************************
 Gaussian 09:  EM64L-G09RevA.02 11-Jun-2009
                 8-Apr-2020 
 ******************************************
 %RWF=/scratch/bdw2292/Gau-MOLECULE0/,100GB
 %Nosave
 %Chk=MOLECULE0-opt-23-22-21-36-355.chk
 %Mem=20GB
 %Nproc=6
 Will use up to    6 processors via shared memory.
 --------------------------------------------------
 #P opt=(,maxcycle=400) wB97XD/6-31G* MaxDisk=100GB
 --------------------------------------------------
 1/6=400,14=-1,18=20,19=15,26=3,38=1/1,3;
 2/9=110,12=2,17=6,18=5,40=1/2;
 3/5=1,6=6,7=1,11=2,16=1,25=1,30=1,71=1,74=-58/1,2,3;
 4//1;
 5/5=2,38=5/2;
 6/7=2,8=2,9=2,10=2,28=1/1;
 7//1,2,3,16;
 1/6=400,14=-1,18=20,19=15/3(2);
 2/9=110/2;
 99//99;
 2/9=110/2;
 3/5=1,6=6,7=1,11=2,16=1,25=1,30=1,71=1,74=-58/1,2,3;
 4/5=5,16=3/1;
 5/5=2,38=5/2;
 7//1,2,3,16;
 1/6=400,14=-1,18=20,19=15/3(-5);
 2/9=110/2;
 6/7=2,8=2,9=2,10=2,19=2,28=1/1;
 99/9=1/99;
 Leave Link    1 at Wed Apr  8 22:20:15 2020, MaxMem= 2684354560 cpu:       0.2
 (Enter /opt/g09gh/gaussian/g09/l101.exe)
 --------------------------------------------------------------
 MOLECULE0 Rotatable Bond Optimization on node37.bme.utexas.edu
 --------------------------------------------------------------
 Symbolic Z-matrix:
 Charge =  0 Multiplicity = 1
 C                    -2.08531  -6.37441   5.07369 
 C                    -0.72658  -6.71437   5.02718 
 C                     0.14081  -6.04453   4.13985 
 C                    -0.45896  -5.04734   3.33006 
 N                    -1.75656  -4.71329   3.35714 
 C                    -2.54754  -5.36913   4.21803 
 C                     1.61386  -6.35855   4.02621 
 C                     2.28474  -7.35727   4.75228 
 C                     3.64882  -7.49769   4.47629 
 N                     4.32006  -6.75771   3.59917 
 C                     3.59964  -5.81556   2.95376 
 N                     2.29487  -5.60115   3.14395 
 N                     4.319    -5.04922   2.04675 
 C                     3.98356  -3.92007   1.21768 
 C                     5.02961  -3.11652   0.67097 
 C                     4.64493  -2.03207  -0.13539 
 C                     3.31481  -1.69574  -0.41736 
 C                     2.30222  -2.49072   0.13116 
 C                     2.65683  -3.5902    0.92505 
 N                     0.90775  -2.25285  -0.02472 
 C                    -0.12167  -3.09551  -0.37718 
 C                    -1.46894  -2.47965  -0.69404 
 C                    -1.62649  -1.23392  -1.32211 
 C                    -2.90265  -0.7128   -1.54724 
 C                    -4.06058  -1.42131  -1.1745 
 C                    -3.88792  -2.67939  -0.56672 
 C                    -2.61609  -3.20604  -0.33282 
 C                    -5.45477  -0.82472  -1.37008 
 N                    -5.98588   0.09846  -0.35174 
 C                    -5.46406   1.481    -0.28901 
 C                    -4.3121    1.68045   0.72921 
 N                    -4.62943   1.21901   2.10095 
 C                    -5.39824   2.14017   2.94625 
 C                    -5.11683  -0.18139   2.04147 
 C                    -6.25121  -0.41956   1.01015 
 O                     0.01099  -4.30718  -0.40667 
 C                     6.50495  -3.38141   0.91771 
 H                    -2.76903  -6.87539   5.75277 
 H                    -0.37351  -7.49694   5.69426 
 H                     0.14     -4.49228   2.61817 
 H                    -3.59556  -5.07347   4.21892 
 H                     1.80794  -8.00694   5.47594 
 H                     4.23737  -8.2555    4.9929 
 H                     5.28989  -5.32269   2.06949 
 H                     5.41676  -1.3962   -0.56793 
 H                     3.07139  -0.83648  -1.03047 
 H                     1.87373  -4.21239   1.32685 
 H                     0.66322  -1.2777    0.07808 
 H                    -0.74666  -0.67216  -1.62567 
 H                    -2.99341   0.26635  -2.01805 
 H                    -4.75593  -3.25499  -0.24649 
 H                    -2.49066  -4.16724   0.15963 
 H                    -5.475    -0.2993   -2.33578 
 H                    -6.17934  -1.64694  -1.4602 
 H                    -5.22817   1.83568  -1.24625 
 H                    -6.64723   2.38691   0.24076 
 H                    -4.02399   3.16117   0.7802 
 H                    -3.35596   1.1469    0.38855 
 H                    -6.40894   2.28807   2.54967 
 H                    -4.89425   3.1116    3.00268 
 H                    -5.4742    1.74284   3.96504 
 H                    -5.40206  -0.51252   3.04254 
 H                    -3.93564  -1.03485   1.60538 
 H                    -7.496     0.37551   1.57037 
 H                    -6.55043  -1.50603   0.96712 
 H                     6.81422  -4.34561   0.48983 
 H                     6.7365   -3.4068    1.99194 
 H                     7.15857  -2.61704   0.47528 
 
 NAtoms=     68 NQM=     68 NQMF=      0 NMic=      0 NMicF=      0 NTot=     68.
                    Isotopes and Nuclear Properties:
 (Nuclear quadrupole moments (NQMom) in fm**2, nuclear magnetic moments (NMagM)
  in nuclear magnetons)

  Atom         1           2           3           4           5           6           7           8           9          10
 IAtWgt=          12          12          12          12          14          12          12          12          12          14
 AtmWgt=  12.0000000  12.0000000  12.0000000  12.0000000  14.0030740  12.0000000  12.0000000  12.0000000  12.0000000  14.0030740
 NucSpn=           0           0           0           0           2           0           0           0           0           2
 AtZEff=   0.0000000   0.0000000   0.0000000   0.0000000   0.0000000   0.0000000   0.0000000   0.0000000   0.0000000   0.0000000
 NQMom=    0.0000000   0.0000000   0.0000000   0.0000000   2.0440000   0.0000000   0.0000000   0.0000000   0.0000000   2.0440000
 NMagM=    0.0000000   0.0000000   0.0000000   0.0000000   0.4037610   0.0000000   0.0000000   0.0000000   0.0000000   0.4037610

  Atom        11          12          13          14          15          16          17          18          19          20
 IAtWgt=          12          14          14          12          12          12          12          12          12          14
 AtmWgt=  12.0000000  14.0030740  14.0030740  12.0000000  12.0000000  12.0000000  12.0000000  12.0000000  12.0000000  14.0030740
 NucSpn=           0           2           2           0           0           0           0           0           0           2
 AtZEff=   0.0000000   0.0000000   0.0000000   0.0000000   0.0000000   0.0000000   0.0000000   0.0000000   0.0000000   0.0000000
 NQMom=    0.0000000   2.0440000   2.0440000   0.0000000   0.0000000   0.0000000   0.0000000   0.0000000   0.0000000   2.0440000
 NMagM=    0.0000000   0.4037610   0.4037610   0.0000000   0.0000000   0.0000000   0.0000000   0.0000000   0.0000000   0.4037610

  Atom        21          22          23          24          25          26          27          28          29          30
 IAtWgt=          12          12          12          12          12          12          12          12          14          12
 AtmWgt=  12.0000000  12.0000000  12.0000000  12.0000000  12.0000000  12.0000000  12.0000000  12.0000000  14.0030740  12.0000000
 NucSpn=           0           0           0           0           0           0           0           0           2           0
 AtZEff=   0.0000000   0.0000000   0.0000000   0.0000000   0.0000000   0.0000000   0.0000000   0.0000000   0.0000000   0.0000000
 NQMom=    0.0000000   0.0000000   0.0000000   0.0000000   0.0000000   0.0000000   0.0000000   0.0000000   2.0440000   0.0000000
 NMagM=    0.0000000   0.0000000   0.0000000   0.0000000   0.0000000   0.0000000   0.0000000   0.0000000   0.4037610   0.0000000

  Atom        31          32          33          34          35          36          37          38          39          40
 IAtWgt=          12          14          12          12          12          16          12           1           1           1
 AtmWgt=  12.0000000  14.0030740  12.0000000  12.0000000  12.0000000  15.9949146  12.0000000   1.0078250   1.0078250   1.0078250
 NucSpn=           0           2           0           0           0           0           0           1           1           1
 AtZEff=   0.0000000   0.0000000   0.0000000   0.0000000   0.0000000   0.0000000   0.0000000   0.0000000   0.0000000   0.0000000
 NQMom=    0.0000000   2.0440000   0.0000000   0.0000000   0.0000000   0.0000000   0.0000000   0.0000000   0.0000000   0.0000000
 NMagM=    0.0000000   0.4037610   0.0000000   0.0000000   0.0000000   0.0000000   0.0000000   2.7928460   2.7928460   2.7928460

  Atom        41          42          43          44          45          46          47          48          49          50
 IAtWgt=           1           1           1           1           1           1           1           1           1           1
 AtmWgt=   1.0078250   1.0078250   1.0078250   1.0078250   1.0078250   1.0078250   1.0078250   1.0078250   1.0078250   1.0078250
 NucSpn=           1           1           1           1           1           1           1           1           1           1
 AtZEff=   0.0000000   0.0000000   0.0000000   0.0000000   0.0000000   0.0000000   0.0000000   0.0000000   0.0000000   0.0000000
 NQMom=    0.0000000   0.0000000   0.0000000   0.0000000   0.0000000   0.0000000   0.0000000   0.0000000   0.0000000   0.0000000
 NMagM=    2.7928460   2.7928460   2.7928460   2.7928460   2.7928460   2.7928460   2.7928460   2.7928460   2.7928460   2.7928460

  Atom        51          52          53          54          55          56          57          58          59          60
 IAtWgt=           1           1           1           1           1           1           1           1           1           1
 AtmWgt=   1.0078250   1.0078250   1.0078250   1.0078250   1.0078250   1.0078250   1.0078250   1.0078250   1.0078250   1.0078250
 NucSpn=           1           1           1           1           1           1           1           1           1           1
 AtZEff=   0.0000000   0.0000000   0.0000000   0.0000000   0.0000000   0.0000000   0.0000000   0.0000000   0.0000000   0.0000000
 NQMom=    0.0000000   0.0000000   0.0000000   0.0000000   0.0000000   0.0000000   0.0000000   0.0000000   0.0000000   0.0000000
 NMagM=    2.7928460   2.7928460   2.7928460   2.7928460   2.7928460   2.7928460   2.7928460   2.7928460   2.7928460   2.7928460

  Atom        61          62          63          64          65          66          67          68
 IAtWgt=           1           1           1           1           1           1           1           1
 AtmWgt=   1.0078250   1.0078250   1.0078250   1.0078250   1.0078250   1.0078250   1.0078250   1.0078250
 NucSpn=           1           1           1           1           1           1           1           1
 AtZEff=   0.0000000   0.0000000   0.0000000   0.0000000   0.0000000   0.0000000   0.0000000   0.0000000
 NQMom=    0.0000000   0.0000000   0.0000000   0.0000000   0.0000000   0.0000000   0.0000000   0.0000000
 NMagM=    2.7928460   2.7928460   2.7928460   2.7928460   2.7928460   2.7928460   2.7928460   2.7928460
 Leave Link  101 at Wed Apr  8 22:20:15 2020, MaxMem= 2684354560 cpu:       0.4
 (Enter /opt/g09gh/gaussian/g09/l103.exe)

 GradGradGradGradGradGradGradGradGradGradGradGradGradGradGradGradGradGrad
 Berny optimization.
 Initialization pass.
                           ----------------------------
                           !    Initial Parameters    !
                           ! (Angstroms and Degrees)  !
 --------------------------                            --------------------------
 ! Name  Definition              Value          Derivative Info.                !
 --------------------------------------------------------------------------------
 ! R1    R(1,2)                  1.4014         estimate D2E/DX2                !
 ! R2    R(1,6)                  1.3987         estimate D2E/DX2                !
 ! R3    R(1,38)                 1.0861         estimate D2E/DX2                !
 ! R4    R(2,3)                  1.4101         estimate D2E/DX2                !
 ! R5    R(2,39)                 1.0872         estimate D2E/DX2                !
 ! R6    R(3,4)                  1.4177         estimate D2E/DX2                !
 ! R7    R(3,7)                  1.5104         estimate D2E/DX2                !
 ! R8    R(4,5)                  1.3402         estimate D2E/DX2                !
 ! R9    R(4,40)                 1.0833         estimate D2E/DX2                !
 ! R10   R(5,6)                  1.3405         estimate D2E/DX2                !
 ! R11   R(6,41)                 1.0889         estimate D2E/DX2                !
 ! R12   R(7,8)                  1.4052         estimate D2E/DX2                !
 ! R13   R(7,12)                 1.3475         estimate D2E/DX2                !
 ! R14   R(8,9)                  1.3988         estimate D2E/DX2                !
 ! R15   R(8,42)                 1.0831         estimate D2E/DX2                !
 ! R16   R(9,10)                 1.3295         estimate D2E/DX2                !
 ! R17   R(9,43)                 1.0898         estimate D2E/DX2                !
 ! R18   R(10,11)                1.3503         estimate D2E/DX2                !
 ! R19   R(11,12)                1.3359         estimate D2E/DX2                !
 ! R20   R(11,13)                1.3883         estimate D2E/DX2                !
 ! R21   R(13,14)                1.4404         estimate D2E/DX2                !
 ! R22   R(13,44)                1.0089         estimate D2E/DX2                !
 ! R23   R(14,15)                1.4279         estimate D2E/DX2                !
 ! R24   R(14,19)                1.3981         estimate D2E/DX2                !
 ! R25   R(15,16)                1.4051         estimate D2E/DX2                !
 ! R26   R(15,37)                1.5191         estimate D2E/DX2                !
 ! R27   R(16,17)                1.4007         estimate D2E/DX2                !
 ! R28   R(16,45)                1.0896         estimate D2E/DX2                !
 ! R29   R(17,18)                1.3994         estimate D2E/DX2                !
 ! R30   R(17,46)                1.0833         estimate D2E/DX2                !
 ! R31   R(18,19)                1.4017         estimate D2E/DX2                !
 ! R32   R(18,20)                1.4232         estimate D2E/DX2                !
 ! R33   R(19,47)                1.0779         estimate D2E/DX2                !
 ! R34   R(20,21)                1.3762         estimate D2E/DX2                !
 ! R35   R(20,48)                1.0106         estimate D2E/DX2                !
 ! R36   R(21,22)                1.5149         estimate D2E/DX2                !
 ! R37   R(21,36)                1.2193         estimate D2E/DX2                !
 ! R38   R(22,23)                1.404          estimate D2E/DX2                !
 ! R39   R(22,27)                1.405          estimate D2E/DX2                !
 ! R40   R(23,24)                1.3967         estimate D2E/DX2                !
 ! R41   R(23,49)                1.0871         estimate D2E/DX2                !
 ! R42   R(24,25)                1.4077         estimate D2E/DX2                !
 ! R43   R(24,50)                1.0902         estimate D2E/DX2                !
 ! R44   R(25,26)                1.4078         estimate D2E/DX2                !
 ! R45   R(25,28)                1.529          estimate D2E/DX2                !
 ! R46   R(26,27)                1.3963         estimate D2E/DX2                !
 ! R47   R(26,51)                1.0896         estimate D2E/DX2                !
 ! R48   R(27,52)                1.0873         estimate D2E/DX2                !
 ! R49   R(28,29)                1.4736         estimate D2E/DX2                !
 ! R50   R(28,53)                1.0996         estimate D2E/DX2                !
 ! R51   R(28,54)                1.0996         estimate D2E/DX2                !
 ! R52   R(29,30)                1.4791         estimate D2E/DX2                !
 ! R53   R(29,35)                1.481          estimate D2E/DX2                !
 ! R54   R(30,31)                1.5503         estimate D2E/DX2                !
 ! R55   R(30,55)                1.0477         estimate D2E/DX2                !
 ! R56   R(30,56)                1.5815         estimate D2E/DX2                !
 ! R57   R(31,32)                1.4817         estimate D2E/DX2                !
 ! R58   R(31,57)                1.5094         estimate D2E/DX2                !
 ! R59   R(31,58)                1.1467         estimate D2E/DX2                !
 ! R60   R(32,33)                1.4677         estimate D2E/DX2                !
 ! R61   R(32,34)                1.484          estimate D2E/DX2                !
 ! R62   R(33,59)                1.0957         estimate D2E/DX2                !
 ! R63   R(33,60)                1.0958         estimate D2E/DX2                !
 ! R64   R(33,61)                1.0962         estimate D2E/DX2                !
 ! R65   R(34,35)                1.5515         estimate D2E/DX2                !
 ! R66   R(34,62)                1.0923         estimate D2E/DX2                !
 ! R67   R(34,63)                1.5211         estimate D2E/DX2                !
 ! R68   R(35,64)                1.5797         estimate D2E/DX2                !
 ! R69   R(35,65)                1.1277         estimate D2E/DX2                !
 ! R70   R(37,66)                1.0993         estimate D2E/DX2                !
 ! R71   R(37,67)                1.0992         estimate D2E/DX2                !
 ! R72   R(37,68)                1.0987         estimate D2E/DX2                !
 ! A1    A(2,1,6)              118.3238         estimate D2E/DX2                !
 ! A2    A(2,1,38)             121.2797         estimate D2E/DX2                !
 ! A3    A(6,1,38)             120.3964         estimate D2E/DX2                !
 ! A4    A(1,2,3)              120.1355         estimate D2E/DX2                !
 ! A5    A(1,2,39)             117.9762         estimate D2E/DX2                !
 ! A6    A(3,2,39)             121.8875         estimate D2E/DX2                !
 ! A7    A(2,3,4)              115.6796         estimate D2E/DX2                !
 ! A8    A(2,3,7)              123.2627         estimate D2E/DX2                !
 ! A9    A(4,3,7)              121.0541         estimate D2E/DX2                !
 ! A10   A(3,4,5)              124.987          estimate D2E/DX2                !
 ! A11   A(3,4,40)             120.1216         estimate D2E/DX2                !
 ! A12   A(5,4,40)             114.8907         estimate D2E/DX2                !
 ! A13   A(4,5,6)              117.5389         estimate D2E/DX2                !
 ! A14   A(1,6,5)              123.3339         estimate D2E/DX2                !
 ! A15   A(1,6,41)             120.8436         estimate D2E/DX2                !
 ! A16   A(5,6,41)             115.8224         estimate D2E/DX2                !
 ! A17   A(3,7,8)              125.0636         estimate D2E/DX2                !
 ! A18   A(3,7,12)             115.1681         estimate D2E/DX2                !
 ! A19   A(8,7,12)             119.7676         estimate D2E/DX2                !
 ! A20   A(7,8,9)              115.7833         estimate D2E/DX2                !
 ! A21   A(7,8,42)             124.1498         estimate D2E/DX2                !
 ! A22   A(9,8,42)             120.0602         estimate D2E/DX2                !
 ! A23   A(8,9,10)             124.5181         estimate D2E/DX2                !
 ! A24   A(8,9,43)             120.1952         estimate D2E/DX2                !
 ! A25   A(10,9,43)            115.2866         estimate D2E/DX2                !
 ! A26   A(9,10,11)            115.7437         estimate D2E/DX2                !
 ! A27   A(10,11,12)           124.406          estimate D2E/DX2                !
 ! A28   A(10,11,13)           114.8962         estimate D2E/DX2                !
 ! A29   A(12,11,13)           120.6976         estimate D2E/DX2                !
 ! A30   A(7,12,11)            119.7762         estimate D2E/DX2                !
 ! A31   A(11,13,14)           133.477          estimate D2E/DX2                !
 ! A32   A(11,13,44)           109.529          estimate D2E/DX2                !
 ! A33   A(14,13,44)           116.7143         estimate D2E/DX2                !
 ! A34   A(13,14,15)           119.4008         estimate D2E/DX2                !
 ! A35   A(13,14,19)           121.7636         estimate D2E/DX2                !
 ! A36   A(15,14,19)           118.8348         estimate D2E/DX2                !
 ! A37   A(14,15,16)           116.969          estimate D2E/DX2                !
 ! A38   A(14,15,37)           123.4475         estimate D2E/DX2                !
 ! A39   A(16,15,37)           119.5834         estimate D2E/DX2                !
 ! A40   A(15,16,17)           124.1152         estimate D2E/DX2                !
 ! A41   A(15,16,45)           118.9674         estimate D2E/DX2                !
 ! A42   A(17,16,45)           116.9142         estimate D2E/DX2                !
 ! A43   A(16,17,18)           118.1537         estimate D2E/DX2                !
 ! A44   A(16,17,46)           121.1853         estimate D2E/DX2                !
 ! A45   A(18,17,46)           120.655          estimate D2E/DX2                !
 ! A46   A(17,18,19)           118.983          estimate D2E/DX2                !
 ! A47   A(17,18,20)           124.8288         estimate D2E/DX2                !
 ! A48   A(19,18,20)           116.1682         estimate D2E/DX2                !
 ! A49   A(14,19,18)           122.934          estimate D2E/DX2                !
 ! A50   A(14,19,47)           118.3734         estimate D2E/DX2                !
 ! A51   A(18,19,47)           118.6924         estimate D2E/DX2                !
 ! A52   A(18,20,21)           131.1947         estimate D2E/DX2                !
 ! A53   A(18,20,48)           112.7823         estimate D2E/DX2                !
 ! A54   A(21,20,48)           115.8419         estimate D2E/DX2                !
 ! A55   A(20,21,22)           118.0267         estimate D2E/DX2                !
 ! A56   A(20,21,36)           122.2282         estimate D2E/DX2                !
 ! A57   A(22,21,36)           119.7172         estimate D2E/DX2                !
 ! A58   A(21,22,23)           123.6484         estimate D2E/DX2                !
 ! A59   A(21,22,27)           117.5279         estimate D2E/DX2                !
 ! A60   A(23,22,27)           118.8237         estimate D2E/DX2                !
 ! A61   A(22,23,24)           120.377          estimate D2E/DX2                !
 ! A62   A(22,23,49)           119.5117         estimate D2E/DX2                !
 ! A63   A(24,23,49)           120.1094         estimate D2E/DX2                !
 ! A64   A(23,24,25)           121.405          estimate D2E/DX2                !
 ! A65   A(23,24,50)           118.7344         estimate D2E/DX2                !
 ! A66   A(25,24,50)           119.86           estimate D2E/DX2                !
 ! A67   A(24,25,26)           117.5934         estimate D2E/DX2                !
 ! A68   A(24,25,28)           121.3163         estimate D2E/DX2                !
 ! A69   A(26,25,28)           121.0459         estimate D2E/DX2                !
 ! A70   A(25,26,27)           121.4054         estimate D2E/DX2                !
 ! A71   A(25,26,51)           120.0818         estimate D2E/DX2                !
 ! A72   A(27,26,51)           118.498          estimate D2E/DX2                !
 ! A73   A(22,27,26)           120.3728         estimate D2E/DX2                !
 ! A74   A(22,27,52)           118.6401         estimate D2E/DX2                !
 ! A75   A(26,27,52)           120.9572         estimate D2E/DX2                !
 ! A76   A(25,28,29)           118.9929         estimate D2E/DX2                !
 ! A77   A(25,28,53)           108.3943         estimate D2E/DX2                !
 ! A78   A(25,28,54)           108.636          estimate D2E/DX2                !
 ! A79   A(29,28,53)           107.5143         estimate D2E/DX2                !
 ! A80   A(29,28,54)           106.7135         estimate D2E/DX2                !
 ! A81   A(53,28,54)           105.8543         estimate D2E/DX2                !
 ! A82   A(28,29,30)           119.1931         estimate D2E/DX2                !
 ! A83   A(28,29,35)           118.7457         estimate D2E/DX2                !
 ! A84   A(30,29,35)           110.5574         estimate D2E/DX2                !
 ! A85   A(29,30,31)           114.2204         estimate D2E/DX2                !
 ! A86   A(29,30,55)           110.9228         estimate D2E/DX2                !
 ! A87   A(29,30,56)           106.5998         estimate D2E/DX2                !
 ! A88   A(31,30,55)           112.9057         estimate D2E/DX2                !
 ! A89   A(31,30,56)           105.2            estimate D2E/DX2                !
 ! A90   A(55,30,56)           106.294          estimate D2E/DX2                !
 ! A91   A(30,31,32)           114.1328         estimate D2E/DX2                !
 ! A92   A(30,31,57)           106.8714         estimate D2E/DX2                !
 ! A93   A(30,31,58)           111.382          estimate D2E/DX2                !
 ! A94   A(32,31,57)           108.3693         estimate D2E/DX2                !
 ! A95   A(32,31,58)           107.9817         estimate D2E/DX2                !
 ! A96   A(57,31,58)           107.8983         estimate D2E/DX2                !
 ! A97   A(31,32,33)           116.7393         estimate D2E/DX2                !
 ! A98   A(31,32,34)           109.0945         estimate D2E/DX2                !
 ! A99   A(33,32,34)           116.3157         estimate D2E/DX2                !
 ! A100  A(32,33,59)           111.0651         estimate D2E/DX2                !
 ! A101  A(32,33,60)           110.1884         estimate D2E/DX2                !
 ! A102  A(32,33,61)           110.1256         estimate D2E/DX2                !
 ! A103  A(59,33,60)           108.857          estimate D2E/DX2                !
 ! A104  A(59,33,61)           108.7472         estimate D2E/DX2                !
 ! A105  A(60,33,61)           107.7783         estimate D2E/DX2                !
 ! A106  A(32,34,35)           114.308          estimate D2E/DX2                !
 ! A107  A(32,34,62)           109.5789         estimate D2E/DX2                !
 ! A108  A(32,34,63)           106.6143         estimate D2E/DX2                !
 ! A109  A(35,34,62)           111.823          estimate D2E/DX2                !
 ! A110  A(35,34,63)           106.9212         estimate D2E/DX2                !
 ! A111  A(62,34,63)           107.1831         estimate D2E/DX2                !
 ! A112  A(29,35,34)           115.2501         estimate D2E/DX2                !
 ! A113  A(29,35,64)           106.9319         estimate D2E/DX2                !
 ! A114  A(29,35,65)           110.4513         estimate D2E/DX2                !
 ! A115  A(34,35,64)           105.2566         estimate D2E/DX2                !
 ! A116  A(34,35,65)           111.546          estimate D2E/DX2                !
 ! A117  A(64,35,65)           106.8181         estimate D2E/DX2                !
 ! A118  A(15,37,66)           111.282          estimate D2E/DX2                !
 ! A119  A(15,37,67)           111.5519         estimate D2E/DX2                !
 ! A120  A(15,37,68)           113.0188         estimate D2E/DX2                !
 ! A121  A(66,37,67)           107.51           estimate D2E/DX2                !
 ! A122  A(66,37,68)           106.6247         estimate D2E/DX2                !
 ! A123  A(67,37,68)           106.5158         estimate D2E/DX2                !
 ! D1    D(6,1,2,3)              0.3662         estimate D2E/DX2                !
 ! D2    D(6,1,2,39)          -179.9618         estimate D2E/DX2                !
 ! D3    D(38,1,2,3)          -179.7489         estimate D2E/DX2                !
 ! D4    D(38,1,2,39)           -0.0769         estimate D2E/DX2                !
 ! D5    D(2,1,6,5)             -0.0905         estimate D2E/DX2                !
 ! D6    D(2,1,6,41)           179.9049         estimate D2E/DX2                !
 ! D7    D(38,1,6,5)          -179.9764         estimate D2E/DX2                !
 ! D8    D(38,1,6,41)            0.0189         estimate D2E/DX2                !
 ! D9    D(1,2,3,4)             -0.3505         estimate D2E/DX2                !
 ! D10   D(1,2,3,7)           -179.6649         estimate D2E/DX2                !
 ! D11   D(39,2,3,4)           179.9907         estimate D2E/DX2                !
 ! D12   D(39,2,3,7)             0.6762         estimate D2E/DX2                !
 ! D13   D(2,3,4,5)              0.069          estimate D2E/DX2                !
 ! D14   D(2,3,4,40)          -179.6134         estimate D2E/DX2                !
 ! D15   D(7,3,4,5)            179.3998         estimate D2E/DX2                !
 ! D16   D(7,3,4,40)            -0.2826         estimate D2E/DX2                !
 ! D17   D(2,3,7,8)              1.5326         estimate D2E/DX2                !
 ! D18   D(2,3,7,12)          -178.7837         estimate D2E/DX2                !
 ! D19   D(4,3,7,8)           -177.7462         estimate D2E/DX2                !
 ! D20   D(4,3,7,12)             1.9375         estimate D2E/DX2                !
 ! D21   D(3,4,5,6)              0.1968         estimate D2E/DX2                !
 ! D22   D(40,4,5,6)           179.894          estimate D2E/DX2                !
 ! D23   D(4,5,6,1)             -0.186          estimate D2E/DX2                !
 ! D24   D(4,5,6,41)           179.8185         estimate D2E/DX2                !
 ! D25   D(3,7,8,9)            178.8755         estimate D2E/DX2                !
 ! D26   D(3,7,8,42)            -0.1825         estimate D2E/DX2                !
 ! D27   D(12,7,8,9)            -0.7947         estimate D2E/DX2                !
 ! D28   D(12,7,8,42)         -179.8527         estimate D2E/DX2                !
 ! D29   D(3,7,12,11)         -178.896          estimate D2E/DX2                !
 ! D30   D(8,7,12,11)            0.8057         estimate D2E/DX2                !
 ! D31   D(7,8,9,10)             0.3266         estimate D2E/DX2                !
 ! D32   D(7,8,9,43)          -179.5355         estimate D2E/DX2                !
 ! D33   D(42,8,9,10)          179.4258         estimate D2E/DX2                !
 ! D34   D(42,8,9,43)           -0.4363         estimate D2E/DX2                !
 ! D35   D(8,9,10,11)            0.1397         estimate D2E/DX2                !
 ! D36   D(43,9,10,11)        -179.9921         estimate D2E/DX2                !
 ! D37   D(9,10,11,12)          -0.1618         estimate D2E/DX2                !
 ! D38   D(9,10,11,13)         179.7174         estimate D2E/DX2                !
 ! D39   D(10,11,12,7)          -0.3165         estimate D2E/DX2                !
 ! D40   D(13,11,12,7)         179.8109         estimate D2E/DX2                !
 ! D41   D(10,11,13,14)       -176.0736         estimate D2E/DX2                !
 ! D42   D(10,11,13,44)         -2.5431         estimate D2E/DX2                !
 ! D43   D(12,11,13,14)          3.8106         estimate D2E/DX2                !
 ! D44   D(12,11,13,44)        177.3411         estimate D2E/DX2                !
 ! D45   D(11,13,14,15)        162.4011         estimate D2E/DX2                !
 ! D46   D(11,13,14,19)        -17.9509         estimate D2E/DX2                !
 ! D47   D(44,13,14,15)        -10.7713         estimate D2E/DX2                !
 ! D48   D(44,13,14,19)        168.8767         estimate D2E/DX2                !
 ! D49   D(13,14,15,16)        179.7035         estimate D2E/DX2                !
 ! D50   D(13,14,15,37)         -0.1896         estimate D2E/DX2                !
 ! D51   D(19,14,15,16)          0.0452         estimate D2E/DX2                !
 ! D52   D(19,14,15,37)       -179.8479         estimate D2E/DX2                !
 ! D53   D(13,14,19,18)        179.4258         estimate D2E/DX2                !
 ! D54   D(13,14,19,47)         -0.7496         estimate D2E/DX2                !
 ! D55   D(15,14,19,18)         -0.9243         estimate D2E/DX2                !
 ! D56   D(15,14,19,47)        178.9003         estimate D2E/DX2                !
 ! D57   D(14,15,16,17)          0.571          estimate D2E/DX2                !
 ! D58   D(14,15,16,45)        179.8919         estimate D2E/DX2                !
 ! D59   D(37,15,16,17)       -179.5315         estimate D2E/DX2                !
 ! D60   D(37,15,16,45)         -0.2106         estimate D2E/DX2                !
 ! D61   D(14,15,37,66)         64.1889         estimate D2E/DX2                !
 ! D62   D(14,15,37,67)        -55.8779         estimate D2E/DX2                !
 ! D63   D(14,15,37,68)       -175.8709         estimate D2E/DX2                !
 ! D64   D(16,15,37,66)       -115.7016         estimate D2E/DX2                !
 ! D65   D(16,15,37,67)        124.2316         estimate D2E/DX2                !
 ! D66   D(16,15,37,68)          4.2386         estimate D2E/DX2                !
 ! D67   D(15,16,17,18)         -0.3188         estimate D2E/DX2                !
 ! D68   D(15,16,17,46)        178.7946         estimate D2E/DX2                !
 ! D69   D(45,16,17,18)       -179.6525         estimate D2E/DX2                !
 ! D70   D(45,16,17,46)         -0.539          estimate D2E/DX2                !
 ! D71   D(16,17,18,19)         -0.5494         estimate D2E/DX2                !
 ! D72   D(16,17,18,20)        177.7609         estimate D2E/DX2                !
 ! D73   D(46,17,18,19)       -179.6678         estimate D2E/DX2                !
 ! D74   D(46,17,18,20)         -1.3574         estimate D2E/DX2                !
 ! D75   D(17,18,19,14)          1.1881         estimate D2E/DX2                !
 ! D76   D(17,18,19,47)       -178.636          estimate D2E/DX2                !
 ! D77   D(20,18,19,14)       -177.2666         estimate D2E/DX2                !
 ! D78   D(20,18,19,47)          2.9093         estimate D2E/DX2                !
 ! D79   D(17,18,20,21)        131.9073         estimate D2E/DX2                !
 ! D80   D(17,18,20,48)        -42.9027         estimate D2E/DX2                !
 ! D81   D(19,18,20,21)        -49.7395         estimate D2E/DX2                !
 ! D82   D(19,18,20,48)        135.4505         estimate D2E/DX2                !
 ! D83   D(18,20,21,22)       -169.3608         estimate D2E/DX2                !
 ! D84   D(18,20,21,36)         12.5643         estimate D2E/DX2                !
 ! D85   D(48,20,21,22)          5.3221         estimate D2E/DX2                !
 ! D86   D(48,20,21,36)       -172.7528         estimate D2E/DX2                !
 ! D87   D(20,21,22,23)         34.5624         estimate D2E/DX2                !
 ! D88   D(20,21,22,27)       -145.3891         estimate D2E/DX2                !
 ! D89   D(36,21,22,23)       -147.3127         estimate D2E/DX2                !
 ! D90   D(36,21,22,27)         32.7359         estimate D2E/DX2                !
 ! D91   D(21,22,23,24)       -178.1454         estimate D2E/DX2                !
 ! D92   D(21,22,23,49)          1.3572         estimate D2E/DX2                !
 ! D93   D(27,22,23,24)          1.8055         estimate D2E/DX2                !
 ! D94   D(27,22,23,49)       -178.6919         estimate D2E/DX2                !
 ! D95   D(21,22,27,26)        178.4029         estimate D2E/DX2                !
 ! D96   D(21,22,27,52)          0.3732         estimate D2E/DX2                !
 ! D97   D(23,22,27,26)         -1.551          estimate D2E/DX2                !
 ! D98   D(23,22,27,52)       -179.5807         estimate D2E/DX2                !
 ! D99   D(22,23,24,25)         -0.9882         estimate D2E/DX2                !
 ! D100  D(22,23,24,50)        178.724          estimate D2E/DX2                !
 ! D101  D(49,23,24,25)        179.5122         estimate D2E/DX2                !
 ! D102  D(49,23,24,50)         -0.7756         estimate D2E/DX2                !
 ! D103  D(23,24,25,26)         -0.112          estimate D2E/DX2                !
 ! D104  D(23,24,25,28)        177.4891         estimate D2E/DX2                !
 ! D105  D(50,24,25,26)       -179.821          estimate D2E/DX2                !
 ! D106  D(50,24,25,28)         -2.2199         estimate D2E/DX2                !
 ! D107  D(24,25,26,27)          0.3702         estimate D2E/DX2                !
 ! D108  D(24,25,26,51)        178.9518         estimate D2E/DX2                !
 ! D109  D(28,25,26,27)       -177.2378         estimate D2E/DX2                !
 ! D110  D(28,25,26,51)          1.3438         estimate D2E/DX2                !
 ! D111  D(24,25,28,29)        -83.253          estimate D2E/DX2                !
 ! D112  D(24,25,28,53)         39.8993         estimate D2E/DX2                !
 ! D113  D(24,25,28,54)        154.4803         estimate D2E/DX2                !
 ! D114  D(26,25,28,29)         94.2655         estimate D2E/DX2                !
 ! D115  D(26,25,28,53)       -142.5822         estimate D2E/DX2                !
 ! D116  D(26,25,28,54)        -28.0012         estimate D2E/DX2                !
 ! D117  D(25,26,27,22)          0.4698         estimate D2E/DX2                !
 ! D118  D(25,26,27,52)        178.4533         estimate D2E/DX2                !
 ! D119  D(51,26,27,22)       -178.1336         estimate D2E/DX2                !
 ! D120  D(51,26,27,52)         -0.1501         estimate D2E/DX2                !
 ! D121  D(25,28,29,30)         74.9077         estimate D2E/DX2                !
 ! D122  D(25,28,29,35)        -65.0212         estimate D2E/DX2                !
 ! D123  D(53,28,29,30)        -48.6776         estimate D2E/DX2                !
 ! D124  D(53,28,29,35)        171.3935         estimate D2E/DX2                !
 ! D125  D(54,28,29,30)       -161.8728         estimate D2E/DX2                !
 ! D126  D(54,28,29,35)         58.1983         estimate D2E/DX2                !
 ! D127  D(28,29,30,31)        -94.796          estimate D2E/DX2                !
 ! D128  D(28,29,30,55)         34.1726         estimate D2E/DX2                !
 ! D129  D(28,29,30,56)        149.4757         estimate D2E/DX2                !
 ! D130  D(35,29,30,31)         48.134          estimate D2E/DX2                !
 ! D131  D(35,29,30,55)        177.1026         estimate D2E/DX2                !
 ! D132  D(35,29,30,56)        -67.5942         estimate D2E/DX2                !
 ! D133  D(28,29,35,34)         96.2892         estimate D2E/DX2                !
 ! D134  D(28,29,35,64)       -147.1145         estimate D2E/DX2                !
 ! D135  D(28,29,35,65)        -31.2453         estimate D2E/DX2                !
 ! D136  D(30,29,35,34)        -46.8273         estimate D2E/DX2                !
 ! D137  D(30,29,35,64)         69.769          estimate D2E/DX2                !
 ! D138  D(30,29,35,65)       -174.3618         estimate D2E/DX2                !
 ! D139  D(29,30,31,32)        -53.4925         estimate D2E/DX2                !
 ! D140  D(29,30,31,57)       -173.2761         estimate D2E/DX2                !
 ! D141  D(29,30,31,58)         69.1022         estimate D2E/DX2                !
 ! D142  D(55,30,31,32)        178.543          estimate D2E/DX2                !
 ! D143  D(55,30,31,57)         58.7594         estimate D2E/DX2                !
 ! D144  D(55,30,31,58)        -58.8623         estimate D2E/DX2                !
 ! D145  D(56,30,31,32)         63.0484         estimate D2E/DX2                !
 ! D146  D(56,30,31,57)        -56.7351         estimate D2E/DX2                !
 ! D147  D(56,30,31,58)       -174.3569         estimate D2E/DX2                !
 ! D148  D(30,31,32,33)        -81.9472         estimate D2E/DX2                !
 ! D149  D(30,31,32,34)         52.4564         estimate D2E/DX2                !
 ! D150  D(57,31,32,33)         36.9907         estimate D2E/DX2                !
 ! D151  D(57,31,32,34)        171.3942         estimate D2E/DX2                !
 ! D152  D(58,31,32,33)        153.6211         estimate D2E/DX2                !
 ! D153  D(58,31,32,34)        -71.9754         estimate D2E/DX2                !
 ! D154  D(31,32,33,59)         65.8254         estimate D2E/DX2                !
 ! D155  D(31,32,33,60)        -54.8818         estimate D2E/DX2                !
 ! D156  D(31,32,33,61)       -173.6471         estimate D2E/DX2                !
 ! D157  D(34,32,33,59)        -65.3083         estimate D2E/DX2                !
 ! D158  D(34,32,33,60)        173.9845         estimate D2E/DX2                !
 ! D159  D(34,32,33,61)         55.2193         estimate D2E/DX2                !
 ! D160  D(31,32,34,35)        -50.6826         estimate D2E/DX2                !
 ! D161  D(31,32,34,62)       -177.0943         estimate D2E/DX2                !
 ! D162  D(31,32,34,63)         67.2258         estimate D2E/DX2                !
 ! D163  D(33,32,34,35)         83.9361         estimate D2E/DX2                !
 ! D164  D(33,32,34,62)        -42.4757         estimate D2E/DX2                !
 ! D165  D(33,32,34,63)       -158.1556         estimate D2E/DX2                !
 ! D166  D(32,34,35,29)         50.1985         estimate D2E/DX2                !
 ! D167  D(32,34,35,64)        -67.3437         estimate D2E/DX2                !
 ! D168  D(32,34,35,65)        177.1805         estimate D2E/DX2                !
 ! D169  D(62,34,35,29)        175.4354         estimate D2E/DX2                !
 ! D170  D(62,34,35,64)         57.8932         estimate D2E/DX2                !
 ! D171  D(62,34,35,65)        -57.5826         estimate D2E/DX2                !
 ! D172  D(63,34,35,29)        -67.5346         estimate D2E/DX2                !
 ! D173  D(63,34,35,64)        174.9232         estimate D2E/DX2                !
 ! D174  D(63,34,35,65)         59.4474         estimate D2E/DX2                !
 --------------------------------------------------------------------------------
 Trust Radius=3.00D-01 FncErr=1.00D-07 GrdErr=1.00D-06
 Number of steps in this run= 400 maximum allowed number of steps= 408.
 GradGradGradGradGradGradGradGradGradGradGradGradGradGradGradGradGradGrad

 Leave Link  103 at Wed Apr  8 22:20:15 2020, MaxMem= 2684354560 cpu:       0.1
 (Enter /opt/g09gh/gaussian/g09/l202.exe)
 Stoichiometry    C29H31N7O
 Framework group  C1[X(C29H31N7O)]
 Deg. of freedom   198
 Full point group                 C1      NOp   1
 Largest Abelian subgroup         C1      NOp   1
 Largest concise Abelian subgroup C1      NOp   1
                         Standard orientation:                         
 ---------------------------------------------------------------------
 Center     Atomic      Atomic             Coordinates (Angstroms)
 Number     Number       Type             X           Y           Z
 ---------------------------------------------------------------------
      1          6           0       -1.336079    5.026552   -0.081304
      2          6           0       -2.616289    4.461519   -0.005935
      3          6           0       -2.770803    3.060315    0.028000
      4          6           0       -1.570205    2.308356   -0.026622
      5          7           0       -0.338763    2.831388   -0.104571
      6          6           0       -0.233295    4.167490   -0.129030
      7          6           0       -4.115673    2.376692    0.101456
      8          6           0       -5.356704    3.035770    0.113576
      9          6           0       -6.484138    2.209203    0.161339
     10          7           0       -6.443351    0.880956    0.200879
     11          6           0       -5.209876    0.331664    0.195760
     12          7           0       -4.072415    1.030787    0.151381
     13          7           0       -5.187693   -1.055649    0.243633
     14          6           0       -4.127978   -2.027616    0.328281
     15          6           0       -4.431708   -3.362146    0.735201
     16          6           0       -3.360718   -4.269747    0.793988
     17          6           0       -2.033555   -3.939386    0.491784
     18          6           0       -1.752947   -2.625599    0.100074
     19          6           0       -2.804690   -1.702846    0.015091
     20          7           0       -0.453639   -2.125227   -0.194641
     21          6           0        0.013350   -1.385588   -1.257125
     22          6           0        1.511627   -1.215384   -1.402116
     23          6           0        2.444295   -2.205533   -1.054467
     24          6           0        3.813732   -1.961301   -1.180371
     25          6           0        4.297815   -0.735115   -1.674175
     26          6           0        3.350672    0.239879   -2.040617
     27          6           0        1.979894    0.006707   -1.913281
     28          6           0        5.797402   -0.448521   -1.758068
     29          7           0        6.500377    0.035391   -0.556817
     30          6           0        6.799919   -0.915394    0.535863
     31          6           0        5.742651   -0.934971    1.669598
     32          7           0        5.453216    0.396727    2.251059
     33          6           0        6.387124    0.889292    3.270543
     34          6           0        5.115321    1.340988    1.157262
     35          6           0        6.140429    1.362711   -0.007151
     36          8           0       -0.736192   -0.843742   -2.051598
     37          6           0       -5.831433   -3.829457    1.095867
     38          1           0       -1.195354    6.103243   -0.104421
     39          1           0       -3.469472    5.134462    0.030241
     40          1           0       -1.605640    1.225700   -0.011498
     41          1           0        0.779741    4.562292   -0.189555
     42          1           0       -5.474122    4.111749    0.073840
     43          1           0       -7.483135    2.644572    0.165908
     44          1           0       -6.131116   -1.405727    0.316594
     45          1           0       -3.555445   -5.296484    1.102299
     46          1           0       -1.240716   -4.673215    0.571653
     47          1           0       -2.586705   -0.698083   -0.308536
     48          1           0        0.244619   -2.435909    0.466563
     49          1           0        2.093464   -3.163154   -0.678016
     50          1           0        4.514801   -2.741447   -0.882868
     51          1           0        3.680799    1.209764   -2.411619
     52          1           0        1.255373    0.773965   -2.175053
     53          1           0        6.307185   -1.363066   -2.093899
     54          1           0        5.968885    0.297979   -2.547063
     55          1           0        7.007574   -1.869265    0.155400
     56          1           0        8.133170   -0.410986    1.220869
     57          1           0        6.287962   -1.822569    2.761820
     58          1           0        4.752137   -1.387007    1.309778
     59          1           0        7.378116    1.073410    2.840776
     60          1           0        6.482808    0.157724    4.080802
     61          1           0        6.012629    1.823242    3.705352
     62          1           0        4.950877    2.337976    1.572136
     63          1           0        3.791128    0.873495    0.572675
     64          1           0        7.458002    1.977627    0.610388
     65          1           0        5.813202    2.056126   -0.834142
     66          1           0       -6.505169   -3.777639    0.228806
     67          1           0       -6.270187   -3.212690    1.892945
     68          1           0       -5.858824   -4.867954    1.453624
 ---------------------------------------------------------------------
 Rotational constants (GHZ):      0.1462039      0.0516600      0.0425519
 Leave Link  202 at Wed Apr  8 22:20:15 2020, MaxMem= 2684354560 cpu:       0.0
 (Enter /opt/g09gh/gaussian/g09/l301.exe)
 Standard basis: 6-31G(d) (6D, 7F)
 Ernie: Thresh=  0.10000D-02 Tol=  0.10000D-05 Strict=F.
 There are   617 symmetry adapted basis functions of A   symmetry.
 Integral buffers will be    131072 words long.
 Raffenetti 2 integral format.
 Two-electron integral symmetry is turned on.
   617 basis functions,  1160 primitive gaussians,   617 cartesian basis functions
   131 alpha electrons      131 beta electrons
       nuclear repulsion energy      3742.0936664906 Hartrees.
 IExCor= 4639 DFT=T Ex+Corr=wB97XD ExCW=0 ScaHFX=  1.000000
 ScaDFX=  1.000000  1.000000  1.000000  1.000000 ScalE2=  1.000000  1.000000
 IRadAn=      0 IRanWt=     -1 IRanGd=            0 ICorTp=0
  HFx wShort=  0.000000 wLong=  0.200000 cFull=  0.222036 cShort=  0.000000 cLong=  0.777964
  DFx wShort=  0.000000 wLong=  0.200000 cFull=  0.000000 cShort=  0.000000 cLong=  1.000000
 NAtoms=   68 NActive=   68 NUniq=   68 SFac= 7.50D-01 NAtFMM=   80 NAOKFM=F Big=T
 R6Disp: Dispersion energy =        -0.0574274646 Hartrees.
 Nuclear repulsion after empirical dispersion term =     3742.0362390260 Hartrees.
 Leave Link  301 at Wed Apr  8 22:20:15 2020, MaxMem= 2684354560 cpu:       0.3
 (Enter /opt/g09gh/gaussian/g09/l302.exe)
 NPDir=0 NMtPBC=     1 NCelOv=     1 NCel=       1 NClECP=     1 NCelD=      1
         NCelK=      1 NCelE2=     1 NClLst=     1 CellRange=     0.0.
 One-electron integrals computed using PRISM.
 NBasis=   617 RedAO= T  NBF=   617
 NBsUse=   617 1.00D-06 NBFU=   617
 Precomputing XC quadrature grid using
 IXCGrd= 2 IRadAn=           0 IRanWt=          -1 IRanGd=           0 AccXCQ= 1.00D-10.
 NRdTot=    4382 NPtTot=      560254 NUsed=      591825 NTot=      591857
 NSgBfM=   587   588   589   590   592 NAtAll=    68    68.
 Leave Link  302 at Wed Apr  8 22:20:16 2020, MaxMem= 2684354560 cpu:       7.2
 (Enter /opt/g09gh/gaussian/g09/l303.exe)
 DipDrv:  MaxL=1.
 Leave Link  303 at Wed Apr  8 22:20:16 2020, MaxMem= 2684354560 cpu:       0.5
 (Enter /opt/g09gh/gaussian/g09/l401.exe)
 Harris functional with IExCor= 4639 diagonalized for initial guess.
 ExpMin= 1.61D-01 ExpMax= 5.48D+03 ExpMxC= 8.25D+02 IAcc=1 IRadAn=         1 AccDes= 0.00D+00
 HarFok:  IExCor= 4639 AccDes= 0.00D+00 IRadAn=         1 IDoV= 1
 ScaDFX=  1.000000  1.000000  1.000000  1.000000
 FoFCou: FMM=F IPFlag=           0 FMFlag=      100000 FMFlg1=           1
         NFxFlg=           0 DoJE=T BraDBF=F KetDBF=T FulRan=T
         Omega=  0.000000  0.000000  1.000000  0.000000  0.000000 ICntrl=     500 IOpCl=  0
         NMat0=    1 NMatS0=    1 NMatT0=    0 NMatD0=    1 NMtDS0=    0 NMtDT0=    0
         I1Cent=           4 NGrid=           0.
 Petite list used in FoFCou.
 Harris En= -1512.38639113673    
 Initial guess orbital symmetries:
       Occupied  (A) (A) (A) (A) (A) (A) (A) (A) (A) (A) (A) (A)
                 (A) (A) (A) (A) (A) (A) (A) (A) (A) (A) (A) (A)
                 (A) (A) (A) (A) (A) (A) (A) (A) (A) (A) (A) (A)
                 (A) (A) (A) (A) (A) (A) (A) (A) (A) (A) (A) (A)
                 (A) (A) (A) (A) (A) (A) (A) (A) (A) (A) (A) (A)
                 (A) (A) (A) (A) (A) (A) (A) (A) (A) (A) (A) (A)
                 (A) (A) (A) (A) (A) (A) (A) (A) (A) (A) (A) (A)
                 (A) (A) (A) (A) (A) (A) (A) (A) (A) (A) (A) (A)
                 (A) (A) (A) (A) (A) (A) (A) (A) (A) (A) (A) (A)
                 (A) (A) (A) (A) (A) (A) (A) (A) (A) (A) (A) (A)
                 (A) (A) (A) (A) (A) (A) (A) (A) (A) (A) (A)
       Virtual   (A) (A) (A) (A) (A) (A) (A) (A) (A) (A) (A) (A)
                 (A) (A) (A) (A) (A) (A) (A) (A) (A) (A) (A) (A)
                 (A) (A) (A) (A) (A) (A) (A) (A) (A) (A) (A) (A)
                 (A) (A) (A) (A) (A) (A) (A) (A) (A) (A) (A) (A)
                 (A) (A) (A) (A) (A) (A) (A) (A) (A) (A) (A) (A)
                 (A) (A) (A) (A) (A) (A) (A) (A) (A) (A) (A) (A)
                 (A) (A) (A) (A) (A) (A) (A) (A) (A) (A) (A) (A)
                 (A) (A) (A) (A) (A) (A) (A) (A) (A) (A) (A) (A)
                 (A) (A) (A) (A) (A) (A) (A) (A) (A) (A) (A) (A)
                 (A) (A) (A) (A) (A) (A) (A) (A) (A) (A) (A) (A)
                 (A) (A) (A) (A) (A) (A) (A) (A) (A) (A) (A) (A)
                 (A) (A) (A) (A) (A) (A) (A) (A) (A) (A) (A) (A)
                 (A) (A) (A) (A) (A) (A) (A) (A) (A) (A) (A) (A)
                 (A) (A) (A) (A) (A) (A) (A) (A) (A) (A) (A) (A)
                 (A) (A) (A) (A) (A) (A) (A) (A) (A) (A) (A) (A)
                 (A) (A) (A) (A) (A) (A) (A) (A) (A) (A) (A) (A)
                 (A) (A) (A) (A) (A) (A) (A) (A) (A) (A) (A) (A)
                 (A) (A) (A) (A) (A) (A) (A) (A) (A) (A) (A) (A)
                 (A) (A) (A) (A) (A) (A) (A) (A) (A) (A) (A) (A)
                 (A) (A) (A) (A) (A) (A) (A) (A) (A) (A) (A) (A)
                 (A) (A) (A) (A) (A) (A) (A) (A) (A) (A) (A) (A)
                 (A) (A) (A) (A) (A) (A) (A) (A) (A) (A) (A) (A)
                 (A) (A) (A) (A) (A) (A) (A) (A) (A) (A) (A) (A)
                 (A) (A) (A) (A) (A) (A) (A) (A) (A) (A) (A) (A)
                 (A) (A) (A) (A) (A) (A) (A) (A) (A) (A) (A) (A)
                 (A) (A) (A) (A) (A) (A) (A) (A) (A) (A) (A) (A)
                 (A) (A) (A) (A) (A) (A) (A) (A) (A) (A) (A) (A)
                 (A) (A) (A) (A) (A) (A) (A) (A) (A) (A) (A) (A)
                 (A) (A) (A) (A) (A) (A) (A) (A) (A) (A) (A) (A)
                 (A) (A) (A) (A) (A) (A) (A) (A) (A) (A) (A) (A)
                 (A) (A) (A) (A) (A) (A) (A) (A) (A) (A) (A) (A)
                 (A) (A) (A) (A) (A) (A) (A) (A) (A) (A) (A) (A)
                 (A) (A) (A) (A) (A) (A) (A) (A) (A) (A) (A) (A)
                 (A) (A) (A) (A) (A) (A) (A) (A) (A) (A) (A) (A)
                 (A) (A) (A) (A) (A) (A) (A) (A) (A) (A) (A) (A)
                 (A) (A) (A) (A) (A) (A) (A) (A) (A) (A) (A) (A)
                 (A) (A) (A) (A) (A) (A) (A) (A) (A) (A) (A) (A)
                 (A) (A) (A) (A) (A) (A) (A) (A) (A) (A) (A) (A)
                 (A) (A) (A) (A) (A) (A) (A) (A) (A) (A) (A) (A)
                 (A) (A) (A) (A) (A) (A) (A) (A) (A) (A) (A) (A)
                 (A) (A) (A) (A) (A) (A)
 The electronic state of the initial guess is 1-A.
 Leave Link  401 at Wed Apr  8 22:20:19 2020, MaxMem= 2684354560 cpu:      14.2
 (Enter /opt/g09gh/gaussian/g09/l502.exe)
 Closed shell SCF:
 Requested convergence on RMS density matrix=1.00D-08 within 128 cycles.
 Requested convergence on MAX density matrix=1.00D-06.
 Requested convergence on             energy=1.00D-06.
 No special actions if energy rises.
 Using DIIS extrapolation, IDIIS=  1040.
 Integral symmetry usage will be decided dynamically.
       591200 words used for storage of precomputed grid.
 IEnd=     1759780 IEndB=     1759780 NGot=  2684354560 MDV=  2682992727
 LenX=  2682992727 LenY=  2682611421
 Fock matrices will be formed incrementally for  20 cycles.
 Integral accuracy reduced to 1.0D-05 until final iterations.

 Cycle   1  Pass 0  IDiag  1:
 FoFJK:  IHMeth= 1 ICntrl=     0 DoSepK=T KAlg= 1 I1Cent= 0 FoldK=F
 FoFCou: FMM=T IPFlag=           0 FMFlag=      100000 FMFlg1=           1
         NFxFlg=           0 DoJE=T BraDBF=F KetDBF=F FulRan=T
         Omega=  0.000000  0.000000  1.000000  0.000000  0.000000 ICntrl=     500 IOpCl=  0
         NMat0=    1 NMatS0=    1 NMatT0=    0 NMatD0=    1 NMtDS0=    0 NMtDT0=    0
         I1Cent=           0 NGrid=           0.
 Symmetry not used in FoFCou.
 FMM levels:  10  Number of levels for PrismC:   9
 E= -1581.15455489286    
 DIIS: error= 5.53D-02 at cycle   1 NSaved=   1.
 NSaved= 1 IEnMin= 1 EnMin= -1581.15455489286     IErMin= 1 ErrMin= 5.53D-02
 ErrMax= 5.53D-02 EMaxC= 1.00D-01 BMatC= 1.45D+00 BMatP= 1.45D+00
 IDIUse=3 WtCom= 4.47D-01 WtEn= 5.53D-01
 Coeff-Com:  0.100D+01
 Coeff-En:   0.100D+01
 Coeff:      0.100D+01
 Gap=     0.287 Goal=   None    Shift=    0.000
 GapD=    0.287 DampG=1.000 DampE=0.500 DampFc=0.5000 IDamp=-1.
 Damping current iteration by 5.00D-01
 RMSDP=1.87D-03 MaxDP=8.97D-02              OVMax= 1.19D-01

 Cycle   2  Pass 0  IDiag  1:
 RMSU=  6.60D-04    CP:  1.00D+00
 FoFJK:  IHMeth= 1 ICntrl=     0 DoSepK=T KAlg= 1 I1Cent= 0 FoldK=F
 E= -1581.32920542061     Delta-E=       -0.174650527750 Rises=F Damp=T
 DIIS: error= 2.73D-02 at cycle   2 NSaved=   2.
 NSaved= 2 IEnMin= 2 EnMin= -1581.32920542061     IErMin= 2 ErrMin= 2.73D-02
 ErrMax= 2.73D-02 EMaxC= 1.00D-01 BMatC= 3.22D-01 BMatP= 1.45D+00
 IDIUse=3 WtCom= 7.27D-01 WtEn= 2.73D-01
 Coeff-Com: -0.670D+00 0.167D+01
 Coeff-En:   0.000D+00 0.100D+01
 Coeff:     -0.487D+00 0.149D+01
 Gap=     0.309 Goal=   None    Shift=    0.000
 RMSDP=8.68D-04 MaxDP=3.93D-02 DE=-1.75D-01 OVMax= 1.09D-01

 Cycle   3  Pass 0  IDiag  1:
 RMSU=  5.48D-04    CP:  1.00D+00  1.42D+00
 FoFJK:  IHMeth= 1 ICntrl=     0 DoSepK=T KAlg= 1 I1Cent= 0 FoldK=F
 E= -1581.45828525529     Delta-E=       -0.129079834681 Rises=F Damp=F
 DIIS: error= 7.70D-03 at cycle   3 NSaved=   3.
 NSaved= 3 IEnMin= 3 EnMin= -1581.45828525529     IErMin= 3 ErrMin= 7.70D-03
 ErrMax= 7.70D-03 EMaxC= 1.00D-01 BMatC= 5.99D-02 BMatP= 3.22D-01
 IDIUse=3 WtCom= 9.23D-01 WtEn= 7.70D-02
 Coeff-Com: -0.369D+00 0.761D+00 0.608D+00
 Coeff-En:   0.000D+00 0.000D+00 0.100D+01
 Coeff:     -0.340D+00 0.702D+00 0.638D+00
 Gap=     0.272 Goal=   None    Shift=    0.000
 RMSDP=4.55D-04 MaxDP=3.29D-02 DE=-1.29D-01 OVMax= 6.01D-02

 Cycle   4  Pass 0  IDiag  1:
 RMSU=  1.43D-04    CP:  1.00D+00  1.69D+00  5.89D-01
 FoFJK:  IHMeth= 1 ICntrl=     0 DoSepK=T KAlg= 1 I1Cent= 0 FoldK=F
 E= -1581.51086796666     Delta-E=       -0.052582711370 Rises=F Damp=F
 DIIS: error= 2.69D-03 at cycle   4 NSaved=   4.
 NSaved= 4 IEnMin= 4 EnMin= -1581.51086796666     IErMin= 4 ErrMin= 2.69D-03
 ErrMax= 2.69D-03 EMaxC= 1.00D-01 BMatC= 3.17D-03 BMatP= 5.99D-02
 IDIUse=3 WtCom= 9.73D-01 WtEn= 2.69D-02
 Coeff-Com: -0.157D+00 0.320D+00 0.332D+00 0.505D+00
 Coeff-En:   0.000D+00 0.000D+00 0.000D+00 0.100D+01
 Coeff:     -0.153D+00 0.311D+00 0.323D+00 0.519D+00
 Gap=     0.264 Goal=   None    Shift=    0.000
 RMSDP=9.54D-05 MaxDP=7.12D-03 DE=-5.26D-02 OVMax= 8.68D-03

 Cycle   5  Pass 0  IDiag  1:
 RMSU=  4.23D-05    CP:  1.00D+00  1.68D+00  6.55D-01  7.46D-01
 FoFJK:  IHMeth= 1 ICntrl=     0 DoSepK=T KAlg= 1 I1Cent= 0 FoldK=F
 E= -1581.51362373872     Delta-E=       -0.002755772059 Rises=F Damp=F
 DIIS: error= 4.78D-04 at cycle   5 NSaved=   5.
 NSaved= 5 IEnMin= 5 EnMin= -1581.51362373872     IErMin= 5 ErrMin= 4.78D-04
 ErrMax= 4.78D-04 EMaxC= 1.00D-01 BMatC= 7.73D-05 BMatP= 3.17D-03
 IDIUse=3 WtCom= 9.95D-01 WtEn= 4.78D-03
 Coeff-Com: -0.913D-02 0.176D-01 0.415D-01 0.156D+00 0.794D+00
 Coeff-En:   0.000D+00 0.000D+00 0.000D+00 0.000D+00 0.100D+01
 Coeff:     -0.909D-02 0.175D-01 0.413D-01 0.155D+00 0.795D+00
 Gap=     0.263 Goal=   None    Shift=    0.000
 RMSDP=2.37D-05 MaxDP=2.08D-03 DE=-2.76D-03 OVMax= 2.51D-03

 Cycle   6  Pass 0  IDiag  1:
 RMSU=  1.31D-05    CP:  1.00D+00  1.68D+00  6.62D-01  8.09D-01  9.92D-01
 FoFJK:  IHMeth= 1 ICntrl=     0 DoSepK=T KAlg= 1 I1Cent= 0 FoldK=F
 E= -1581.51370469574     Delta-E=       -0.000080957022 Rises=F Damp=F
 DIIS: error= 2.74D-04 at cycle   6 NSaved=   6.
 NSaved= 6 IEnMin= 6 EnMin= -1581.51370469574     IErMin= 6 ErrMin= 2.74D-04
 ErrMax= 2.74D-04 EMaxC= 1.00D-01 BMatC= 2.40D-05 BMatP= 7.73D-05
 IDIUse=3 WtCom= 9.97D-01 WtEn= 2.74D-03
 Coeff-Com:  0.214D-01-0.442D-01-0.322D-01-0.965D-02 0.403D+00 0.662D+00
 Coeff-En:   0.000D+00 0.000D+00 0.000D+00 0.000D+00 0.000D+00 0.100D+01
 Coeff:      0.213D-01-0.441D-01-0.321D-01-0.963D-02 0.402D+00 0.663D+00
 Gap=     0.264 Goal=   None    Shift=    0.000
 RMSDP=1.24D-05 MaxDP=8.05D-04 DE=-8.10D-05 OVMax= 1.57D-03

 Cycle   7  Pass 0  IDiag  1:
 RMSU=  5.50D-06    CP:  1.00D+00  1.68D+00  6.66D-01  8.34D-01  1.11D+00
                    CP:  8.85D-01
 FoFJK:  IHMeth= 1 ICntrl=     0 DoSepK=T KAlg= 1 I1Cent= 0 FoldK=F
 E= -1581.51373112280     Delta-E=       -0.000026427057 Rises=F Damp=F
 DIIS: error= 4.83D-05 at cycle   7 NSaved=   7.
 NSaved= 7 IEnMin= 7 EnMin= -1581.51373112280     IErMin= 7 ErrMin= 4.83D-05
 ErrMax= 4.83D-05 EMaxC= 1.00D-01 BMatC= 1.81D-06 BMatP= 2.40D-05
 IDIUse=1 WtCom= 1.00D+00 WtEn= 0.00D+00
 Coeff-Com:  0.944D-02-0.193D-01-0.167D-01-0.224D-01 0.601D-01 0.244D+00
 Coeff-Com:  0.745D+00
 Coeff:      0.944D-02-0.193D-01-0.167D-01-0.224D-01 0.601D-01 0.244D+00
 Coeff:      0.745D+00
 Gap=     0.264 Goal=   None    Shift=    0.000
 RMSDP=4.19D-06 MaxDP=1.98D-04 DE=-2.64D-05 OVMax= 6.99D-04

 Initial convergence to 1.0D-05 achieved.  Increase integral accuracy.
 Cycle   8  Pass 1  IDiag  1:
 FoFJK:  IHMeth= 1 ICntrl=     0 DoSepK=T KAlg= 1 I1Cent= 0 FoldK=F
 E= -1581.51139110087     Delta-E=        0.002340021926 Rises=F Damp=F
 DIIS: error= 1.18D-04 at cycle   1 NSaved=   1.
 NSaved= 1 IEnMin= 1 EnMin= -1581.51139110087     IErMin= 1 ErrMin= 1.18D-04
 ErrMax= 1.18D-04 EMaxC= 1.00D-01 BMatC= 1.38D-05 BMatP= 1.38D-05
 IDIUse=3 WtCom= 9.99D-01 WtEn= 1.18D-03
 Coeff-Com:  0.100D+01
 Coeff-En:   0.100D+01
 Coeff:      0.100D+01
 Gap=     0.264 Goal=   None    Shift=    0.000
 RMSDP=4.19D-06 MaxDP=1.98D-04 DE= 2.34D-03 OVMax= 3.98D-04

 Cycle   9  Pass 1  IDiag  1:
 RMSU=  2.16D-05    CP:  1.00D+00
 FoFJK:  IHMeth= 1 ICntrl=     0 DoSepK=T KAlg= 1 I1Cent= 0 FoldK=F
 E= -1581.51140216655     Delta-E=       -0.000011065681 Rises=F Damp=F
 DIIS: error= 3.78D-05 at cycle   2 NSaved=   2.
 NSaved= 2 IEnMin= 2 EnMin= -1581.51140216655     IErMin= 2 ErrMin= 3.78D-05
 ErrMax= 3.78D-05 EMaxC= 1.00D-01 BMatC= 9.49D-07 BMatP= 1.38D-05
 IDIUse=1 WtCom= 1.00D+00 WtEn= 0.00D+00
 Coeff-Com:  0.522D-01 0.948D+00
 Coeff:      0.522D-01 0.948D+00
 Gap=     0.264 Goal=   None    Shift=    0.000
 RMSDP=3.59D-06 MaxDP=2.46D-04 DE=-1.11D-05 OVMax= 4.13D-04

 Cycle  10  Pass 1  IDiag  1:
 RMSU=  2.31D-06    CP:  1.00D+00  1.05D+00
 FoFJK:  IHMeth= 1 ICntrl=     0 DoSepK=T KAlg= 1 I1Cent= 0 FoldK=F
 E= -1581.51140218018     Delta-E=       -0.000000013624 Rises=F Damp=F
 DIIS: error= 5.99D-05 at cycle   3 NSaved=   3.
 NSaved= 3 IEnMin= 3 EnMin= -1581.51140218018     IErMin= 2 ErrMin= 3.78D-05
 ErrMax= 5.99D-05 EMaxC= 1.00D-01 BMatC= 1.20D-06 BMatP= 9.49D-07
 IDIUse=1 WtCom= 1.00D+00 WtEn= 0.00D+00
 Coeff-Com: -0.377D-01 0.545D+00 0.493D+00
 Coeff:     -0.377D-01 0.545D+00 0.493D+00
 Gap=     0.264 Goal=   None    Shift=    0.000
 RMSDP=1.78D-06 MaxDP=1.68D-04 DE=-1.36D-08 OVMax= 1.71D-04

 Cycle  11  Pass 1  IDiag  1:
 RMSU=  6.86D-07    CP:  1.00D+00  1.06D+00  5.55D-01
 FoFJK:  IHMeth= 1 ICntrl=     0 DoSepK=T KAlg= 1 I1Cent= 0 FoldK=F
 E= -1581.51140316761     Delta-E=       -0.000000987436 Rises=F Damp=F
 DIIS: error= 9.54D-06 at cycle   4 NSaved=   4.
 NSaved= 4 IEnMin= 4 EnMin= -1581.51140316761     IErMin= 4 ErrMin= 9.54D-06
 ErrMax= 9.54D-06 EMaxC= 1.00D-01 BMatC= 2.69D-08 BMatP= 9.49D-07
 IDIUse=1 WtCom= 1.00D+00 WtEn= 0.00D+00
 Coeff-Com: -0.180D-01 0.146D+00 0.179D+00 0.693D+00
 Coeff:     -0.180D-01 0.146D+00 0.179D+00 0.693D+00
 Gap=     0.264 Goal=   None    Shift=    0.000
 RMSDP=3.57D-07 MaxDP=3.53D-05 DE=-9.87D-07 OVMax= 4.19D-05

 Cycle  12  Pass 1  IDiag  1:
 RMSU=  2.30D-07    CP:  1.00D+00  1.06D+00  5.99D-01  1.02D+00
 FoFJK:  IHMeth= 1 ICntrl=     0 DoSepK=T KAlg= 1 I1Cent= 0 FoldK=F
 E= -1581.51140319301     Delta-E=       -0.000000025398 Rises=F Damp=F
 DIIS: error= 4.10D-06 at cycle   5 NSaved=   5.
 NSaved= 5 IEnMin= 5 EnMin= -1581.51140319301     IErMin= 5 ErrMin= 4.10D-06
 ErrMax= 4.10D-06 EMaxC= 1.00D-01 BMatC= 5.05D-09 BMatP= 2.69D-08
 IDIUse=1 WtCom= 1.00D+00 WtEn= 0.00D+00
 Coeff-Com: -0.508D-03-0.334D-01-0.158D-01 0.284D+00 0.766D+00
 Coeff:     -0.508D-03-0.334D-01-0.158D-01 0.284D+00 0.766D+00
 Gap=     0.264 Goal=   None    Shift=    0.000
 RMSDP=1.91D-07 MaxDP=1.12D-05 DE=-2.54D-08 OVMax= 2.38D-05

 Cycle  13  Pass 1  IDiag  1:
 RMSU=  9.34D-08    CP:  1.00D+00  1.06D+00  6.08D-01  1.16D+00  9.71D-01
 FoFJK:  IHMeth= 1 ICntrl=     0 DoSepK=T KAlg= 1 I1Cent= 0 FoldK=F
 E= -1581.51140319961     Delta-E=       -0.000000006597 Rises=F Damp=F
 DIIS: error= 6.19D-07 at cycle   6 NSaved=   6.
 NSaved= 6 IEnMin= 6 EnMin= -1581.51140319961     IErMin= 6 ErrMin= 6.19D-07
 ErrMax= 6.19D-07 EMaxC= 1.00D-01 BMatC= 5.17D-10 BMatP= 5.05D-09
 IDIUse=1 WtCom= 1.00D+00 WtEn= 0.00D+00
 Coeff-Com:  0.175D-02-0.271D-01-0.271D-01 0.236D-01 0.268D+00 0.760D+00
 Coeff:      0.175D-02-0.271D-01-0.271D-01 0.236D-01 0.268D+00 0.760D+00
 Gap=     0.264 Goal=   None    Shift=    0.000
 RMSDP=7.51D-08 MaxDP=2.92D-06 DE=-6.60D-09 OVMax= 1.12D-05

 Cycle  14  Pass 1  IDiag  1:
 RMSU=  3.49D-08    CP:  1.00D+00  1.06D+00  6.10D-01  1.20D+00  1.07D+00
                    CP:  1.04D+00
 FoFJK:  IHMeth= 1 ICntrl=     0 DoSepK=T KAlg= 1 I1Cent= 0 FoldK=F
 E= -1581.51140320056     Delta-E=       -0.000000000952 Rises=F Damp=F
 DIIS: error= 2.95D-07 at cycle   7 NSaved=   7.
 NSaved= 7 IEnMin= 7 EnMin= -1581.51140320056     IErMin= 7 ErrMin= 2.95D-07
 ErrMax= 2.95D-07 EMaxC= 1.00D-01 BMatC= 8.65D-11 BMatP= 5.17D-10
 IDIUse=1 WtCom= 1.00D+00 WtEn= 0.00D+00
 Coeff-Com:  0.693D-03-0.415D-02-0.808D-02-0.409D-01-0.346D-01 0.257D+00
 Coeff-Com:  0.830D+00
 Coeff:      0.693D-03-0.415D-02-0.808D-02-0.409D-01-0.346D-01 0.257D+00
 Coeff:      0.830D+00
 Gap=     0.264 Goal=   None    Shift=    0.000
 RMSDP=3.97D-08 MaxDP=1.55D-06 DE=-9.52D-10 OVMax= 6.30D-06

 Cycle  15  Pass 1  IDiag  1:
 RMSU=  1.40D-08    CP:  1.00D+00  1.06D+00  6.12D-01  1.22D+00  1.11D+00
                    CP:  1.22D+00  1.12D+00
 FoFJK:  IHMeth= 1 ICntrl=     0 DoSepK=T KAlg= 1 I1Cent= 0 FoldK=F
 E= -1581.51140320077     Delta-E=       -0.000000000205 Rises=F Damp=F
 DIIS: error= 1.38D-07 at cycle   8 NSaved=   8.
 NSaved= 8 IEnMin= 8 EnMin= -1581.51140320077     IErMin= 8 ErrMin= 1.38D-07
 ErrMax= 1.38D-07 EMaxC= 1.00D-01 BMatC= 1.77D-11 BMatP= 8.65D-11
 IDIUse=1 WtCom= 1.00D+00 WtEn= 0.00D+00
 Coeff-Com:  0.143D-04 0.276D-02 0.916D-03-0.199D-01-0.560D-01-0.191D-01
 Coeff-Com:  0.346D+00 0.745D+00
 Coeff:      0.143D-04 0.276D-02 0.916D-03-0.199D-01-0.560D-01-0.191D-01
 Coeff:      0.346D+00 0.745D+00
 Gap=     0.264 Goal=   None    Shift=    0.000
 RMSDP=1.55D-08 MaxDP=6.04D-07 DE=-2.05D-10 OVMax= 2.93D-06

 Cycle  16  Pass 1  IDiag  1:
 RMSU=  5.87D-09    CP:  1.00D+00  1.06D+00  6.12D-01  1.23D+00  1.13D+00
                    CP:  1.27D+00  1.29D+00  9.99D-01
 FoFJK:  IHMeth= 1 ICntrl=     0 DoSepK=T KAlg= 1 I1Cent= 0 FoldK=F
 E= -1581.51140320078     Delta-E=       -0.000000000018 Rises=F Damp=F
 DIIS: error= 5.87D-08 at cycle   9 NSaved=   9.
 NSaved= 9 IEnMin= 9 EnMin= -1581.51140320078     IErMin= 9 ErrMin= 5.87D-08
 ErrMax= 5.87D-08 EMaxC= 1.00D-01 BMatC= 2.22D-12 BMatP= 1.77D-11
 IDIUse=1 WtCom= 1.00D+00 WtEn= 0.00D+00
 Coeff-Com: -0.126D-03 0.166D-02 0.174D-02 0.133D-02-0.122D-01-0.560D-01
 Coeff-Com: -0.422D-01 0.220D+00 0.886D+00
 Coeff:     -0.126D-03 0.166D-02 0.174D-02 0.133D-02-0.122D-01-0.560D-01
 Coeff:     -0.422D-01 0.220D+00 0.886D+00
 Gap=     0.264 Goal=   None    Shift=    0.000
 RMSDP=7.32D-09 MaxDP=2.71D-07 DE=-1.82D-11 OVMax= 1.26D-06

 SCF Done:  E(RwB97XD) =  -1581.51140320     A.U. after   16 cycles
             Convg  =    0.7322D-08             -V/T =  2.0109
 KE= 1.564457622821D+03 PE=-1.115348536983D+04 EE= 4.265480104780D+03
 Leave Link  502 at Wed Apr  8 22:22:53 2020, MaxMem= 2684354560 cpu:     921.8
 (Enter /opt/g09gh/gaussian/g09/l601.exe)
 Copying SCF densities to generalized density rwf, IOpCl= 0 IROHF=0.

 **********************************************************************

            Population analysis using the SCF density.

 **********************************************************************

 Orbital symmetries:
       Occupied  (A) (A) (A) (A) (A) (A) (A) (A) (A) (A) (A) (A)
                 (A) (A) (A) (A) (A) (A) (A) (A) (A) (A) (A) (A)
                 (A) (A) (A) (A) (A) (A) (A) (A) (A) (A) (A) (A)
                 (A) (A) (A) (A) (A) (A) (A) (A) (A) (A) (A) (A)
                 (A) (A) (A) (A) (A) (A) (A) (A) (A) (A) (A) (A)
                 (A) (A) (A) (A) (A) (A) (A) (A) (A) (A) (A) (A)
                 (A) (A) (A) (A) (A) (A) (A) (A) (A) (A) (A) (A)
                 (A) (A) (A) (A) (A) (A) (A) (A) (A) (A) (A) (A)
                 (A) (A) (A) (A) (A) (A) (A) (A) (A) (A) (A) (A)
                 (A) (A) (A) (A) (A) (A) (A) (A) (A) (A) (A) (A)
                 (A) (A) (A) (A) (A) (A) (A) (A) (A) (A) (A)
       Virtual   (A) (A) (A) (A) (A) (A) (A) (A) (A) (A) (A) (A)
                 (A) (A) (A) (A) (A) (A) (A) (A) (A) (A) (A) (A)
                 (A) (A) (A) (A) (A) (A) (A) (A) (A) (A) (A) (A)
                 (A) (A) (A) (A) (A) (A) (A) (A) (A) (A) (A) (A)
                 (A) (A) (A) (A) (A) (A) (A) (A) (A) (A) (A) (A)
                 (A) (A) (A) (A) (A) (A) (A) (A) (A) (A) (A) (A)
                 (A) (A) (A) (A) (A) (A) (A) (A) (A) (A) (A) (A)
                 (A) (A) (A) (A) (A) (A) (A) (A) (A) (A) (A) (A)
                 (A) (A) (A) (A) (A) (A) (A) (A) (A) (A) (A) (A)
                 (A) (A) (A) (A) (A) (A) (A) (A) (A) (A) (A) (A)
                 (A) (A) (A) (A) (A) (A) (A) (A) (A) (A) (A) (A)
                 (A) (A) (A) (A) (A) (A) (A) (A) (A) (A) (A) (A)
                 (A) (A) (A) (A) (A) (A) (A) (A) (A) (A) (A) (A)
                 (A) (A) (A) (A) (A) (A) (A) (A) (A) (A) (A) (A)
                 (A) (A) (A) (A) (A) (A) (A) (A) (A) (A) (A) (A)
                 (A) (A) (A) (A) (A) (A) (A) (A) (A) (A) (A) (A)
                 (A) (A) (A) (A) (A) (A) (A) (A) (A) (A) (A) (A)
                 (A) (A) (A) (A) (A) (A) (A) (A) (A) (A) (A) (A)
                 (A) (A) (A) (A) (A) (A) (A) (A) (A) (A) (A) (A)
                 (A) (A) (A) (A) (A) (A) (A) (A) (A) (A) (A) (A)
                 (A) (A) (A) (A) (A) (A) (A) (A) (A) (A) (A) (A)
                 (A) (A) (A) (A) (A) (A) (A) (A) (A) (A) (A) (A)
                 (A) (A) (A) (A) (A) (A) (A) (A) (A) (A) (A) (A)
                 (A) (A) (A) (A) (A) (A) (A) (A) (A) (A) (A) (A)
                 (A) (A) (A) (A) (A) (A) (A) (A) (A) (A) (A) (A)
                 (A) (A) (A) (A) (A) (A) (A) (A) (A) (A) (A) (A)
                 (A) (A) (A) (A) (A) (A) (A) (A) (A) (A) (A) (A)
                 (A) (A) (A) (A) (A) (A) (A) (A) (A) (A) (A) (A)
                 (A) (A) (A) (A) (A) (A) (A) (A) (A) (A) (A) (A)
                 (A) (A) (A) (A) (A) (A) (A) (A) (A) (A) (A) (A)
                 (A) (A) (A) (A) (A) (A) (A) (A) (A) (A) (A) (A)
                 (A) (A) (A) (A) (A) (A) (A) (A) (A) (A) (A) (A)
                 (A) (A) (A) (A) (A) (A) (A) (A) (A) (A) (A) (A)
                 (A) (A) (A) (A) (A) (A) (A) (A) (A) (A) (A) (A)
                 (A) (A) (A) (A) (A) (A) (A) (A) (A) (A) (A) (A)
                 (A) (A) (A) (A) (A) (A) (A) (A) (A) (A) (A) (A)
                 (A) (A) (A) (A) (A) (A) (A) (A) (A) (A) (A) (A)
                 (A) (A) (A) (A) (A) (A) (A) (A) (A) (A) (A) (A)
                 (A) (A) (A) (A) (A) (A) (A) (A) (A) (A) (A) (A)
                 (A) (A) (A) (A) (A) (A) (A) (A) (A) (A) (A) (A)
                 (A) (A) (A) (A) (A) (A)
 The electronic state is 1-A.
 Alpha  occ. eigenvalues --  -19.23130 -14.48901 -14.48436 -14.46578 -14.45389
 Alpha  occ. eigenvalues --  -14.45084 -14.44946 -14.44572 -10.41348 -10.40527
 Alpha  occ. eigenvalues --  -10.37361 -10.36611 -10.35917 -10.35743 -10.35625
 Alpha  occ. eigenvalues --  -10.35447 -10.35405 -10.34537 -10.34239 -10.34054
 Alpha  occ. eigenvalues --  -10.33646 -10.33193 -10.32961 -10.31981 -10.31891
 Alpha  occ. eigenvalues --  -10.31781 -10.31735 -10.31714 -10.31389 -10.31310
 Alpha  occ. eigenvalues --  -10.30960 -10.30859 -10.30816 -10.30567 -10.30482
 Alpha  occ. eigenvalues --  -10.30297 -10.28913  -1.13413  -1.10788  -1.04231
 Alpha  occ. eigenvalues --   -1.03451  -1.03303  -1.02644  -0.99456  -0.99259
 Alpha  occ. eigenvalues --   -0.96172  -0.94486  -0.91409  -0.88641  -0.87934
 Alpha  occ. eigenvalues --   -0.86459  -0.86001  -0.85062  -0.83769  -0.83708
 Alpha  occ. eigenvalues --   -0.81935  -0.79410  -0.77818  -0.76916  -0.75514
 Alpha  occ. eigenvalues --   -0.72841  -0.72339  -0.71962  -0.71445  -0.70653
 Alpha  occ. eigenvalues --   -0.70146  -0.69301  -0.68119  -0.66394  -0.64352
 Alpha  occ. eigenvalues --   -0.63138  -0.62046  -0.61082  -0.60851  -0.59436
 Alpha  occ. eigenvalues --   -0.58502  -0.57913  -0.56581  -0.56367  -0.55784
 Alpha  occ. eigenvalues --   -0.55701  -0.55195  -0.54392  -0.54052  -0.53892
 Alpha  occ. eigenvalues --   -0.53295  -0.52821  -0.52644  -0.52386  -0.51317
 Alpha  occ. eigenvalues --   -0.51035  -0.50806  -0.50707  -0.50567  -0.49962
 Alpha  occ. eigenvalues --   -0.49622  -0.49434  -0.48955  -0.48616  -0.48319
 Alpha  occ. eigenvalues --   -0.47476  -0.47018  -0.46130  -0.45835  -0.45297
 Alpha  occ. eigenvalues --   -0.45021  -0.44663  -0.44326  -0.43894  -0.43573
 Alpha  occ. eigenvalues --   -0.43549  -0.42564  -0.42164  -0.40643  -0.40332
 Alpha  occ. eigenvalues --   -0.39428  -0.37725  -0.36793  -0.36008  -0.35566
 Alpha  occ. eigenvalues --   -0.34689  -0.34261  -0.33768  -0.33134  -0.32589
 Alpha  occ. eigenvalues --   -0.32350  -0.31984  -0.31075  -0.29828  -0.27621
 Alpha  occ. eigenvalues --   -0.26017
 Alpha virt. eigenvalues --    0.00368   0.02970   0.03978   0.05300   0.05761
 Alpha virt. eigenvalues --    0.07175   0.07897   0.08145   0.09954   0.10371
 Alpha virt. eigenvalues --    0.12213   0.13097   0.13907   0.15973   0.16479
 Alpha virt. eigenvalues --    0.17053   0.17179   0.18252   0.19033   0.19758
 Alpha virt. eigenvalues --    0.19920   0.20555   0.20903   0.21458   0.22170
 Alpha virt. eigenvalues --    0.22409   0.23151   0.23257   0.23639   0.23871
 Alpha virt. eigenvalues --    0.24128   0.24355   0.24758   0.24865   0.25381
 Alpha virt. eigenvalues --    0.25594   0.26063   0.26266   0.26482   0.26862
 Alpha virt. eigenvalues --    0.27773   0.27861   0.28434   0.28546   0.29009
 Alpha virt. eigenvalues --    0.29349   0.29522   0.30084   0.30451   0.31022
 Alpha virt. eigenvalues --    0.31417   0.32353   0.32808   0.33015   0.33880
 Alpha virt. eigenvalues --    0.34396   0.35427   0.36244   0.36526   0.38072
 Alpha virt. eigenvalues --    0.38361   0.38740   0.39256   0.39687   0.39874
 Alpha virt. eigenvalues --    0.40120   0.40709   0.40872   0.41604   0.42854
 Alpha virt. eigenvalues --    0.43643   0.44889   0.46425   0.47192   0.47929
 Alpha virt. eigenvalues --    0.48633   0.50615   0.51221   0.52969   0.54045
 Alpha virt. eigenvalues --    0.55386   0.56635   0.56888   0.58154   0.58323
 Alpha virt. eigenvalues --    0.59005   0.59325   0.59558   0.59658   0.60366
 Alpha virt. eigenvalues --    0.60583   0.61010   0.61437   0.61817   0.62191
 Alpha virt. eigenvalues --    0.62295   0.62942   0.63007   0.64089   0.64234
 Alpha virt. eigenvalues --    0.64466   0.64943   0.65213   0.65539   0.65940
 Alpha virt. eigenvalues --    0.66232   0.66410   0.66602   0.66725   0.67071
 Alpha virt. eigenvalues --    0.67336   0.67874   0.67938   0.68431   0.68822
 Alpha virt. eigenvalues --    0.69133   0.69165   0.69340   0.70149   0.70430
 Alpha virt. eigenvalues --    0.70917   0.71185   0.71438   0.71699   0.71996
 Alpha virt. eigenvalues --    0.72522   0.72913   0.72934   0.73677   0.73872
 Alpha virt. eigenvalues --    0.74907   0.75554   0.76475   0.76913   0.77511
 Alpha virt. eigenvalues --    0.77589   0.77937   0.78444   0.79331   0.79779
 Alpha virt. eigenvalues --    0.80821   0.81096   0.81800   0.82080   0.82348
 Alpha virt. eigenvalues --    0.83696   0.83918   0.84535   0.85254   0.85433
 Alpha virt. eigenvalues --    0.86977   0.87494   0.88110   0.88433   0.88571
 Alpha virt. eigenvalues --    0.88666   0.89264   0.89907   0.90265   0.90845
 Alpha virt. eigenvalues --    0.91354   0.92014   0.92411   0.92480   0.93418
 Alpha virt. eigenvalues --    0.93508   0.93879   0.94069   0.94367   0.94437
 Alpha virt. eigenvalues --    0.95241   0.95561   0.95989   0.96360   0.96673
 Alpha virt. eigenvalues --    0.97056   0.97542   0.97710   0.98476   0.98835
 Alpha virt. eigenvalues --    0.99085   0.99410   1.00154   1.00307   1.00615
 Alpha virt. eigenvalues --    1.01104   1.01430   1.01840   1.02450   1.02643
 Alpha virt. eigenvalues --    1.03684   1.03856   1.03944   1.04868   1.05119
[...]
                 (A) (A) (A) (A) (A) (A) (A) (A) (A) (A) (A) (A)
                 (A) (A) (A) (A) (A) (A) (A) (A) (A) (A) (A) (A)
                 (A) (A) (A) (A) (A) (A) (A) (A) (A) (A) (A) (A)
                 (A) (A) (A) (A) (A) (A) (A) (A) (A) (A) (A) (A)
                 (A) (A) (A) (A) (A) (A) (A) (A) (A) (A) (A) (A)
                 (A) (A) (A) (A) (A) (A) (A) (A) (A) (A) (A) (A)
                 (A) (A) (A) (A) (A) (A) (A) (A) (A) (A) (A) (A)
                 (A) (A) (A) (A) (A) (A) (A) (A) (A) (A) (A) (A)
                 (A) (A) (A) (A) (A) (A) (A) (A) (A) (A) (A) (A)
                 (A) (A) (A) (A) (A) (A) (A) (A) (A) (A) (A) (A)
                 (A) (A) (A) (A) (A) (A) (A) (A) (A) (A) (A) (A)
                 (A) (A) (A) (A) (A) (A) (A) (A) (A) (A) (A) (A)
                 (A) (A) (A) (A) (A) (A) (A) (A) (A) (A) (A) (A)
                 (A) (A) (A) (A) (A) (A) (A) (A) (A) (A) (A) (A)
                 (A) (A) (A) (A) (A) (A) (A) (A) (A) (A) (A) (A)
                 (A) (A) (A) (A) (A) (A) (A) (A) (A) (A) (A) (A)
                 (A) (A) (A) (A) (A) (A) (A) (A) (A) (A) (A) (A)
                 (A) (A) (A) (A) (A) (A) (A) (A) (A) (A) (A) (A)
                 (A) (A) (A) (A) (A) (A) (A) (A) (A) (A) (A) (A)
                 (A) (A) (A) (A) (A) (A) (A) (A) (A) (A) (A) (A)
                 (A) (A) (A) (A) (A) (A) (A) (A) (A) (A) (A) (A)
                 (A) (A) (A) (A) (A) (A) (A) (A) (A) (A) (A) (A)
                 (A) (A) (A) (A) (A) (A) (A) (A) (A) (A) (A) (A)
                 (A) (A) (A) (A) (A) (A) (A) (A) (A) (A) (A) (A)
                 (A) (A) (A) (A) (A) (A) (A) (A) (A) (A) (A) (A)
                 (A) (A) (A) (A) (A) (A) (A) (A) (A) (A) (A) (A)
                 (A) (A) (A) (A) (A) (A) (A) (A) (A) (A) (A) (A)
                 (A) (A) (A) (A) (A) (A) (A) (A) (A) (A) (A) (A)
                 (A) (A) (A) (A) (A) (A) (A) (A) (A) (A) (A) (A)
                 (A) (A) (A) (A) (A) (A) (A) (A) (A) (A) (A) (A)
                 (A) (A) (A) (A) (A) (A) (A) (A) (A) (A) (A) (A)
                 (A) (A) (A) (A) (A) (A) (A) (A) (A) (A) (A) (A)
                 (A) (A) (A) (A) (A) (A)
 The electronic state is 1-A.
 Alpha  occ. eigenvalues --  -19.23377 -14.48552 -14.48468 -14.45115 -14.44842
 Alpha  occ. eigenvalues --  -14.44787 -14.43532 -14.43020 -10.40818 -10.40262
 Alpha  occ. eigenvalues --  -10.36403 -10.35301 -10.34287 -10.33906 -10.33675
 Alpha  occ. eigenvalues --  -10.32778 -10.32555 -10.32362 -10.31864 -10.31256
 Alpha  occ. eigenvalues --  -10.31240 -10.31238 -10.31173 -10.31010 -10.30775
 Alpha  occ. eigenvalues --  -10.30733 -10.30607 -10.30548 -10.30465 -10.30461
 Alpha  occ. eigenvalues --  -10.30441 -10.30001 -10.29991 -10.29848 -10.29773
 Alpha  occ. eigenvalues --  -10.29346 -10.27996  -1.13681  -1.11288  -1.04530
 Alpha  occ. eigenvalues --   -1.03809  -1.03766  -1.03257  -0.99603  -0.99474
 Alpha  occ. eigenvalues --   -0.96093  -0.94534  -0.91748  -0.88735  -0.87815
 Alpha  occ. eigenvalues --   -0.86317  -0.85945  -0.85315  -0.84579  -0.83490
 Alpha  occ. eigenvalues --   -0.81819  -0.79358  -0.77707  -0.76912  -0.75817
 Alpha  occ. eigenvalues --   -0.73181  -0.72843  -0.72334  -0.71501  -0.70456
 Alpha  occ. eigenvalues --   -0.70055  -0.69293  -0.67888  -0.66288  -0.64704
 Alpha  occ. eigenvalues --   -0.63584  -0.63228  -0.61658  -0.60759  -0.59546
 Alpha  occ. eigenvalues --   -0.58086  -0.57788  -0.56630  -0.56273  -0.55833
 Alpha  occ. eigenvalues --   -0.55187  -0.54912  -0.54769  -0.54137  -0.53932
 Alpha  occ. eigenvalues --   -0.53731  -0.53280  -0.53157  -0.52567  -0.51924
 Alpha  occ. eigenvalues --   -0.51275  -0.51059  -0.50711  -0.50521  -0.49982
 Alpha  occ. eigenvalues --   -0.49938  -0.49440  -0.48906  -0.48707  -0.48223
 Alpha  occ. eigenvalues --   -0.47514  -0.46661  -0.46243  -0.46000  -0.45509
 Alpha  occ. eigenvalues --   -0.45051  -0.44713  -0.44487  -0.44049  -0.43818
 Alpha  occ. eigenvalues --   -0.43432  -0.42479  -0.42164  -0.41394  -0.40873
 Alpha  occ. eigenvalues --   -0.40801  -0.40500  -0.39159  -0.37133  -0.36320
 Alpha  occ. eigenvalues --   -0.34618  -0.33991  -0.33691  -0.32950  -0.32639
 Alpha  occ. eigenvalues --   -0.32347  -0.31715  -0.30724  -0.29242  -0.26887
 Alpha  occ. eigenvalues --   -0.24903
 Alpha virt. eigenvalues --    0.01191   0.03354   0.04562   0.05390   0.06436
 Alpha virt. eigenvalues --    0.08131   0.08423   0.10934   0.14112   0.15608
 Alpha virt. eigenvalues --    0.16542   0.17037   0.17723   0.18052   0.19069
 Alpha virt. eigenvalues --    0.19299   0.19842   0.20279   0.21110   0.21731
 Alpha virt. eigenvalues --    0.22239   0.22665   0.22762   0.23269   0.23278
 Alpha virt. eigenvalues --    0.23708   0.24059   0.24423   0.24810   0.25041
 Alpha virt. eigenvalues --    0.25408   0.25484   0.25961   0.26202   0.26888
 Alpha virt. eigenvalues --    0.26938   0.27295   0.27786   0.27848   0.28394
 Alpha virt. eigenvalues --    0.28825   0.29079   0.29536   0.29984   0.30859
 Alpha virt. eigenvalues --    0.31111   0.31675   0.31946   0.32430   0.32850
 Alpha virt. eigenvalues --    0.33271   0.34192   0.34410   0.34654   0.34814
 Alpha virt. eigenvalues --    0.35707   0.36535   0.37568   0.38151   0.38548
 Alpha virt. eigenvalues --    0.39314   0.39430   0.39663   0.40422   0.40938
 Alpha virt. eigenvalues --    0.41237   0.41436   0.42135   0.42521   0.44291
 Alpha virt. eigenvalues --    0.44680   0.45879   0.46257   0.47497   0.48582
 Alpha virt. eigenvalues --    0.49765   0.51023   0.52085   0.53242   0.55157
 Alpha virt. eigenvalues --    0.56489   0.56913   0.57724   0.58304   0.58779
 Alpha virt. eigenvalues --    0.60105   0.60268   0.60643   0.61105   0.61350
 Alpha virt. eigenvalues --    0.61486   0.61598   0.62098   0.62492   0.62577
 Alpha virt. eigenvalues --    0.63153   0.64100   0.64602   0.64748   0.64850
 Alpha virt. eigenvalues --    0.65227   0.65658   0.66061   0.66313   0.66667
 Alpha virt. eigenvalues --    0.66864   0.67189   0.67315   0.67461   0.67694
 Alpha virt. eigenvalues --    0.68341   0.68431   0.68925   0.69305   0.69839
 Alpha virt. eigenvalues --    0.70408   0.70649   0.70861   0.71073   0.71263
 Alpha virt. eigenvalues --    0.71595   0.72301   0.72435   0.72865   0.72947
 Alpha virt. eigenvalues --    0.73512   0.73982   0.74496   0.75572   0.75896
 Alpha virt. eigenvalues --    0.76181   0.76352   0.76835   0.77240   0.78291
 Alpha virt. eigenvalues --    0.78829   0.79292   0.80099   0.80374   0.81672
 Alpha virt. eigenvalues --    0.81885   0.82889   0.83186   0.83944   0.84441
 Alpha virt. eigenvalues --    0.84748   0.85271   0.85936   0.87635   0.89170
 Alpha virt. eigenvalues --    0.89372   0.89786   0.90426   0.90510   0.90877
 Alpha virt. eigenvalues --    0.91038   0.91292   0.91881   0.92086   0.92461
 Alpha virt. eigenvalues --    0.92745   0.92857   0.93623   0.94142   0.94173
 Alpha virt. eigenvalues --    0.94470   0.94650   0.95259   0.95619   0.95719
 Alpha virt. eigenvalues --    0.96431   0.96595   0.97124   0.97702   0.97880
 Alpha virt. eigenvalues --    0.98287   0.98523   0.99371   0.99539   1.00184
 Alpha virt. eigenvalues --    1.00259   1.00933   1.01199   1.01568   1.01845
 Alpha virt. eigenvalues --    1.02904   1.03137   1.03327   1.04125   1.04621
 Alpha virt. eigenvalues --    1.05246   1.05905   1.06118   1.06604   1.06780
 Alpha virt. eigenvalues --    1.07383   1.08138   1.08778   1.09050   1.09458
 Alpha virt. eigenvalues --    1.09810   1.10787   1.11435   1.11655   1.12112
 Alpha virt. eigenvalues --    1.12970   1.13316   1.14462   1.15432   1.16032
 Alpha virt. eigenvalues --    1.16967   1.17312   1.17502   1.19493   1.20500
 Alpha virt. eigenvalues --    1.21803   1.22184   1.23425   1.24784   1.25301
 Alpha virt. eigenvalues --    1.25707   1.26716   1.27190   1.27632   1.28024
 Alpha virt. eigenvalues --    1.29454   1.30256   1.30567   1.31114   1.31711
 Alpha virt. eigenvalues --    1.32442   1.33389   1.34289   1.34480   1.35109
 Alpha virt. eigenvalues --    1.36628   1.36981   1.38181   1.39323   1.39895
 Alpha virt. eigenvalues --    1.41621   1.42872   1.43652   1.44334   1.45156
 Alpha virt. eigenvalues --    1.46117   1.47505   1.48132   1.48702   1.49136
 Alpha virt. eigenvalues --    1.49874   1.50255   1.50468   1.51049   1.52081
 Alpha virt. eigenvalues --    1.52842   1.54062   1.54847   1.54878   1.55304
 Alpha virt. eigenvalues --    1.56143   1.56630   1.56928   1.57435   1.57666
 Alpha virt. eigenvalues --    1.58467   1.58761   1.59066   1.59890   1.60045
 Alpha virt. eigenvalues --    1.60941   1.61102   1.61580   1.62456   1.62963
 Alpha virt. eigenvalues --    1.64668   1.66173   1.66902   1.67055   1.67844
 Alpha virt. eigenvalues --    1.69597   1.70085   1.74167   1.74484   1.77507
 Alpha virt. eigenvalues --    1.80142   1.80952   1.82235   1.82384   1.84976
 Alpha virt. eigenvalues --    1.85348   1.86244   1.87149   1.87908   1.88445
 Alpha virt. eigenvalues --    1.89103   1.89652   1.89787   1.91143   1.91677
 Alpha virt. eigenvalues --    1.91787   1.92768   1.93654   1.94534   1.94720
 Alpha virt. eigenvalues --    1.94816   1.95408   1.96697   1.97435   1.97918
 Alpha virt. eigenvalues --    1.99706   2.00151   2.00231   2.00786   2.00855
 Alpha virt. eigenvalues --    2.01225   2.02456   2.03198   2.03864   2.04732
 Alpha virt. eigenvalues --    2.05302   2.06694   2.06930   2.07459   2.08193
 Alpha virt. eigenvalues --    2.08378   2.09241   2.09665   2.10537   2.11500
 Alpha virt. eigenvalues --    2.12165   2.13235   2.13595   2.14289   2.15993
 Alpha virt. eigenvalues --    2.17398   2.17570   2.18047   2.18874   2.20601
 Alpha virt. eigenvalues --    2.21148   2.21434   2.21878   2.22721   2.23111
 Alpha virt. eigenvalues --    2.23756   2.24441   2.24522   2.25184   2.25490
 Alpha virt. eigenvalues --    2.25745   2.26501   2.26865   2.27635   2.28287
 Alpha virt. eigenvalues --    2.29319   2.29982   2.30948   2.32010   2.33119
 Alpha virt. eigenvalues --    2.34471   2.35664   2.35991   2.37007   2.37448
 Alpha virt. eigenvalues --    2.38623   2.39059   2.39308   2.39795   2.40249
 Alpha virt. eigenvalues --    2.40406   2.41711   2.42399   2.43311   2.43483
 Alpha virt. eigenvalues --    2.43735   2.44429   2.44593   2.45671   2.45942
 Alpha virt. eigenvalues --    2.46700   2.47893   2.48202   2.49036   2.49681
 Alpha virt. eigenvalues --    2.50299   2.51061   2.52369   2.54654   2.56687
 Alpha virt. eigenvalues --    2.57967   2.60143   2.61031   2.62773   2.64287
 Alpha virt. eigenvalues --    2.65481   2.66361   2.66532   2.67569   2.69062
 Alpha virt. eigenvalues --    2.69646   2.70562   2.71790   2.72657   2.74033
 Alpha virt. eigenvalues --    2.74273   2.74731   2.75707   2.76437   2.77350
 Alpha virt. eigenvalues --    2.77863   2.78569   2.78906   2.80707   2.81500
 Alpha virt. eigenvalues --    2.83609   2.84194   2.84241   2.85339   2.85905
 Alpha virt. eigenvalues --    2.85982   2.86833   2.88343   2.88455   2.89365
 Alpha virt. eigenvalues --    2.90342   2.92148   2.92956   2.93951   2.94197
 Alpha virt. eigenvalues --    2.95346   2.95755   2.98058   3.01632   3.03626
 Alpha virt. eigenvalues --    3.04298   3.06698   3.09429   3.10774   3.15798
 Alpha virt. eigenvalues --    3.21093   3.27932   3.30586   3.35707   3.42745
 Alpha virt. eigenvalues --    3.46341   3.53470   3.57035   3.57632   4.12742
 Alpha virt. eigenvalues --    4.14937   4.15809   4.16957   4.17165   4.18364
 Alpha virt. eigenvalues --    4.20223   4.21019   4.21661   4.24243   4.25537
 Alpha virt. eigenvalues --    4.26002   4.27678   4.29446   4.31648   4.33505
 Alpha virt. eigenvalues --    4.34076   4.34101   4.39159   4.40277   4.41156
 Alpha virt. eigenvalues --    4.42623   4.45692   4.46635   4.48392   4.49765
 Alpha virt. eigenvalues --    4.50736   4.52923   4.56920   4.60496   4.63182
 Alpha virt. eigenvalues --    4.64226   4.67843   4.67949   4.80103   4.85314
 Alpha virt. eigenvalues --    4.90077
          Condensed to atoms (all electrons):
 Mulliken atomic charges:
              1
     1  C   -0.204143
     2  C   -0.154253
     3  C    0.032749
     4  C   -0.000627
     5  N   -0.442086
     6  C    0.036362
     7  C    0.281278
     8  C   -0.254695
     9  C    0.049585
    10  N   -0.499688
    11  C    0.715920
    12  N   -0.550433
    13  N   -0.810331
    14  C    0.278824
    15  C    0.119379
    16  C   -0.233159
    17  C   -0.216128
    18  C    0.321567
    19  C   -0.184560
    20  N   -0.757417
    21  C    0.587440
    22  C    0.017484
    23  C   -0.208011
    24  C   -0.221619
    25  C    0.161189
    26  C   -0.236069
    27  C   -0.176398
    28  C   -0.264320
    29  N   -0.380818
    30  C   -0.184653
    31  C   -0.180938
    32  N   -0.384908
    33  C   -0.349685
    34  C   -0.183579
    35  C   -0.186006
    36  O   -0.512486
    37  C   -0.608557
    38  H    0.178762
    39  H    0.180276
    40  H    0.251564
    41  H    0.174084
    42  H    0.179228
    43  H    0.185239
    44  H    0.367384
    45  H    0.157622
    46  H    0.156288
    47  H    0.242193
    48  H    0.356526
    49  H    0.164768
    50  H    0.161219
    51  H    0.165063
    52  H    0.234838
    53  H    0.168171
    54  H    0.171308
    55  H    0.150897
    56  H    0.159752
    57  H    0.151050
    58  H    0.166748
    59  H    0.135263
    60  H    0.166342
    61  H    0.167001
    62  H    0.152072
    63  H    0.173567
    64  H    0.159181
    65  H    0.153380
    66  H    0.181627
    67  H    0.185222
    68  H    0.187156
 Sum of Mulliken atomic charges =   0.00000
 Mulliken charges with hydrogens summed into heavy atoms:
              1
     1  C   -0.025381
     2  C    0.026023
     3  C    0.032749
     4  C    0.250937
     5  N   -0.442086
     6  C    0.210446
     7  C    0.281278
     8  C   -0.075467
     9  C    0.234824
    10  N   -0.499688
    11  C    0.715920
    12  N   -0.550433
    13  N   -0.442948
    14  C    0.278824
    15  C    0.119379
    16  C   -0.075536
    17  C   -0.059840
    18  C    0.321567
    19  C    0.057632
    20  N   -0.400891
    21  C    0.587440
    22  C    0.017484
    23  C   -0.043242
    24  C   -0.060399
    25  C    0.161189
    26  C   -0.071006
    27  C    0.058440
    28  C    0.075160
    29  N   -0.380818
    30  C    0.125996
    31  C    0.136860
    32  N   -0.384908
    33  C    0.118921
    34  C    0.142060
    35  C    0.126555
    36  O   -0.512486
    37  C   -0.054553
 Sum of Mulliken charges with hydrogens summed into heavy atoms =   0.00000
 Electronic spatial extent (au):  <R**2>=          23907.6389
 Charge=              0.0000 electrons
 Dipole moment (field-independent basis, Debye):
    X=              0.2187    Y=              0.4234    Z=              2.4293  Tot=              2.4756
 Quadrupole moment (field-independent basis, Debye-Ang):
   XX=           -193.8260   YY=           -175.0850   ZZ=           -224.9466
   XY=             -7.9397   XZ=             -5.0307   YZ=              1.2727
 Traceless Quadrupole moment (field-independent basis, Debye-Ang):
   XX=              4.1265   YY=             22.8676   ZZ=            -26.9941
   XY=             -7.9397   XZ=             -5.0307   YZ=              1.2727
 Octapole moment (field-independent basis, Debye-Ang**2):
  XXX=            -82.3194  YYY=             43.1163  ZZZ=             14.5388  XYY=            -50.1564
  XXY=              9.0181  XXZ=             39.1045  XZZ=             21.9931  YZZ=              3.4130
  YYZ=             33.0948  XYZ=              6.4835
 Hexadecapole moment (field-independent basis, Debye-Ang**3):
 XXXX=         -22819.4706 YYYY=          -6560.5768 ZZZZ=          -2056.4979 XXXY=           -194.3610
 XXXZ=            159.3802 YYYX=           -103.6028 YYYZ=             57.8593 ZZZX=             55.7196
 ZZZY=             -3.0395 XXYY=          -4434.5509 XXZZ=          -4156.2387 YYZZ=          -1613.3723
 XXYZ=            -21.1877 YYXZ=           -111.0722 ZZXY=             16.3029
 N-N= 3.814837208874D+03 E-N=-1.130247345039D+04  KE= 1.567146798354D+03
 No NMR shielding tensors so no spin-rotation constants.
 Leave Link  601 at Wed Apr  8 23:57:14 2020, MaxMem= 2684354560 cpu:       2.8
 (Enter /opt/g09gh/gaussian/g09/l9999.exe)
 1\1\GINC-NODE40\FOpt\RwB97XD\6-31G(d)\C29H31N7O1\BDW2292\08-Apr-2020\0
 \\#P opt=(,maxcycle=400) wB97XD/6-31G* MaxDisk=100GB\\MOLECULE0 Rotata
 ble Bond Optimization on node37.bme.utexas.edu\\0,1\C,-2.0615444402,-6
 .2529987625,5.0161591525\C,-0.689637185,-6.4673005543,5.0136158873\C,0
 .0432568524,-6.1572818612,3.8683030131\C,-0.6533393271,-5.6429902305,2
 .7670322875\N,-1.970764167,-5.4328811022,2.7605762206\C,-2.6514443196,
 -5.7319348822,3.869727177\C,1.514182784,-6.3386961746,3.8074703073\C,2
 .1768854339,-7.3217918279,4.5401250143\C,3.5615616091,-7.3608382135,4.
 4094030903\N,4.2462641891,-6.5327683578,3.6330342954\C,3.5076437562,-5
 .6343661099,2.9502496719\N,2.1823227624,-5.4996936547,3.0080165924\N,4
 .2558511262,-4.803054118,2.1575763967\C,3.8925922844,-3.7609514001,1.2
 911676134\C,4.9284209071,-2.9602819724,0.7663048087\C,4.5782948029,-1.
 9239750911,-0.0935778874\C,3.2587581625,-1.6678431777,-0.4476305157\C,
 2.2516456082,-2.4734738193,0.0765246733\C,2.5652861962,-3.5137380443,0
 .9465592662\N,0.9054057383,-2.1852902905,-0.2493609294\C,-0.1386959753
 ,-3.0745521464,-0.263447443\C,-1.4860389763,-2.4779631072,-0.541450191
 1\C,-1.6843434615,-1.3805268242,-1.3814455979\C,-2.9662507409,-0.88668
 18053,-1.5957567901\C,-4.0708252906,-1.4644712036,-0.9683315375\C,-3.8
 624075335,-2.5815022523,-0.1554322458\C,-2.5890285447,-3.0905040624,0.
 0595442069\C,-5.4635405151,-0.8783181231,-1.1480312949\N,-5.9135701506
 ,0.1231555264,-0.195829927\C,-5.2589576086,1.42537517,-0.2320210806\C,
 -4.0815090138,1.5570689824,0.7489409048\N,-4.4330238467,1.1828005574,2
 .1163023172\C,-5.2434183864,2.1720014234,2.8044406573\C,-5.0044902201,
 -0.161452137,2.1281151813\C,-6.1933961291,-0.3196087529,1.165391325\O,
 -0.0100613936,-4.2682019703,-0.0416119254\C,6.3716393358,-3.2086917543
 ,1.1244009296\H,-2.6613350876,-6.4718364491,5.8932585986\H,-0.19208201
 16,-6.8460005075,5.9022068855\H,-0.1289459121,-5.3971474642,1.84802355
 42\H,-3.7224884098,-5.5432237301,3.8393812554\H,1.6517445148,-8.037820
 1553,5.1599269605\H,4.1481836555,-8.0969612409,4.9556052987\H,5.241179
 3184,-5.0018323362,2.242893104\H,5.3658202177,-1.2977930573,-0.5047246
 543\H,3.0196373835,-0.8581087641,-1.1312614674\H,1.7847966975,-4.12655
 78204,1.3595227602\H,0.6847527512,-1.2132644513,-0.4027851968\H,-0.847
 1751159,-0.9277290742,-1.9078320502\H,-3.111565312,-0.0401536516,-2.26
 30767147\H,-4.7146507791,-3.0597591307,0.3223849997\H,-2.4346059823,-3
 .9543342343,0.7021245724\H,-5.5284361669,-0.427148071,-2.1463161718\H,
 -6.1946025059,-1.6960761595,-1.1261500211\H,-4.9243949152,1.6260430652
 ,-1.2563654791\H,-6.0133003556,2.1895139199,0.0080457764\H,-3.70761401
 44,2.5881709878,0.7504526715\H,-3.2600012734,0.9059325557,0.427417555\
 H,-6.2379620317,2.362564031,2.3639499768\H,-4.7024189472,3.1244043698,
 2.8271416973\H,-5.3965601794,1.8496778406,3.8402181887\H,-5.316618207,
 -0.4039268641,3.1512077101\H,-4.2086878184,-0.8628578631,1.8522737793\
 H,-7.0426536823,0.2684006711,1.5443447207\H,-6.5225225537,-1.364460916
 4,1.137202458\H,6.7148681141,-4.1997270591,0.7975457474\H,6.5428506352
 ,-3.1379365874,2.206256266\H,7.0203586504,-2.4724257291,0.6429755953\\
 Version=EM64L-G09RevA.02\State=1-A\HF=-1581.7610392\RMSD=9.148e-09\RMS
 F=7.984e-06\Dipole=0.0429071,0.5503103,0.8024549\Quadrupole=1.9277863,
 -1.1220468,-0.8057395,1.1612769,-3.7724657,-19.5438094\PG=C01 [X(C29H3
 1N7O1)]\\@


 A MAN IS NEVER SO BRILLIANT AS WHEN HE TAKES THE WORDS RIGHT OUT
 OF YOUR MOUTH. -- ARNOT SHEPPARD, JR.
 Job cpu time:  0 days  9 hours 38 minutes 16.8 seconds.
 File lengths (MBytes):  RWF=    244 Int=      0 D2E=      0 Chk=     25 Scr=      1
 Normal termination of Gaussian 09 at Wed Apr  8 23:57:14 2020.
