 Entering Gaussian System, Link 0=g09
 Input=MOLECULE0-opt-25-28-29-35-236.com
 Output=MOLECULE0-opt-25-28-29-35-236.log
 Initial command:
 /opt/g09gh/gaussian/g09/l1.exe /scratch/bdw2292/Gau-MOLECULE0/Gau-54625.inp -scrdir=/scratch/bdw2292/Gau-MOLECULE0/
 Entering Link 1 = /opt/g09gh/gaussian/g09/l1.exe PID=     54626.
  
 Copyright (c) 1988,1990,1992,1993,1995,1998,2003,2009, Gaussian, Inc.
                  All Rights Reserved.
  
 This is part of the Gaussian(R) 09 program.  It is based on
 the Gaussian(R) 03 system (copyright 2003, Gaussian, Inc.),
 the Gaussian(R) 98 system (copyright 1998, Gaussian, Inc.),
 the Gaussian(R) 94 system (copyright 1995, Gaussian, Inc.),
 the Gaussian 92(TM) system (copyright 1992, Gaussian, Inc.),
 the Gaussian 90(TM) system (copyright 1990, Gaussian, Inc.),
 the Gaussian 88(TM) system (copyright 1988, Gaussian, Inc.),
 the Gaussian 86(TM) system (copyright 1986, Carnegie Mellon
 University), and the Gaussian 82(TM) system (copyright 1983,
 Carnegie Mellon University). Gaussian is a federally registered
 trademark of Gaussian, Inc.
  
 This software contains proprietary and confidential information,
 including trade secrets, belonging to Gaussian, Inc.
  
 This software is provided under written license and may be
 used, copied, transmitted, or stored only in accord with that
 written license.
  
 The following legend is applicable only to US Government
 contracts under FAR:
  
                    RESTRICTED RIGHTS LEGEND
  
 Use, reproduction and disclosure by the US Government is
 subject to restrictions as set forth in subparagraphs (a)
 and (c) of the Commercial Computer Software - Restricted
 Rights clause in FAR 52.227-19.
  
 Gaussian, Inc.
 340 Quinnipiac St., Bldg. 40, Wallingford CT 06492
  
  
 ---------------------------------------------------------------
 Warning -- This program may not be used in any manner that
 competes with the business of Gaussian, Inc. or will provide
 assistance to any competitor of Gaussian, Inc.  The licensee
 of this program is prohibited from giving any competitor of
 Gaussian, Inc. access to this program.  By using this program,
 the user acknowledges that Gaussian, Inc. is engaged in the
 business of creating and licensing software in the field of
 computational chemistry and represents and warrants to the
 licensee that it is not a competitor of Gaussian, Inc. and that
 it will not use this program in any manner prohibited above.
 ---------------------------------------------------------------
  

 Cite this work as:
 Gaussian 09, Revision A.02,
 M. J. Frisch, G. W. Trucks, H. B. Schlegel, G. E. Scuseria, 
 M. A. Robb, J. R. Cheeseman, G. Scalmani, V. Barone, B. Mennucci, 
 G. A. Petersson, H. Nakatsuji, M. Caricato, X. Li, H. P. Hratchian, 
 A. F. Izmaylov, J. Bloino, G. Zheng, J. L. Sonnenberg, M. Hada, 
 M. Ehara, K. Toyota, R. Fukuda, J. Hasegawa, M. Ishida, T. Nakajima, 
 Y. Honda, O. Kitao, H. Nakai, T. Vreven, J. A. Montgomery, Jr., 
 J. E. Peralta, F. Ogliaro, M. Bearpark, J. J. Heyd, E. Brothers, 
 K. N. Kudin, V. N. Staroverov, R. Kobayashi, J. Normand, 
 K. Raghavachari, A. Rendell, J. C. Burant, S. S. Iyengar, J. Tomasi, 
 M. Cossi, N. Rega, J. M. Millam, M. Klene, J. E. Knox, J. B. Cross, 
 V. Bakken, C. Adamo, J. Jaramillo, R. Gomperts, R. E. Stratmann, 
 O. Yazyev, A. J. Austin, R. Cammi, C. Pomelli, J. W. Ochterski, 
 R. L. Martin, K. Morokuma, V. G. Zakrzewski, G. A. Voth, 
 P. Salvador, J. J. Dannenberg, S. Dapprich, A. D. Daniels, 
 O. Farkas, J. B. Foresman, J. V. Ortiz, J. Cioslowski, 
 and D. J. Fox, Gaussian, Inc., Wallingford CT, 2009.
 
 ******************************************
 Gaussian 09:  EM64L-G09RevA.02 11-Jun-2009
                10-Mar-2020 
 ******************************************
 %RWF=/scratch/bdw2292/Gau-MOLECULE0/,100GB
 %Nosave
 %Chk=MOLECULE0-opt-25-28-29-35-236.chk
 %Mem=20GB
 %Nproc=6
 Will use up to    6 processors via shared memory.
 --------------------------------------------------
 #P opt=(,maxcycle=400) wB97XD/6-31G* MaxDisk=100GB
 --------------------------------------------------
 1/6=400,14=-1,18=20,19=15,26=3,38=1/1,3;
 2/9=110,12=2,17=6,18=5,40=1/2;
 3/5=1,6=6,7=1,11=2,16=1,25=1,30=1,71=1,74=-58/1,2,3;
 4//1;
 5/5=2,38=5/2;
 6/7=2,8=2,9=2,10=2,28=1/1;
 7//1,2,3,16;
 1/6=400,14=-1,18=20,19=15/3(2);
 2/9=110/2;
 99//99;
 2/9=110/2;
 3/5=1,6=6,7=1,11=2,16=1,25=1,30=1,71=1,74=-58/1,2,3;
 4/5=5,16=3/1;
 5/5=2,38=5/2;
 7//1,2,3,16;
 1/6=400,14=-1,18=20,19=15/3(-5);
 2/9=110/2;
 6/7=2,8=2,9=2,10=2,19=2,28=1/1;
 99/9=1/99;
 Leave Link    1 at Tue Mar 10 23:59:35 2020, MaxMem= 2684354560 cpu:       0.3
 (Enter /opt/g09gh/gaussian/g09/l101.exe)
 -----------------------------------------------------------------
 MOLECULE0 Rotatable Bond Optimization on g2-node38.bme.utexas.edu
 -----------------------------------------------------------------
 Symbolic Z-matrix:
 Charge =  0 Multiplicity = 1
 C                    -0.04765   4.56602  -1.34923 
 C                     1.27543   4.44111  -0.90314 
 C                     1.83485   3.1627   -0.70685 
 C                     0.98729   2.06914  -1.01347 
 N                    -0.27575   2.16585  -1.44745 
 C                    -0.77894   3.3999   -1.60295 
 C                     3.24659   2.93332  -0.2242 
 C                     4.20658   3.93194   0.00379 
 C                     5.46619   3.47959   0.41298 
 N                     5.78154   2.20219   0.60829 
 C                     4.78934   1.31266   0.39461 
 N                     3.5586    1.64064  -0.00928 
 N                     5.11751  -0.01638   0.62386 
 C                     4.39929  -1.25614   0.45272 
 C                     5.11591  -2.49086   0.42943 
 C                     4.36614  -3.66454   0.23805 
 C                     2.97514  -3.68718   0.07943 
 C                     2.28522  -2.4721    0.13306 
 C                     3.00691  -1.28153   0.3123 
 N                     0.87287  -2.29735  -0.00784 
 C                    -0.12513  -3.17264  -0.36579 
 C                    -1.48358  -2.57078  -0.67186 
 C                    -1.64148  -1.32211  -1.29708 
 C                    -2.91543  -0.79634  -1.51656 
 C                    -4.07455  -1.49891  -1.13751 
 C                    -3.90254  -2.75973  -0.53386 
 C                    -2.63146  -3.29792  -0.31746 
 C                    -5.46203  -0.87915  -1.32197 
 N                    -5.99038   0.06325  -0.31029 
 C                    -5.07419   0.66127   0.68948 
 C                    -4.94815  -0.17002   1.99247 
 N                    -6.23979  -0.49448   2.64279 
 C                    -6.79817   0.53571   3.52556 
 C                    -7.16146  -1.06551   1.63202 
 C                    -7.292    -0.24202   0.32525 
 O                     0.04576  -4.38042  -0.41866 
 C                     6.62514  -2.58324   0.57564 
 H                    -0.50149   5.54149  -1.49766 
 H                     1.83814   5.34914  -0.70114 
 H                     1.36302   1.05537  -0.92828 
 H                    -1.80853   3.45348  -1.95363 
 H                     4.03015   4.98998  -0.1461 
 H                     6.27232   4.19038   0.59244 
 H                     6.09051  -0.0841    0.88234 
 H                     4.88131  -4.62356   0.20048 
 H                     2.43441  -4.61339  -0.07291 
 H                     2.48085  -0.34154   0.35266 
 H                     0.56354  -1.34281   0.11114 
 H                    -0.76535  -0.74855  -1.59014 
 H                    -2.99791   0.19027  -1.97238 
 H                    -4.77161  -3.33433  -0.21474 
 H                    -2.50705  -4.26928   0.15485 
 H                    -5.4847   -0.34304  -2.28154 
 H                    -6.17608  -1.7125   -1.39912 
 H                    -4.19448   0.88662   0.27759 
 H                    -5.71055   2.03552   1.1322 
 H                    -4.12293   0.61616   2.94408 
 H                    -4.32624  -1.2948    1.74508 
 H                    -7.07008   1.43422   2.96031 
 H                    -6.06833   0.81028   4.29542 
 H                    -7.69134   0.15472   4.03365 
 H                    -8.40189  -1.21956   2.19396 
 H                    -6.63243  -2.4158    1.2561 
 H                    -7.94251   1.11266   0.73906 
 H                    -7.95854  -0.69444  -0.38008 
 H                     6.95354  -2.23192   1.56408 
 H                     7.14168  -1.97434  -0.17988 
 H                     7.00497  -3.6082    0.46378 
 
 NAtoms=     68 NQM=     68 NQMF=      0 NMic=      0 NMicF=      0 NTot=     68.
                    Isotopes and Nuclear Properties:
 (Nuclear quadrupole moments (NQMom) in fm**2, nuclear magnetic moments (NMagM)
  in nuclear magnetons)

  Atom         1           2           3           4           5           6           7           8           9          10
 IAtWgt=          12          12          12          12          14          12          12          12          12          14
 AtmWgt=  12.0000000  12.0000000  12.0000000  12.0000000  14.0030740  12.0000000  12.0000000  12.0000000  12.0000000  14.0030740
 NucSpn=           0           0           0           0           2           0           0           0           0           2
 AtZEff=   0.0000000   0.0000000   0.0000000   0.0000000   0.0000000   0.0000000   0.0000000   0.0000000   0.0000000   0.0000000
 NQMom=    0.0000000   0.0000000   0.0000000   0.0000000   2.0440000   0.0000000   0.0000000   0.0000000   0.0000000   2.0440000
 NMagM=    0.0000000   0.0000000   0.0000000   0.0000000   0.4037610   0.0000000   0.0000000   0.0000000   0.0000000   0.4037610

  Atom        11          12          13          14          15          16          17          18          19          20
 IAtWgt=          12          14          14          12          12          12          12          12          12          14
 AtmWgt=  12.0000000  14.0030740  14.0030740  12.0000000  12.0000000  12.0000000  12.0000000  12.0000000  12.0000000  14.0030740
 NucSpn=           0           2           2           0           0           0           0           0           0           2
 AtZEff=   0.0000000   0.0000000   0.0000000   0.0000000   0.0000000   0.0000000   0.0000000   0.0000000   0.0000000   0.0000000
 NQMom=    0.0000000   2.0440000   2.0440000   0.0000000   0.0000000   0.0000000   0.0000000   0.0000000   0.0000000   2.0440000
 NMagM=    0.0000000   0.4037610   0.4037610   0.0000000   0.0000000   0.0000000   0.0000000   0.0000000   0.0000000   0.4037610

  Atom        21          22          23          24          25          26          27          28          29          30
 IAtWgt=          12          12          12          12          12          12          12          12          14          12
 AtmWgt=  12.0000000  12.0000000  12.0000000  12.0000000  12.0000000  12.0000000  12.0000000  12.0000000  14.0030740  12.0000000
 NucSpn=           0           0           0           0           0           0           0           0           2           0
 AtZEff=   0.0000000   0.0000000   0.0000000   0.0000000   0.0000000   0.0000000   0.0000000   0.0000000   0.0000000   0.0000000
 NQMom=    0.0000000   0.0000000   0.0000000   0.0000000   0.0000000   0.0000000   0.0000000   0.0000000   2.0440000   0.0000000
 NMagM=    0.0000000   0.0000000   0.0000000   0.0000000   0.0000000   0.0000000   0.0000000   0.0000000   0.4037610   0.0000000

  Atom        31          32          33          34          35          36          37          38          39          40
 IAtWgt=          12          14          12          12          12          16          12           1           1           1
 AtmWgt=  12.0000000  14.0030740  12.0000000  12.0000000  12.0000000  15.9949146  12.0000000   1.0078250   1.0078250   1.0078250
 NucSpn=           0           2           0           0           0           0           0           1           1           1
 AtZEff=   0.0000000   0.0000000   0.0000000   0.0000000   0.0000000   0.0000000   0.0000000   0.0000000   0.0000000   0.0000000
 NQMom=    0.0000000   2.0440000   0.0000000   0.0000000   0.0000000   0.0000000   0.0000000   0.0000000   0.0000000   0.0000000
 NMagM=    0.0000000   0.4037610   0.0000000   0.0000000   0.0000000   0.0000000   0.0000000   2.7928460   2.7928460   2.7928460

  Atom        41          42          43          44          45          46          47          48          49          50
 IAtWgt=           1           1           1           1           1           1           1           1           1           1
 AtmWgt=   1.0078250   1.0078250   1.0078250   1.0078250   1.0078250   1.0078250   1.0078250   1.0078250   1.0078250   1.0078250
 NucSpn=           1           1           1           1           1           1           1           1           1           1
 AtZEff=   0.0000000   0.0000000   0.0000000   0.0000000   0.0000000   0.0000000   0.0000000   0.0000000   0.0000000   0.0000000
 NQMom=    0.0000000   0.0000000   0.0000000   0.0000000   0.0000000   0.0000000   0.0000000   0.0000000   0.0000000   0.0000000
 NMagM=    2.7928460   2.7928460   2.7928460   2.7928460   2.7928460   2.7928460   2.7928460   2.7928460   2.7928460   2.7928460

  Atom        51          52          53          54          55          56          57          58          59          60
 IAtWgt=           1           1           1           1           1           1           1           1           1           1
 AtmWgt=   1.0078250   1.0078250   1.0078250   1.0078250   1.0078250   1.0078250   1.0078250   1.0078250   1.0078250   1.0078250
 NucSpn=           1           1           1           1           1           1           1           1           1           1
 AtZEff=   0.0000000   0.0000000   0.0000000   0.0000000   0.0000000   0.0000000   0.0000000   0.0000000   0.0000000   0.0000000
 NQMom=    0.0000000   0.0000000   0.0000000   0.0000000   0.0000000   0.0000000   0.0000000   0.0000000   0.0000000   0.0000000
 NMagM=    2.7928460   2.7928460   2.7928460   2.7928460   2.7928460   2.7928460   2.7928460   2.7928460   2.7928460   2.7928460

  Atom        61          62          63          64          65          66          67          68
 IAtWgt=           1           1           1           1           1           1           1           1
 AtmWgt=   1.0078250   1.0078250   1.0078250   1.0078250   1.0078250   1.0078250   1.0078250   1.0078250
 NucSpn=           1           1           1           1           1           1           1           1
 AtZEff=   0.0000000   0.0000000   0.0000000   0.0000000   0.0000000   0.0000000   0.0000000   0.0000000
 NQMom=    0.0000000   0.0000000   0.0000000   0.0000000   0.0000000   0.0000000   0.0000000   0.0000000
 NMagM=    2.7928460   2.7928460   2.7928460   2.7928460   2.7928460   2.7928460   2.7928460   2.7928460
 Leave Link  101 at Tue Mar 10 23:59:35 2020, MaxMem= 2684354560 cpu:       0.4
 (Enter /opt/g09gh/gaussian/g09/l103.exe)

 GradGradGradGradGradGradGradGradGradGradGradGradGradGradGradGradGradGrad
 Berny optimization.
 Initialization pass.
                           ----------------------------
                           !    Initial Parameters    !
                           ! (Angstroms and Degrees)  !
 --------------------------                            --------------------------
 ! Name  Definition              Value          Derivative Info.                !
 --------------------------------------------------------------------------------
 ! R1    R(1,2)                  1.4018         estimate D2E/DX2                !
 ! R2    R(1,6)                  1.3996         estimate D2E/DX2                !
 ! R3    R(1,38)                 1.0861         estimate D2E/DX2                !
 ! R4    R(2,3)                  1.4092         estimate D2E/DX2                !
 ! R5    R(2,39)                 1.0872         estimate D2E/DX2                !
 ! R6    R(3,4)                  1.4171         estimate D2E/DX2                !
 ! R7    R(3,7)                  1.5095         estimate D2E/DX2                !
 ! R8    R(4,5)                  1.339          estimate D2E/DX2                !
 ! R9    R(4,40)                 1.0845         estimate D2E/DX2                !
 ! R10   R(5,6)                  1.3417         estimate D2E/DX2                !
 ! R11   R(6,41)                 1.089          estimate D2E/DX2                !
 ! R12   R(7,8)                  1.4039         estimate D2E/DX2                !
 ! R13   R(7,12)                 1.3471         estimate D2E/DX2                !
 ! R14   R(8,9)                  1.3995         estimate D2E/DX2                !
 ! R15   R(8,42)                 1.0831         estimate D2E/DX2                !
 ! R16   R(9,10)                 1.3302         estimate D2E/DX2                !
 ! R17   R(9,43)                 1.0896         estimate D2E/DX2                !
 ! R18   R(10,11)                1.3496         estimate D2E/DX2                !
 ! R19   R(11,12)                1.3362         estimate D2E/DX2                !
 ! R20   R(11,13)                1.388          estimate D2E/DX2                !
 ! R21   R(13,14)                1.443          estimate D2E/DX2                !
 ! R22   R(13,44)                1.009          estimate D2E/DX2                !
 ! R23   R(14,15)                1.4278         estimate D2E/DX2                !
 ! R24   R(14,19)                1.3997         estimate D2E/DX2                !
 ! R25   R(15,16)                1.4058         estimate D2E/DX2                !
 ! R26   R(15,37)                1.5191         estimate D2E/DX2                !
 ! R27   R(16,17)                1.4002         estimate D2E/DX2                !
 ! R28   R(16,45)                1.0893         estimate D2E/DX2                !
 ! R29   R(17,18)                1.3983         estimate D2E/DX2                !
 ! R30   R(17,46)                1.0833         estimate D2E/DX2                !
 ! R31   R(18,19)                1.4037         estimate D2E/DX2                !
 ! R32   R(18,20)                1.4301         estimate D2E/DX2                !
 ! R33   R(19,47)                1.0779         estimate D2E/DX2                !
 ! R34   R(20,21)                1.3749         estimate D2E/DX2                !
 ! R35   R(20,48)                1.0104         estimate D2E/DX2                !
 ! R36   R(21,22)                1.517          estimate D2E/DX2                !
 ! R37   R(21,36)                1.221          estimate D2E/DX2                !
 ! R38   R(22,23)                1.4053         estimate D2E/DX2                !
 ! R39   R(22,27)                1.4043         estimate D2E/DX2                !
 ! R40   R(23,24)                1.3955         estimate D2E/DX2                !
 ! R41   R(23,49)                1.0874         estimate D2E/DX2                !
 ! R42   R(24,25)                1.4074         estimate D2E/DX2                !
 ! R43   R(24,50)                1.0899         estimate D2E/DX2                !
 ! R44   R(25,26)                1.4084         estimate D2E/DX2                !
 ! R45   R(25,28)                1.5308         estimate D2E/DX2                !
 ! R46   R(26,27)                1.3972         estimate D2E/DX2                !
 ! R47   R(26,51)                1.0896         estimate D2E/DX2                !
 ! R48   R(27,52)                1.0872         estimate D2E/DX2                !
 ! R49   R(28,29)                1.4801         estimate D2E/DX2                !
 ! R50   R(28,53)                1.0994         estimate D2E/DX2                !
 ! R51   R(28,54)                1.1001         estimate D2E/DX2                !
 ! R52   R(29,30)                1.4821         estimate D2E/DX2                !
 ! R53   R(29,35)                1.4803         estimate D2E/DX2                !
 ! R54   R(30,31)                1.5507         estimate D2E/DX2                !
 ! R55   R(30,55)                0.9972         estimate D2E/DX2                !
 ! R56   R(30,56)                1.5778         estimate D2E/DX2                !
 ! R57   R(31,32)                1.4821         estimate D2E/DX2                !
 ! R58   R(31,57)                1.4848         estimate D2E/DX2                !
 ! R59   R(31,58)                1.3089         estimate D2E/DX2                !
 ! R60   R(32,33)                1.4671         estimate D2E/DX2                !
 ! R61   R(32,34)                1.4823         estimate D2E/DX2                !
 ! R62   R(33,59)                1.0958         estimate D2E/DX2                !
 ! R63   R(33,60)                1.0958         estimate D2E/DX2                !
 ! R64   R(33,61)                1.0959         estimate D2E/DX2                !
 ! R65   R(34,35)                1.5501         estimate D2E/DX2                !
 ! R66   R(34,62)                1.3705         estimate D2E/DX2                !
 ! R67   R(34,63)                1.4982         estimate D2E/DX2                !
 ! R68   R(35,64)                1.5587         estimate D2E/DX2                !
 ! R69   R(35,65)                1.0707         estimate D2E/DX2                !
 ! R70   R(37,66)                1.0992         estimate D2E/DX2                !
 ! R71   R(37,67)                1.0993         estimate D2E/DX2                !
 ! R72   R(37,68)                1.0988         estimate D2E/DX2                !
 ! A1    A(2,1,6)              118.462          estimate D2E/DX2                !
 ! A2    A(2,1,38)             121.1926         estimate D2E/DX2                !
 ! A3    A(6,1,38)             120.3454         estimate D2E/DX2                !
 ! A4    A(1,2,3)              119.9896         estimate D2E/DX2                !
 ! A5    A(1,2,39)             118.2431         estimate D2E/DX2                !
 ! A6    A(3,2,39)             121.7589         estimate D2E/DX2                !
 ! A7    A(2,3,4)              115.6259         estimate D2E/DX2                !
 ! A8    A(2,3,7)              123.6186         estimate D2E/DX2                !
 ! A9    A(4,3,7)              120.7488         estimate D2E/DX2                !
 ! A10   A(3,4,5)              125.3477         estimate D2E/DX2                !
 ! A11   A(3,4,40)             119.8106         estimate D2E/DX2                !
 ! A12   A(5,4,40)             114.8202         estimate D2E/DX2                !
 ! A13   A(4,5,6)              117.2416         estimate D2E/DX2                !
 ! A14   A(1,6,5)              123.3212         estimate D2E/DX2                !
 ! A15   A(1,6,41)             120.7547         estimate D2E/DX2                !
 ! A16   A(5,6,41)             115.9221         estimate D2E/DX2                !
 ! A17   A(3,7,8)              125.6886         estimate D2E/DX2                !
 ! A18   A(3,7,12)             114.4223         estimate D2E/DX2                !
 ! A19   A(8,7,12)             119.8891         estimate D2E/DX2                !
 ! A20   A(7,8,9)              115.6602         estimate D2E/DX2                !
 ! A21   A(7,8,42)             124.1269         estimate D2E/DX2                !
 ! A22   A(9,8,42)             120.1868         estimate D2E/DX2                !
 ! A23   A(8,9,10)             124.5199         estimate D2E/DX2                !
 ! A24   A(8,9,43)             120.2109         estimate D2E/DX2                !
 ! A25   A(10,9,43)            115.269          estimate D2E/DX2                !
 ! A26   A(9,10,11)            115.8125         estimate D2E/DX2                !
 ! A27   A(10,11,12)           124.2802         estimate D2E/DX2                !
 ! A28   A(10,11,13)           115.5398         estimate D2E/DX2                !
 ! A29   A(12,11,13)           120.1799         estimate D2E/DX2                !
 ! A30   A(7,12,11)            119.8094         estimate D2E/DX2                !
 ! A31   A(11,13,14)           133.2673         estimate D2E/DX2                !
 ! A32   A(11,13,44)           109.5458         estimate D2E/DX2                !
 ! A33   A(14,13,44)           116.9164         estimate D2E/DX2                !
 ! A34   A(13,14,15)           119.6767         estimate D2E/DX2                !
 ! A35   A(13,14,19)           121.5087         estimate D2E/DX2                !
 ! A36   A(15,14,19)           118.8142         estimate D2E/DX2                !
 ! A37   A(14,15,16)           117.162          estimate D2E/DX2                !
 ! A38   A(14,15,37)           123.3436         estimate D2E/DX2                !
 ! A39   A(16,15,37)           119.4857         estimate D2E/DX2                !
 ! A40   A(15,16,17)           123.9696         estimate D2E/DX2                !
 ! A41   A(15,16,45)           119.1758         estimate D2E/DX2                !
 ! A42   A(17,16,45)           116.853          estimate D2E/DX2                !
 ! A43   A(16,17,18)           118.1488         estimate D2E/DX2                !
 ! A44   A(16,17,46)           121.7113         estimate D2E/DX2                !
 ! A45   A(18,17,46)           120.1379         estimate D2E/DX2                !
 ! A46   A(17,18,19)           119.2252         estimate D2E/DX2                !
 ! A47   A(17,18,20)           126.1344         estimate D2E/DX2                !
 ! A48   A(19,18,20)           114.6261         estimate D2E/DX2                !
 ! A49   A(14,19,18)           122.6592         estimate D2E/DX2                !
 ! A50   A(14,19,47)           117.7693         estimate D2E/DX2                !
 ! A51   A(18,19,47)           119.57           estimate D2E/DX2                !
 ! A52   A(18,20,21)           131.6627         estimate D2E/DX2                !
 ! A53   A(18,20,48)           113.9644         estimate D2E/DX2                !
 ! A54   A(21,20,48)           114.196          estimate D2E/DX2                !
 ! A55   A(20,21,22)           116.7416         estimate D2E/DX2                !
 ! A56   A(20,21,36)           122.6459         estimate D2E/DX2                !
 ! A57   A(22,21,36)           120.601          estimate D2E/DX2                !
 ! A58   A(21,22,23)           122.8801         estimate D2E/DX2                !
 ! A59   A(21,22,27)           118.4005         estimate D2E/DX2                !
 ! A60   A(23,22,27)           118.7191         estimate D2E/DX2                !
 ! A61   A(22,23,24)           120.4829         estimate D2E/DX2                !
 ! A62   A(22,23,49)           119.8694         estimate D2E/DX2                !
 ! A63   A(24,23,49)           119.6299         estimate D2E/DX2                !
 ! A64   A(23,24,25)           121.4254         estimate D2E/DX2                !
 ! A65   A(23,24,50)           118.4166         estimate D2E/DX2                !
 ! A66   A(25,24,50)           120.1441         estimate D2E/DX2                !
 ! A67   A(24,25,26)           117.4985         estimate D2E/DX2                !
 ! A68   A(24,25,28)           120.7921         estimate D2E/DX2                !
 ! A69   A(26,25,28)           121.6538         estimate D2E/DX2                !
 ! A70   A(25,26,27)           121.4875         estimate D2E/DX2                !
 ! A71   A(25,26,51)           120.0128         estimate D2E/DX2                !
 ! A72   A(27,26,51)           118.4969         estimate D2E/DX2                !
 ! A73   A(22,27,26)           120.3381         estimate D2E/DX2                !
 ! A74   A(22,27,52)           118.6018         estimate D2E/DX2                !
 ! A75   A(26,27,52)           121.0322         estimate D2E/DX2                !
 ! A76   A(25,28,29)           119.9317         estimate D2E/DX2                !
 ! A77   A(25,28,53)           108.7414         estimate D2E/DX2                !
 ! A78   A(25,28,54)           106.8622         estimate D2E/DX2                !
 ! A79   A(29,28,53)           106.1844         estimate D2E/DX2                !
 ! A80   A(29,28,54)           107.3698         estimate D2E/DX2                !
 ! A81   A(53,28,54)           107.1454         estimate D2E/DX2                !
 ! A82   A(28,29,30)           119.8228         estimate D2E/DX2                !
 ! A83   A(28,29,35)           118.4261         estimate D2E/DX2                !
 ! A84   A(30,29,35)           109.7036         estimate D2E/DX2                !
 ! A85   A(29,30,31)           113.6252         estimate D2E/DX2                !
 ! A86   A(29,30,55)           110.9721         estimate D2E/DX2                !
 ! A87   A(29,30,56)           106.9418         estimate D2E/DX2                !
 ! A88   A(31,30,55)           113.3605         estimate D2E/DX2                !
 ! A89   A(31,30,56)           105.3029         estimate D2E/DX2                !
 ! A90   A(55,30,56)           105.9547         estimate D2E/DX2                !
 ! A91   A(30,31,32)           114.533          estimate D2E/DX2                !
 ! A92   A(30,31,57)           107.4488         estimate D2E/DX2                !
 ! A93   A(30,31,58)           109.9061         estimate D2E/DX2                !
 ! A94   A(32,31,57)           108.6062         estimate D2E/DX2                !
 ! A95   A(32,31,58)           107.9937         estimate D2E/DX2                !
 ! A96   A(57,31,58)           108.1842         estimate D2E/DX2                !
 ! A97   A(31,32,33)           116.2316         estimate D2E/DX2                !
 ! A98   A(31,32,34)           109.0879         estimate D2E/DX2                !
 ! A99   A(33,32,34)           116.3698         estimate D2E/DX2                !
 ! A100  A(32,33,59)           111.0896         estimate D2E/DX2                !
 ! A101  A(32,33,60)           110.1934         estimate D2E/DX2                !
 ! A102  A(32,33,61)           110.1837         estimate D2E/DX2                !
 ! A103  A(59,33,60)           108.7979         estimate D2E/DX2                !
 ! A104  A(59,33,61)           108.7828         estimate D2E/DX2                !
 ! A105  A(60,33,61)           107.7105         estimate D2E/DX2                !
 ! A106  A(32,34,35)           114.9962         estimate D2E/DX2                !
 ! A107  A(32,34,62)           109.0556         estimate D2E/DX2                !
 ! A108  A(32,34,63)           107.3822         estimate D2E/DX2                !
 ! A109  A(35,34,62)           109.218          estimate D2E/DX2                !
 ! A110  A(35,34,63)           107.2786         estimate D2E/DX2                !
 ! A111  A(62,34,63)           108.7353         estimate D2E/DX2                !
 ! A112  A(29,35,34)           113.4181         estimate D2E/DX2                !
 ! A113  A(29,35,64)           107.561          estimate D2E/DX2                !
 ! A114  A(29,35,65)           110.5909         estimate D2E/DX2                !
 ! A115  A(34,35,64)           105.8454         estimate D2E/DX2                !
 ! A116  A(34,35,65)           112.537          estimate D2E/DX2                !
 ! A117  A(64,35,65)           106.3987         estimate D2E/DX2                !
 ! A118  A(15,37,66)           111.3421         estimate D2E/DX2                !
 ! A119  A(15,37,67)           111.5313         estimate D2E/DX2                !
 ! A120  A(15,37,68)           112.977          estimate D2E/DX2                !
 ! A121  A(66,37,67)           107.4937         estimate D2E/DX2                !
 ! A122  A(66,37,68)           106.6429         estimate D2E/DX2                !
 ! A123  A(67,37,68)           106.5162         estimate D2E/DX2                !
 ! D1    D(6,1,2,3)             -0.6578         estimate D2E/DX2                !
 ! D2    D(6,1,2,39)          -179.6198         estimate D2E/DX2                !
 ! D3    D(38,1,2,3)           179.3902         estimate D2E/DX2                !
 ! D4    D(38,1,2,39)            0.4282         estimate D2E/DX2                !
 ! D5    D(2,1,6,5)             -0.3521         estimate D2E/DX2                !
 ! D6    D(2,1,6,41)          -179.8091         estimate D2E/DX2                !
 ! D7    D(38,1,6,5)           179.6003         estimate D2E/DX2                !
 ! D8    D(38,1,6,41)            0.1433         estimate D2E/DX2                !
 ! D9    D(1,2,3,4)              1.1995         estimate D2E/DX2                !
 ! D10   D(1,2,3,7)           -179.7378         estimate D2E/DX2                !
 ! D11   D(39,2,3,4)          -179.8759         estimate D2E/DX2                !
 ! D12   D(39,2,3,7)            -0.8132         estimate D2E/DX2                !
 ! D13   D(2,3,4,5)             -0.8746         estimate D2E/DX2                !
 ! D14   D(2,3,4,40)           177.352          estimate D2E/DX2                !
 ! D15   D(7,3,4,5)           -179.9664         estimate D2E/DX2                !
 ! D16   D(7,3,4,40)            -1.7398         estimate D2E/DX2                !
 ! D17   D(2,3,7,8)             -4.538          estimate D2E/DX2                !
 ! D18   D(2,3,7,12)           175.4425         estimate D2E/DX2                !
 ! D19   D(4,3,7,8)            174.4786         estimate D2E/DX2                !
 ! D20   D(4,3,7,12)            -5.5408         estimate D2E/DX2                !
 ! D21   D(3,4,5,6)             -0.0676         estimate D2E/DX2                !
 ! D22   D(40,4,5,6)          -178.3724         estimate D2E/DX2                !
 ! D23   D(4,5,6,1)              0.7097         estimate D2E/DX2                !
 ! D24   D(4,5,6,41)          -179.8091         estimate D2E/DX2                !
 ! D25   D(3,7,8,9)           -178.1523         estimate D2E/DX2                !
 ! D26   D(3,7,8,42)            -0.0131         estimate D2E/DX2                !
 ! D27   D(12,7,8,9)             1.8681         estimate D2E/DX2                !
 ! D28   D(12,7,8,42)         -179.9927         estimate D2E/DX2                !
 ! D29   D(3,7,12,11)          178.6875         estimate D2E/DX2                !
 ! D30   D(8,7,12,11)           -1.3307         estimate D2E/DX2                !
 ! D31   D(7,8,9,10)            -1.0082         estimate D2E/DX2                !
 ! D32   D(7,8,9,43)           178.8393         estimate D2E/DX2                !
 ! D33   D(42,8,9,10)         -179.2262         estimate D2E/DX2                !
 ! D34   D(42,8,9,43)            0.6212         estimate D2E/DX2                !
 ! D35   D(8,9,10,11)           -0.4173         estimate D2E/DX2                !
 ! D36   D(43,9,10,11)         179.7285         estimate D2E/DX2                !
 ! D37   D(9,10,11,12)           1.091          estimate D2E/DX2                !
 ! D38   D(9,10,11,13)        -178.8594         estimate D2E/DX2                !
 ! D39   D(10,11,12,7)          -0.2237         estimate D2E/DX2                !
 ! D40   D(13,11,12,7)         179.7246         estimate D2E/DX2                !
 ! D41   D(10,11,13,14)       -176.1172         estimate D2E/DX2                !
 ! D42   D(10,11,13,44)         -2.4636         estimate D2E/DX2                !
 ! D43   D(12,11,13,14)          3.9302         estimate D2E/DX2                !
 ! D44   D(12,11,13,44)        177.5837         estimate D2E/DX2                !
 ! D45   D(11,13,14,15)        162.8882         estimate D2E/DX2                !
 ! D46   D(11,13,14,19)        -17.3339         estimate D2E/DX2                !
 ! D47   D(44,13,14,15)        -10.4028         estimate D2E/DX2                !
 ! D48   D(44,13,14,19)        169.375          estimate D2E/DX2                !
 ! D49   D(13,14,15,16)       -178.9921         estimate D2E/DX2                !
 ! D50   D(13,14,15,37)         -0.073          estimate D2E/DX2                !
 ! D51   D(19,14,15,16)          1.2241         estimate D2E/DX2                !
 ! D52   D(19,14,15,37)       -179.8568         estimate D2E/DX2                !
 ! D53   D(13,14,19,18)        179.4362         estimate D2E/DX2                !
 ! D54   D(13,14,19,47)         -1.0127         estimate D2E/DX2                !
 ! D55   D(15,14,19,18)         -0.7841         estimate D2E/DX2                !
 ! D56   D(15,14,19,47)        178.767          estimate D2E/DX2                !
 ! D57   D(14,15,16,17)         -0.384          estimate D2E/DX2                !
 ! D58   D(14,15,16,45)        179.131          estimate D2E/DX2                !
 ! D59   D(37,15,16,17)       -179.3466         estimate D2E/DX2                !
 ! D60   D(37,15,16,45)          0.1683         estimate D2E/DX2                !
 ! D61   D(14,15,37,66)         63.9963         estimate D2E/DX2                !
 ! D62   D(14,15,37,67)        -56.0768         estimate D2E/DX2                !
 ! D63   D(14,15,37,68)       -176.0262         estimate D2E/DX2                !
 ! D64   D(16,15,37,66)       -117.1086         estimate D2E/DX2                !
 ! D65   D(16,15,37,67)        122.8184         estimate D2E/DX2                !
 ! D66   D(16,15,37,68)          2.8689         estimate D2E/DX2                !
 ! D67   D(15,16,17,18)         -0.9439         estimate D2E/DX2                !
 ! D68   D(15,16,17,46)        179.5667         estimate D2E/DX2                !
 ! D69   D(45,16,17,18)        179.5308         estimate D2E/DX2                !
 ! D70   D(45,16,17,46)          0.0413         estimate D2E/DX2                !
 ! D71   D(16,17,18,19)          1.3975         estimate D2E/DX2                !
 ! D72   D(16,17,18,20)        179.9429         estimate D2E/DX2                !
 ! D73   D(46,17,18,19)       -179.1048         estimate D2E/DX2                !
 ! D74   D(46,17,18,20)         -0.5594         estimate D2E/DX2                !
 ! D75   D(17,18,19,14)         -0.5674         estimate D2E/DX2                !
 ! D76   D(17,18,19,47)        179.8893         estimate D2E/DX2                !
 ! D77   D(20,18,19,14)       -179.2751         estimate D2E/DX2                !
 ! D78   D(20,18,19,47)          1.1815         estimate D2E/DX2                !
 ! D79   D(17,18,20,21)         -8.3028         estimate D2E/DX2                !
 ! D80   D(17,18,20,48)        176.9014         estimate D2E/DX2                !
 ! D81   D(19,18,20,21)        170.3008         estimate D2E/DX2                !
 ! D82   D(19,18,20,48)         -4.495          estimate D2E/DX2                !
 ! D83   D(18,20,21,22)       -168.4366         estimate D2E/DX2                !
 ! D84   D(18,20,21,36)         12.7947         estimate D2E/DX2                !
 ! D85   D(48,20,21,22)          6.3497         estimate D2E/DX2                !
 ! D86   D(48,20,21,36)       -172.419          estimate D2E/DX2                !
 ! D87   D(20,21,22,23)         35.239          estimate D2E/DX2                !
 ! D88   D(20,21,22,27)       -144.9734         estimate D2E/DX2                !
 ! D89   D(36,21,22,23)       -145.9655         estimate D2E/DX2                !
 ! D90   D(36,21,22,27)         33.8221         estimate D2E/DX2                !
 ! D91   D(21,22,23,24)       -177.945          estimate D2E/DX2                !
 ! D92   D(21,22,23,49)          0.5089         estimate D2E/DX2                !
 ! D93   D(27,22,23,24)          2.268          estimate D2E/DX2                !
 ! D94   D(27,22,23,49)       -179.2781         estimate D2E/DX2                !
 ! D95   D(21,22,27,26)        177.5474         estimate D2E/DX2                !
 ! D96   D(21,22,27,52)         -0.552          estimate D2E/DX2                !
 ! D97   D(23,22,27,26)         -2.656          estimate D2E/DX2                !
 ! D98   D(23,22,27,52)        179.2447         estimate D2E/DX2                !
 ! D99   D(22,23,24,25)         -0.7651         estimate D2E/DX2                !
 ! D100  D(22,23,24,50)        177.882          estimate D2E/DX2                !
 ! D101  D(49,23,24,25)       -179.2227         estimate D2E/DX2                !
 ! D102  D(49,23,24,50)         -0.5756         estimate D2E/DX2                !
 ! D103  D(23,24,25,26)         -0.374          estimate D2E/DX2                !
 ! D104  D(23,24,25,28)        176.9606         estimate D2E/DX2                !
 ! D105  D(50,24,25,26)       -178.998          estimate D2E/DX2                !
 ! D106  D(50,24,25,28)         -1.6634         estimate D2E/DX2                !
 ! D107  D(24,25,26,27)         -0.0235         estimate D2E/DX2                !
 ! D108  D(24,25,26,51)        179.3551         estimate D2E/DX2                !
 ! D109  D(28,25,26,27)       -177.3336         estimate D2E/DX2                !
 ! D110  D(28,25,26,51)          2.045          estimate D2E/DX2                !
 ! D111  D(24,25,28,29)        -82.6532         estimate D2E/DX2                !
 ! D112  D(24,25,28,53)         39.6897         estimate D2E/DX2                !
 ! D113  D(24,25,28,54)        155.0385         estimate D2E/DX2                !
 ! D114  D(26,25,28,29)         94.5692         estimate D2E/DX2                !
 ! D115  D(26,25,28,53)       -143.0879         estimate D2E/DX2                !
 ! D116  D(26,25,28,54)        -27.7391         estimate D2E/DX2                !
 ! D117  D(25,26,27,22)          1.5617         estimate D2E/DX2                !
 ! D118  D(25,26,27,52)        179.6143         estimate D2E/DX2                !
 ! D119  D(51,26,27,22)       -177.826          estimate D2E/DX2                !
 ! D120  D(51,26,27,52)          0.2266         estimate D2E/DX2                !
 ! D121  D(25,28,29,30)         14.9556         estimate D2E/DX2                !
 ! D122  D(25,28,29,35)       -123.8243         estimate D2E/DX2                !
 ! D123  D(53,28,29,30)       -108.6278         estimate D2E/DX2                !
 ! D124  D(53,28,29,35)        112.5923         estimate D2E/DX2                !
 ! D125  D(54,28,29,30)        137.0156         estimate D2E/DX2                !
 ! D126  D(54,28,29,35)         -1.7643         estimate D2E/DX2                !
 ! D127  D(28,29,30,31)        -90.3381         estimate D2E/DX2                !
 ! D128  D(28,29,30,55)         38.7974         estimate D2E/DX2                !
 ! D129  D(28,29,30,56)        153.9161         estimate D2E/DX2                !
 ! D130  D(35,29,30,31)         51.6704         estimate D2E/DX2                !
 ! D131  D(35,29,30,55)       -179.1942         estimate D2E/DX2                !
 ! D132  D(35,29,30,56)        -64.0754         estimate D2E/DX2                !
 ! D133  D(28,29,35,34)         91.329          estimate D2E/DX2                !
 ! D134  D(28,29,35,64)       -151.981          estimate D2E/DX2                !
 ! D135  D(28,29,35,65)        -36.1815         estimate D2E/DX2                !
 ! D136  D(30,29,35,34)        -51.2807         estimate D2E/DX2                !
 ! D137  D(30,29,35,64)         65.4093         estimate D2E/DX2                !
 ! D138  D(30,29,35,65)       -178.7912         estimate D2E/DX2                !
 ! D139  D(29,30,31,32)        -53.3532         estimate D2E/DX2                !
 ! D140  D(29,30,31,57)       -174.0904         estimate D2E/DX2                !
 ! D141  D(29,30,31,58)         68.4108         estimate D2E/DX2                !
 ! D142  D(55,30,31,32)        178.7337         estimate D2E/DX2                !
 ! D143  D(55,30,31,57)         57.9965         estimate D2E/DX2                !
 ! D144  D(55,30,31,58)        -59.5023         estimate D2E/DX2                !
 ! D145  D(56,30,31,32)         63.3542         estimate D2E/DX2                !
 ! D146  D(56,30,31,57)        -57.383          estimate D2E/DX2                !
 ! D147  D(56,30,31,58)       -174.8818         estimate D2E/DX2                !
 ! D148  D(30,31,32,33)        -84.0001         estimate D2E/DX2                !
 ! D149  D(30,31,32,34)         49.9855         estimate D2E/DX2                !
 ! D150  D(57,31,32,33)         36.0955         estimate D2E/DX2                !
 ! D151  D(57,31,32,34)        170.0811         estimate D2E/DX2                !
 ! D152  D(58,31,32,33)        153.1965         estimate D2E/DX2                !
 ! D153  D(58,31,32,34)        -72.8179         estimate D2E/DX2                !
 ! D154  D(31,32,33,59)         65.3816         estimate D2E/DX2                !
 ! D155  D(31,32,33,60)        -55.2707         estimate D2E/DX2                !
 ! D156  D(31,32,33,61)       -173.9915         estimate D2E/DX2                !
 ! D157  D(34,32,33,59)        -65.249          estimate D2E/DX2                !
 ! D158  D(34,32,33,60)        174.0987         estimate D2E/DX2                !
 ! D159  D(34,32,33,61)         55.3778         estimate D2E/DX2                !
 ! D160  D(31,32,34,35)        -49.9602         estimate D2E/DX2                !
 ! D161  D(31,32,34,62)       -173.0038         estimate D2E/DX2                !
 ! D162  D(31,32,34,63)         69.3373         estimate D2E/DX2                !
 ! D163  D(33,32,34,35)         83.9545         estimate D2E/DX2                !
 ! D164  D(33,32,34,62)        -39.0891         estimate D2E/DX2                !
 ! D165  D(33,32,34,63)       -156.748          estimate D2E/DX2                !
 ! D166  D(32,34,35,29)         52.9276         estimate D2E/DX2                !
 ! D167  D(32,34,35,64)        -64.7646         estimate D2E/DX2                !
 ! D168  D(32,34,35,65)        179.4174         estimate D2E/DX2                !
 ! D169  D(62,34,35,29)        175.8844         estimate D2E/DX2                !
 ! D170  D(62,34,35,64)         58.1923         estimate D2E/DX2                !
 ! D171  D(62,34,35,65)        -57.6258         estimate D2E/DX2                !
 ! D172  D(63,34,35,29)        -66.4274         estimate D2E/DX2                !
 ! D173  D(63,34,35,64)        175.8804         estimate D2E/DX2                !
 ! D174  D(63,34,35,65)         60.0624         estimate D2E/DX2                !
 --------------------------------------------------------------------------------
 Trust Radius=3.00D-01 FncErr=1.00D-07 GrdErr=1.00D-06
 Number of steps in this run= 400 maximum allowed number of steps= 408.
 GradGradGradGradGradGradGradGradGradGradGradGradGradGradGradGradGradGrad

 Leave Link  103 at Tue Mar 10 23:59:35 2020, MaxMem= 2684354560 cpu:       0.1
 (Enter /opt/g09gh/gaussian/g09/l202.exe)
 Stoichiometry    C29H31N7O
 Framework group  C1[X(C29H31N7O)]
 Deg. of freedom   198
 Full point group                 C1      NOp   1
 Largest Abelian subgroup         C1      NOp   1
 Largest concise Abelian subgroup C1      NOp   1
                         Standard orientation:                         
 ---------------------------------------------------------------------
 Center     Atomic      Atomic             Coordinates (Angstroms)
 Number     Number       Type             X           Y           Z
 ---------------------------------------------------------------------
      1          6           0        0.652098    4.765335   -1.112251
      2          6           0        1.931843    4.487925   -0.611830
      3          6           0        2.356276    3.152272   -0.464513
      4          6           0        1.426260    2.164851   -0.874762
      5          7           0        0.202878    2.407721   -1.361907
      6          6           0       -0.172027    3.691598   -1.468477
      7          6           0        3.712314    2.760423    0.070457
      8          6           0        4.749267    3.646743    0.402070
      9          6           0        5.936818    3.052134    0.843466
     10          7           0        6.118771    1.741379    0.978248
     11          6           0        5.059399    0.965840    0.665770
     12          7           0        3.888463    1.433753    0.223737
     13          7           0        5.247398   -0.399303    0.831977
     14          6           0        4.424896   -1.551951    0.554401
     15          6           0        5.021387   -2.847726    0.492807
     16          6           0        4.174861   -3.930527    0.197426
     17          6           0        2.798365   -3.808580   -0.028248
     18          6           0        2.224950   -2.536568    0.063717
     19          6           0        3.045799   -1.433585    0.346658
     20          7           0        0.845001   -2.217340   -0.133709
     21          6           0       -0.211134   -2.970394   -0.589481
     22          6           0       -1.488231   -2.223094   -0.923983
     23          6           0       -1.493606   -0.933138   -1.481643
     24          6           0       -2.698501   -0.274370   -1.730244
     25          6           0       -3.937495   -0.879714   -1.448652
     26          6           0       -3.918106   -2.181967   -0.912539
     27          6           0       -2.717073   -2.852626   -0.667874
     28          6           0       -5.248186   -0.118338   -1.662221
     29          7           0       -5.737643    0.815344   -0.623254
     30          6           0       -4.823152    1.266302    0.452340
     31          6           0       -4.845783    0.357748    1.708815
     32          7           0       -6.195029    0.126503    2.276789
     33          6           0       -6.699173    1.157302    3.190935
     34          6           0       -7.111828   -0.296508    1.191546
     35          6           0       -7.094205    0.604939   -0.069372
     36          8           0       -0.153026   -4.184483   -0.704955
     37          6           0        6.505161   -3.094845    0.704979
     38          1           0        0.301351    5.787051   -1.224595
     39          1           0        2.566657    5.324443   -0.330339
     40          1           0        1.699085    1.116113   -0.831434
     41          1           0       -1.171846    3.864313   -1.863987
     42          1           0        4.682187    4.723491    0.306313
     43          1           0        6.796088    3.670060    1.102478
     44          1           0        6.194512   -0.575577    1.132039
     45          1           0        4.598002   -4.931873    0.128189
     46          1           0        2.181049   -4.667985   -0.260228
     47          1           0        2.609879   -0.450235    0.417037
     48          1           0        0.621748   -1.244941    0.026235
     49          1           0       -0.552719   -0.432976   -1.698526
     50          1           0       -2.662735    0.738677   -2.130783
     51          1           0       -4.853443   -2.685247   -0.669394
     52          1           0       -2.710580   -3.855500   -0.248002
     53          1           0       -5.169001    0.468296   -2.588658
     54          1           0       -6.032971   -0.872566   -1.822022
     55          1           0       -3.905442    1.426467    0.096706
     56          1           0       -5.348846    2.670321    0.944174
     57          1           0       -4.001316    1.007173    2.743106
     58          1           0       -4.321133   -0.807455    1.425706
     59          1           0       -6.854275    2.107188    2.667094
     60          1           0       -5.988417    1.317408    4.009425
     61          1           0       -7.650119    0.838596    3.632721
     62          1           0       -8.389312   -0.358652    1.683831
     63          1           0       -6.694082   -1.669826    0.762620
     64          1           0       -7.634295    1.992438    0.391821
     65          1           0       -7.762326    0.258426   -0.830947
     66          1           0        6.812553   -2.831009    1.726833
     67          1           0        7.116460   -2.499542    0.011926
     68          1           0        6.791448   -4.144495    0.551348
 ---------------------------------------------------------------------
 Rotational constants (GHZ):      0.1365706      0.0521885      0.0416954
 Leave Link  202 at Tue Mar 10 23:59:35 2020, MaxMem= 2684354560 cpu:       0.0
 (Enter /opt/g09gh/gaussian/g09/l301.exe)
 Standard basis: 6-31G(d) (6D, 7F)
 Ernie: Thresh=  0.10000D-02 Tol=  0.10000D-05 Strict=F.
 There are   617 symmetry adapted basis functions of A   symmetry.
 Integral buffers will be    131072 words long.
 Raffenetti 2 integral format.
 Two-electron integral symmetry is turned on.
   617 basis functions,  1160 primitive gaussians,   617 cartesian basis functions
   131 alpha electrons      131 beta electrons
       nuclear repulsion energy      3716.8590868371 Hartrees.
 IExCor= 4639 DFT=T Ex+Corr=wB97XD ExCW=0 ScaHFX=  1.000000
 ScaDFX=  1.000000  1.000000  1.000000  1.000000 ScalE2=  1.000000  1.000000
 IRadAn=      0 IRanWt=     -1 IRanGd=            0 ICorTp=0
  HFx wShort=  0.000000 wLong=  0.200000 cFull=  0.222036 cShort=  0.000000 cLong=  0.777964
  DFx wShort=  0.000000 wLong=  0.200000 cFull=  0.000000 cShort=  0.000000 cLong=  1.000000
 NAtoms=   68 NActive=   68 NUniq=   68 SFac= 7.50D-01 NAtFMM=   80 NAOKFM=F Big=T
 R6Disp: Dispersion energy =        -0.0568216963 Hartrees.
 Nuclear repulsion after empirical dispersion term =     3716.8022651407 Hartrees.
 Leave Link  301 at Tue Mar 10 23:59:35 2020, MaxMem= 2684354560 cpu:       0.3
 (Enter /opt/g09gh/gaussian/g09/l302.exe)
 NPDir=0 NMtPBC=     1 NCelOv=     1 NCel=       1 NClECP=     1 NCelD=      1
         NCelK=      1 NCelE2=     1 NClLst=     1 CellRange=     0.0.
 One-electron integrals computed using PRISM.
 NBasis=   617 RedAO= T  NBF=   617
 NBsUse=   617 1.00D-06 NBFU=   617
 Precomputing XC quadrature grid using
 IXCGrd= 2 IRadAn=           0 IRanWt=          -1 IRanGd=           0 AccXCQ= 1.00D-10.
 NRdTot=    4387 NPtTot=      560692 NUsed=      592298 NTot=      592330
 NSgBfM=   596   596   596   596   596 NAtAll=    68    68.
 Leave Link  302 at Tue Mar 10 23:59:36 2020, MaxMem= 2684354560 cpu:       7.6
 (Enter /opt/g09gh/gaussian/g09/l303.exe)
 DipDrv:  MaxL=1.
 Leave Link  303 at Tue Mar 10 23:59:36 2020, MaxMem= 2684354560 cpu:       0.5
 (Enter /opt/g09gh/gaussian/g09/l401.exe)
 Harris functional with IExCor= 4639 diagonalized for initial guess.
 ExpMin= 1.61D-01 ExpMax= 5.48D+03 ExpMxC= 8.25D+02 IAcc=1 IRadAn=         1 AccDes= 0.00D+00
 HarFok:  IExCor= 4639 AccDes= 0.00D+00 IRadAn=         1 IDoV= 1
 ScaDFX=  1.000000  1.000000  1.000000  1.000000
 FoFCou: FMM=F IPFlag=           0 FMFlag=      100000 FMFlg1=           1
         NFxFlg=           0 DoJE=T BraDBF=F KetDBF=T FulRan=T
         Omega=  0.000000  0.000000  1.000000  0.000000  0.000000 ICntrl=     500 IOpCl=  0
         NMat0=    1 NMatS0=    1 NMatT0=    0 NMatD0=    1 NMtDS0=    0 NMtDT0=    0
         I1Cent=           4 NGrid=           0.
 Petite list used in FoFCou.
 Harris En= -1512.36358375740    
 Initial guess orbital symmetries:
       Occupied  (A) (A) (A) (A) (A) (A) (A) (A) (A) (A) (A) (A)
                 (A) (A) (A) (A) (A) (A) (A) (A) (A) (A) (A) (A)
                 (A) (A) (A) (A) (A) (A) (A) (A) (A) (A) (A) (A)
                 (A) (A) (A) (A) (A) (A) (A) (A) (A) (A) (A) (A)
                 (A) (A) (A) (A) (A) (A) (A) (A) (A) (A) (A) (A)
                 (A) (A) (A) (A) (A) (A) (A) (A) (A) (A) (A) (A)
                 (A) (A) (A) (A) (A) (A) (A) (A) (A) (A) (A) (A)
                 (A) (A) (A) (A) (A) (A) (A) (A) (A) (A) (A) (A)
                 (A) (A) (A) (A) (A) (A) (A) (A) (A) (A) (A) (A)
                 (A) (A) (A) (A) (A) (A) (A) (A) (A) (A) (A) (A)
                 (A) (A) (A) (A) (A) (A) (A) (A) (A) (A) (A)
       Virtual   (A) (A) (A) (A) (A) (A) (A) (A) (A) (A) (A) (A)
                 (A) (A) (A) (A) (A) (A) (A) (A) (A) (A) (A) (A)
                 (A) (A) (A) (A) (A) (A) (A) (A) (A) (A) (A) (A)
                 (A) (A) (A) (A) (A) (A) (A) (A) (A) (A) (A) (A)
                 (A) (A) (A) (A) (A) (A) (A) (A) (A) (A) (A) (A)
                 (A) (A) (A) (A) (A) (A) (A) (A) (A) (A) (A) (A)
                 (A) (A) (A) (A) (A) (A) (A) (A) (A) (A) (A) (A)
                 (A) (A) (A) (A) (A) (A) (A) (A) (A) (A) (A) (A)
                 (A) (A) (A) (A) (A) (A) (A) (A) (A) (A) (A) (A)
                 (A) (A) (A) (A) (A) (A) (A) (A) (A) (A) (A) (A)
                 (A) (A) (A) (A) (A) (A) (A) (A) (A) (A) (A) (A)
                 (A) (A) (A) (A) (A) (A) (A) (A) (A) (A) (A) (A)
                 (A) (A) (A) (A) (A) (A) (A) (A) (A) (A) (A) (A)
                 (A) (A) (A) (A) (A) (A) (A) (A) (A) (A) (A) (A)
                 (A) (A) (A) (A) (A) (A) (A) (A) (A) (A) (A) (A)
                 (A) (A) (A) (A) (A) (A) (A) (A) (A) (A) (A) (A)
                 (A) (A) (A) (A) (A) (A) (A) (A) (A) (A) (A) (A)
                 (A) (A) (A) (A) (A) (A) (A) (A) (A) (A) (A) (A)
                 (A) (A) (A) (A) (A) (A) (A) (A) (A) (A) (A) (A)
                 (A) (A) (A) (A) (A) (A) (A) (A) (A) (A) (A) (A)
                 (A) (A) (A) (A) (A) (A) (A) (A) (A) (A) (A) (A)
                 (A) (A) (A) (A) (A) (A) (A) (A) (A) (A) (A) (A)
                 (A) (A) (A) (A) (A) (A) (A) (A) (A) (A) (A) (A)
                 (A) (A) (A) (A) (A) (A) (A) (A) (A) (A) (A) (A)
                 (A) (A) (A) (A) (A) (A) (A) (A) (A) (A) (A) (A)
                 (A) (A) (A) (A) (A) (A) (A) (A) (A) (A) (A) (A)
                 (A) (A) (A) (A) (A) (A) (A) (A) (A) (A) (A) (A)
                 (A) (A) (A) (A) (A) (A) (A) (A) (A) (A) (A) (A)
                 (A) (A) (A) (A) (A) (A) (A) (A) (A) (A) (A) (A)
                 (A) (A) (A) (A) (A) (A) (A) (A) (A) (A) (A) (A)
                 (A) (A) (A) (A) (A) (A) (A) (A) (A) (A) (A) (A)
                 (A) (A) (A) (A) (A) (A) (A) (A) (A) (A) (A) (A)
                 (A) (A) (A) (A) (A) (A) (A) (A) (A) (A) (A) (A)
                 (A) (A) (A) (A) (A) (A) (A) (A) (A) (A) (A) (A)
                 (A) (A) (A) (A) (A) (A) (A) (A) (A) (A) (A) (A)
                 (A) (A) (A) (A) (A) (A) (A) (A) (A) (A) (A) (A)
                 (A) (A) (A) (A) (A) (A) (A) (A) (A) (A) (A) (A)
                 (A) (A) (A) (A) (A) (A) (A) (A) (A) (A) (A) (A)
                 (A) (A) (A) (A) (A) (A) (A) (A) (A) (A) (A) (A)
                 (A) (A) (A) (A) (A) (A) (A) (A) (A) (A) (A) (A)
                 (A) (A) (A) (A) (A) (A)
 The electronic state of the initial guess is 1-A.
 Leave Link  401 at Tue Mar 10 23:59:39 2020, MaxMem= 2684354560 cpu:      14.7
 (Enter /opt/g09gh/gaussian/g09/l502.exe)
 Closed shell SCF:
 Requested convergence on RMS density matrix=1.00D-08 within 128 cycles.
 Requested convergence on MAX density matrix=1.00D-06.
 Requested convergence on             energy=1.00D-06.
 No special actions if energy rises.
 Using DIIS extrapolation, IDIIS=  1040.
 Integral symmetry usage will be decided dynamically.
       591673 words used for storage of precomputed grid.
 IEnd=     1760253 IEndB=     1760253 NGot=  2684354560 MDV=  2682992254
 LenX=  2682992254 LenY=  2682610948
 Fock matrices will be formed incrementally for  20 cycles.
 Integral accuracy reduced to 1.0D-05 until final iterations.

 Cycle   1  Pass 0  IDiag  1:
 FoFJK:  IHMeth= 1 ICntrl=     0 DoSepK=T KAlg= 1 I1Cent= 0 FoldK=F
 FoFCou: FMM=T IPFlag=           0 FMFlag=      100000 FMFlg1=           1
         NFxFlg=           0 DoJE=T BraDBF=F KetDBF=F FulRan=T
         Omega=  0.000000  0.000000  1.000000  0.000000  0.000000 ICntrl=     500 IOpCl=  0
         NMat0=    1 NMatS0=    1 NMatT0=    0 NMatD0=    1 NMtDS0=    0 NMtDT0=    0
         I1Cent=           0 NGrid=           0.
 Symmetry not used in FoFCou.
 FMM levels:  10  Number of levels for PrismC:   9
 E= -1581.10640570976    
 DIIS: error= 5.08D-02 at cycle   1 NSaved=   1.
 NSaved= 1 IEnMin= 1 EnMin= -1581.10640570976     IErMin= 1 ErrMin= 5.08D-02
 ErrMax= 5.08D-02 EMaxC= 1.00D-01 BMatC= 1.46D+00 BMatP= 1.46D+00
 IDIUse=3 WtCom= 4.92D-01 WtEn= 5.08D-01
 Coeff-Com:  0.100D+01
 Coeff-En:   0.100D+01
 Coeff:      0.100D+01
 Gap=     0.273 Goal=   None    Shift=    0.000
 GapD=    0.273 DampG=1.000 DampE=0.500 DampFc=0.5000 IDamp=-1.
 Damping current iteration by 5.00D-01
 RMSDP=1.89D-03 MaxDP=8.89D-02              OVMax= 1.71D-01

 Cycle   2  Pass 0  IDiag  1:
 RMSU=  6.68D-04    CP:  1.00D+00
 FoFJK:  IHMeth= 1 ICntrl=     0 DoSepK=T KAlg= 1 I1Cent= 0 FoldK=F
 E= -1581.28408321207     Delta-E=       -0.177677502314 Rises=F Damp=T
 DIIS: error= 2.57D-02 at cycle   2 NSaved=   2.
 NSaved= 2 IEnMin= 2 EnMin= -1581.28408321207     IErMin= 2 ErrMin= 2.57D-02
 ErrMax= 2.57D-02 EMaxC= 1.00D-01 BMatC= 3.22D-01 BMatP= 1.46D+00
 IDIUse=3 WtCom= 7.43D-01 WtEn= 2.57D-01
 Coeff-Com: -0.648D+00 0.165D+01
 Coeff-En:   0.000D+00 0.100D+01
 Coeff:     -0.482D+00 0.148D+01
 Gap=     0.280 Goal=   None    Shift=    0.000
 RMSDP=8.84D-04 MaxDP=3.84D-02 DE=-1.78D-01 OVMax= 1.23D-01

 Cycle   3  Pass 0  IDiag  1:
 RMSU=  5.75D-04    CP:  1.00D+00  1.37D+00
 FoFJK:  IHMeth= 1 ICntrl=     0 DoSepK=T KAlg= 1 I1Cent= 0 FoldK=F
 E= -1581.41069955884     Delta-E=       -0.126616346768 Rises=F Damp=F
 DIIS: error= 7.82D-03 at cycle   3 NSaved=   3.
 NSaved= 3 IEnMin= 3 EnMin= -1581.41069955884     IErMin= 3 ErrMin= 7.82D-03
 ErrMax= 7.82D-03 EMaxC= 1.00D-01 BMatC= 6.75D-02 BMatP= 3.22D-01
 IDIUse=3 WtCom= 9.22D-01 WtEn= 7.82D-02
 Coeff-Com: -0.370D+00 0.765D+00 0.605D+00
 Coeff-En:   0.000D+00 0.000D+00 0.100D+01
 Coeff:     -0.341D+00 0.706D+00 0.636D+00
 Gap=     0.261 Goal=   None    Shift=    0.000
 RMSDP=4.87D-04 MaxDP=3.20D-02 DE=-1.27D-01 OVMax= 6.36D-02

 Cycle   4  Pass 0  IDiag  1:
 RMSU=  1.44D-04    CP:  1.00D+00  1.67D+00  5.85D-01
 FoFJK:  IHMeth= 1 ICntrl=     0 DoSepK=T KAlg= 1 I1Cent= 0 FoldK=F
 E= -1581.47067999429     Delta-E=       -0.059980435451 Rises=F Damp=F
 DIIS: error= 2.31D-03 at cycle   4 NSaved=   4.
 NSaved= 4 IEnMin= 4 EnMin= -1581.47067999429     IErMin= 4 ErrMin= 2.31D-03
 ErrMax= 2.31D-03 EMaxC= 1.00D-01 BMatC= 3.84D-03 BMatP= 6.75D-02
 IDIUse=3 WtCom= 9.77D-01 WtEn= 2.31D-02
 Coeff-Com: -0.167D+00 0.340D+00 0.343D+00 0.484D+00
 Coeff-En:   0.000D+00 0.000D+00 0.000D+00 0.100D+01
 Coeff:     -0.163D+00 0.332D+00 0.335D+00 0.496D+00
 Gap=     0.255 Goal=   None    Shift=    0.000
 RMSDP=1.05D-04 MaxDP=8.99D-03 DE=-6.00D-02 OVMax= 1.04D-02

 Cycle   5  Pass 0  IDiag  1:
 RMSU=  4.64D-05    CP:  1.00D+00  1.65D+00  6.53D-01  7.17D-01
 FoFJK:  IHMeth= 1 ICntrl=     0 DoSepK=T KAlg= 1 I1Cent= 0 FoldK=F
 E= -1581.47404450936     Delta-E=       -0.003364515066 Rises=F Damp=F
 DIIS: error= 4.22D-04 at cycle   5 NSaved=   5.
 NSaved= 5 IEnMin= 5 EnMin= -1581.47404450936     IErMin= 5 ErrMin= 4.22D-04
 ErrMax= 4.22D-04 EMaxC= 1.00D-01 BMatC= 8.89D-05 BMatP= 3.84D-03
 IDIUse=3 WtCom= 9.96D-01 WtEn= 4.22D-03
 Coeff-Com: -0.142D-01 0.279D-01 0.493D-01 0.154D+00 0.783D+00
 Coeff-En:   0.000D+00 0.000D+00 0.000D+00 0.000D+00 0.100D+01
 Coeff:     -0.141D-01 0.278D-01 0.491D-01 0.154D+00 0.784D+00
 Gap=     0.253 Goal=   None    Shift=    0.000
 RMSDP=2.47D-05 MaxDP=2.49D-03 DE=-3.36D-03 OVMax= 2.96D-03

 Cycle   6  Pass 0  IDiag  1:
 RMSU=  1.33D-05    CP:  1.00D+00  1.66D+00  6.60D-01  7.86D-01  9.96D-01
 FoFJK:  IHMeth= 1 ICntrl=     0 DoSepK=T KAlg= 1 I1Cent= 0 FoldK=F
 E= -1581.47413386479     Delta-E=       -0.000089355432 Rises=F Damp=F
 DIIS: error= 3.25D-04 at cycle   6 NSaved=   6.
 NSaved= 6 IEnMin= 6 EnMin= -1581.47413386479     IErMin= 6 ErrMin= 3.25D-04
 ErrMax= 3.25D-04 EMaxC= 1.00D-01 BMatC= 2.69D-05 BMatP= 8.89D-05
 IDIUse=3 WtCom= 9.97D-01 WtEn= 3.25D-03
 Coeff-Com:  0.237D-01-0.490D-01-0.365D-01-0.147D-01 0.398D+00 0.679D+00
 Coeff-En:   0.000D+00 0.000D+00 0.000D+00 0.000D+00 0.000D+00 0.100D+01
 Coeff:      0.236D-01-0.488D-01-0.364D-01-0.146D-01 0.397D+00 0.680D+00
 Gap=     0.254 Goal=   None    Shift=    0.000
 RMSDP=1.32D-05 MaxDP=8.06D-04 DE=-8.94D-05 OVMax= 1.68D-03

 Cycle   7  Pass 0  IDiag  1:
 RMSU=  5.79D-06    CP:  1.00D+00  1.66D+00  6.64D-01  8.12D-01  1.11D+00
                    CP:  8.90D-01
 FoFJK:  IHMeth= 1 ICntrl=     0 DoSepK=T KAlg= 1 I1Cent= 0 FoldK=F
 E= -1581.47416431785     Delta-E=       -0.000030453059 Rises=F Damp=F
 DIIS: error= 5.14D-05 at cycle   7 NSaved=   7.
 NSaved= 7 IEnMin= 7 EnMin= -1581.47416431785     IErMin= 7 ErrMin= 5.14D-05
 ErrMax= 5.14D-05 EMaxC= 1.00D-01 BMatC= 1.76D-06 BMatP= 2.69D-05
 IDIUse=1 WtCom= 1.00D+00 WtEn= 0.00D+00
 Coeff-Com:  0.978D-02-0.200D-01-0.169D-01-0.201D-01 0.650D-01 0.238D+00
 Coeff-Com:  0.744D+00
 Coeff:      0.978D-02-0.200D-01-0.169D-01-0.201D-01 0.650D-01 0.238D+00
 Coeff:      0.744D+00
 Gap=     0.254 Goal=   None    Shift=    0.000
 RMSDP=4.15D-06 MaxDP=2.57D-04 DE=-3.05D-05 OVMax= 6.38D-04

 Initial convergence to 1.0D-05 achieved.  Increase integral accuracy.
 Cycle   8  Pass 1  IDiag  1:
 FoFJK:  IHMeth= 1 ICntrl=     0 DoSepK=T KAlg= 1 I1Cent= 0 FoldK=F
 E= -1581.47223938780     Delta-E=        0.001924930051 Rises=F Damp=F
 DIIS: error= 1.17D-04 at cycle   1 NSaved=   1.
 NSaved= 1 IEnMin= 1 EnMin= -1581.47223938780     IErMin= 1 ErrMin= 1.17D-04
 ErrMax= 1.17D-04 EMaxC= 1.00D-01 BMatC= 1.39D-05 BMatP= 1.39D-05
 IDIUse=3 WtCom= 9.99D-01 WtEn= 1.17D-03
 Coeff-Com:  0.100D+01
 Coeff-En:   0.100D+01
 Coeff:      0.100D+01
 Gap=     0.254 Goal=   None    Shift=    0.000
 RMSDP=4.15D-06 MaxDP=2.57D-04 DE= 1.92D-03 OVMax= 4.09D-04

 Cycle   9  Pass 1  IDiag  1:
 RMSU=  1.80D-05    CP:  1.00D+00
 FoFJK:  IHMeth= 1 ICntrl=     0 DoSepK=T KAlg= 1 I1Cent= 0 FoldK=F
 E= -1581.47225050035     Delta-E=       -0.000011112553 Rises=F Damp=F
 DIIS: error= 3.54D-05 at cycle   2 NSaved=   2.
 NSaved= 2 IEnMin= 2 EnMin= -1581.47225050035     IErMin= 2 ErrMin= 3.54D-05
 ErrMax= 3.54D-05 EMaxC= 1.00D-01 BMatC= 8.83D-07 BMatP= 1.39D-05
 IDIUse=1 WtCom= 1.00D+00 WtEn= 0.00D+00
 Coeff-Com:  0.429D-01 0.957D+00
 Coeff:      0.429D-01 0.957D+00
 Gap=     0.254 Goal=   None    Shift=    0.000
 RMSDP=3.32D-06 MaxDP=2.91D-04 DE=-1.11D-05 OVMax= 3.65D-04

 Cycle  10  Pass 1  IDiag  1:
 RMSU=  2.20D-06    CP:  1.00D+00  1.05D+00
 FoFJK:  IHMeth= 1 ICntrl=     0 DoSepK=T KAlg= 1 I1Cent= 0 FoldK=F
 E= -1581.47225058871     Delta-E=       -0.000000088361 Rises=F Damp=F
 DIIS: error= 5.15D-05 at cycle   3 NSaved=   3.
 NSaved= 3 IEnMin= 3 EnMin= -1581.47225058871     IErMin= 2 ErrMin= 3.54D-05
 ErrMax= 5.15D-05 EMaxC= 1.00D-01 BMatC= 1.08D-06 BMatP= 8.83D-07
 IDIUse=1 WtCom= 1.00D+00 WtEn= 0.00D+00
 Coeff-Com: -0.395D-01 0.542D+00 0.498D+00
 Coeff:     -0.395D-01 0.542D+00 0.498D+00
 Gap=     0.254 Goal=   None    Shift=    0.000
 RMSDP=1.65D-06 MaxDP=1.62D-04 DE=-8.84D-08 OVMax= 1.49D-04

 Cycle  11  Pass 1  IDiag  1:
 RMSU=  6.85D-07    CP:  1.00D+00  1.06D+00  5.81D-01
 FoFJK:  IHMeth= 1 ICntrl=     0 DoSepK=T KAlg= 1 I1Cent= 0 FoldK=F
 E= -1581.47225150660     Delta-E=       -0.000000917888 Rises=F Damp=F
 DIIS: error= 8.42D-06 at cycle   4 NSaved=   4.
 NSaved= 4 IEnMin= 4 EnMin= -1581.47225150660     IErMin= 4 ErrMin= 8.42D-06
 ErrMax= 8.42D-06 EMaxC= 1.00D-01 BMatC= 2.64D-08 BMatP= 8.83D-07
 IDIUse=1 WtCom= 1.00D+00 WtEn= 0.00D+00
 Coeff-Com: -0.181D-01 0.135D+00 0.175D+00 0.709D+00
 Coeff:     -0.181D-01 0.135D+00 0.175D+00 0.709D+00
 Gap=     0.254 Goal=   None    Shift=    0.000
 RMSDP=3.69D-07 MaxDP=3.77D-05 DE=-9.18D-07 OVMax= 4.39D-05

 Cycle  12  Pass 1  IDiag  1:
 RMSU=  2.35D-07    CP:  1.00D+00  1.06D+00  6.31D-01  1.03D+00
 FoFJK:  IHMeth= 1 ICntrl=     0 DoSepK=T KAlg= 1 I1Cent= 0 FoldK=F
 E= -1581.47225153465     Delta-E=       -0.000000028050 Rises=F Damp=F
 DIIS: error= 3.53D-06 at cycle   5 NSaved=   5.
 NSaved= 5 IEnMin= 5 EnMin= -1581.47225153465     IErMin= 5 ErrMin= 3.53D-06
 ErrMax= 3.53D-06 EMaxC= 1.00D-01 BMatC= 5.87D-09 BMatP= 2.64D-08
 IDIUse=1 WtCom= 1.00D+00 WtEn= 0.00D+00
 Coeff-Com: -0.235D-04-0.437D-01-0.214D-01 0.304D+00 0.761D+00
 Coeff:     -0.235D-04-0.437D-01-0.214D-01 0.304D+00 0.761D+00
 Gap=     0.254 Goal=   None    Shift=    0.000
 RMSDP=2.19D-07 MaxDP=1.31D-05 DE=-2.80D-08 OVMax= 3.27D-05

 Cycle  13  Pass 1  IDiag  1:
 RMSU=  9.97D-08    CP:  1.00D+00  1.06D+00  6.49D-01  1.19D+00  9.73D-01
 FoFJK:  IHMeth= 1 ICntrl=     0 DoSepK=T KAlg= 1 I1Cent= 0 FoldK=F
 E= -1581.47225154371     Delta-E=       -0.000000009065 Rises=F Damp=F
 DIIS: error= 7.07D-07 at cycle   6 NSaved=   6.
 NSaved= 6 IEnMin= 6 EnMin= -1581.47225154371     IErMin= 6 ErrMin= 7.07D-07
 ErrMax= 7.07D-07 EMaxC= 1.00D-01 BMatC= 6.35D-10 BMatP= 5.87D-09
 IDIUse=1 WtCom= 1.00D+00 WtEn= 0.00D+00
 Coeff-Com:  0.216D-02-0.295D-01-0.286D-01 0.136D-01 0.253D+00 0.790D+00
 Coeff:      0.216D-02-0.295D-01-0.286D-01 0.136D-01 0.253D+00 0.790D+00
 Gap=     0.254 Goal=   None    Shift=    0.000
 RMSDP=9.40D-08 MaxDP=3.79D-06 DE=-9.06D-09 OVMax= 1.93D-05

 Cycle  14  Pass 1  IDiag  1:
 RMSU=  3.98D-08    CP:  1.00D+00  1.06D+00  6.54D-01  1.25D+00  1.12D+00
                    CP:  1.09D+00
 FoFJK:  IHMeth= 1 ICntrl=     0 DoSepK=T KAlg= 1 I1Cent= 0 FoldK=F
 E= -1581.47225154526     Delta-E=       -0.000000001551 Rises=F Damp=F
 DIIS: error= 3.98D-07 at cycle   7 NSaved=   7.
 NSaved= 7 IEnMin= 7 EnMin= -1581.47225154526     IErMin= 7 ErrMin= 3.98D-07
 ErrMax= 3.98D-07 EMaxC= 1.00D-01 BMatC= 1.61D-10 BMatP= 6.35D-10
 IDIUse=1 WtCom= 1.00D+00 WtEn= 0.00D+00
 Coeff-Com:  0.833D-03-0.270D-02-0.800D-02-0.649D-01-0.640D-01 0.326D+00
 Coeff-Com:  0.813D+00
 Coeff:      0.833D-03-0.270D-02-0.800D-02-0.649D-01-0.640D-01 0.326D+00
 Coeff:      0.813D+00
 Gap=     0.254 Goal=   None    Shift=    0.000
 RMSDP=5.47D-08 MaxDP=2.23D-06 DE=-1.55D-09 OVMax= 9.68D-06

 Cycle  15  Pass 1  IDiag  1:
 RMSU=  1.76D-08    CP:  1.00D+00  1.06D+00  6.58D-01  1.28D+00  1.18D+00
                    CP:  1.32D+00  1.06D+00
 FoFJK:  IHMeth= 1 ICntrl=     0 DoSepK=T KAlg= 1 I1Cent= 0 FoldK=F
 E= -1581.47225154578     Delta-E=       -0.000000000522 Rises=F Damp=F
 DIIS: error= 1.56D-07 at cycle   8 NSaved=   8.
 NSaved= 8 IEnMin= 8 EnMin= -1581.47225154578     IErMin= 8 ErrMin= 1.56D-07
 ErrMax= 1.56D-07 EMaxC= 1.00D-01 BMatC= 2.20D-11 BMatP= 1.61D-10
 IDIUse=1 WtCom= 1.00D+00 WtEn= 0.00D+00
 Coeff-Com: -0.563D-04 0.390D-02 0.185D-02-0.250D-01-0.602D-01-0.629D-02
 Coeff-Com:  0.297D+00 0.789D+00
 Coeff:     -0.563D-04 0.390D-02 0.185D-02-0.250D-01-0.602D-01-0.629D-02
 Coeff:      0.297D+00 0.789D+00
 Gap=     0.254 Goal=   None    Shift=    0.000
 RMSDP=1.95D-08 MaxDP=9.22D-07 DE=-5.22D-10 OVMax= 4.81D-06

 Cycle  16  Pass 1  IDiag  1:
 RMSU=  6.77D-09    CP:  1.00D+00  1.06D+00  6.59D-01  1.28D+00  1.20D+00
                    CP:  1.39D+00  1.24D+00  1.05D+00
 FoFJK:  IHMeth= 1 ICntrl=     0 DoSepK=T KAlg= 1 I1Cent= 0 FoldK=F
 E= -1581.47225154581     Delta-E=       -0.000000000031 Rises=F Damp=F
 DIIS: error= 5.57D-08 at cycle   9 NSaved=   9.
 NSaved= 9 IEnMin= 9 EnMin= -1581.47225154581     IErMin= 9 ErrMin= 5.57D-08
 ErrMax= 5.57D-08 EMaxC= 1.00D-01 BMatC= 3.96D-12 BMatP= 2.20D-11
 IDIUse=1 WtCom= 1.00D+00 WtEn= 0.00D+00
 Coeff-Com: -0.182D-03 0.216D-02 0.237D-02 0.191D-02-0.130D-01-0.688D-01
 Coeff-Com: -0.377D-01 0.291D+00 0.822D+00
 Coeff:     -0.182D-03 0.216D-02 0.237D-02 0.191D-02-0.130D-01-0.688D-01
 Coeff:     -0.377D-01 0.291D+00 0.822D+00
 Gap=     0.254 Goal=   None    Shift=    0.000
 RMSDP=8.92D-09 MaxDP=4.63D-07 DE=-3.09D-11 OVMax= 2.13D-06

 SCF Done:  E(RwB97XD) =  -1581.47225155     A.U. after   16 cycles
             Convg  =    0.8924D-08             -V/T =  2.0110
 KE= 1.564199959627D+03 PE=-1.110161684774D+04 EE= 4.239142371429D+03
 Leave Link  502 at Wed Mar 11 00:02:15 2020, MaxMem= 2684354560 cpu:     935.9
 (Enter /opt/g09gh/gaussian/g09/l601.exe)
 Copying SCF densities to generalized density rwf, IOpCl= 0 IROHF=0.

 **********************************************************************

            Population analysis using the SCF density.

 **********************************************************************

 Orbital symmetries:
       Occupied  (A) (A) (A) (A) (A) (A) (A) (A) (A) (A) (A) (A)
                 (A) (A) (A) (A) (A) (A) (A) (A) (A) (A) (A) (A)
                 (A) (A) (A) (A) (A) (A) (A) (A) (A) (A) (A) (A)
                 (A) (A) (A) (A) (A) (A) (A) (A) (A) (A) (A) (A)
                 (A) (A) (A) (A) (A) (A) (A) (A) (A) (A) (A) (A)
                 (A) (A) (A) (A) (A) (A) (A) (A) (A) (A) (A) (A)
                 (A) (A) (A) (A) (A) (A) (A) (A) (A) (A) (A) (A)
                 (A) (A) (A) (A) (A) (A) (A) (A) (A) (A) (A) (A)
                 (A) (A) (A) (A) (A) (A) (A) (A) (A) (A) (A) (A)
                 (A) (A) (A) (A) (A) (A) (A) (A) (A) (A) (A) (A)
                 (A) (A) (A) (A) (A) (A) (A) (A) (A) (A) (A)
       Virtual   (A) (A) (A) (A) (A) (A) (A) (A) (A) (A) (A) (A)
                 (A) (A) (A) (A) (A) (A) (A) (A) (A) (A) (A) (A)
                 (A) (A) (A) (A) (A) (A) (A) (A) (A) (A) (A) (A)
                 (A) (A) (A) (A) (A) (A) (A) (A) (A) (A) (A) (A)
                 (A) (A) (A) (A) (A) (A) (A) (A) (A) (A) (A) (A)
                 (A) (A) (A) (A) (A) (A) (A) (A) (A) (A) (A) (A)
                 (A) (A) (A) (A) (A) (A) (A) (A) (A) (A) (A) (A)
                 (A) (A) (A) (A) (A) (A) (A) (A) (A) (A) (A) (A)
                 (A) (A) (A) (A) (A) (A) (A) (A) (A) (A) (A) (A)
                 (A) (A) (A) (A) (A) (A) (A) (A) (A) (A) (A) (A)
                 (A) (A) (A) (A) (A) (A) (A) (A) (A) (A) (A) (A)
                 (A) (A) (A) (A) (A) (A) (A) (A) (A) (A) (A) (A)
                 (A) (A) (A) (A) (A) (A) (A) (A) (A) (A) (A) (A)
                 (A) (A) (A) (A) (A) (A) (A) (A) (A) (A) (A) (A)
                 (A) (A) (A) (A) (A) (A) (A) (A) (A) (A) (A) (A)
                 (A) (A) (A) (A) (A) (A) (A) (A) (A) (A) (A) (A)
                 (A) (A) (A) (A) (A) (A) (A) (A) (A) (A) (A) (A)
                 (A) (A) (A) (A) (A) (A) (A) (A) (A) (A) (A) (A)
                 (A) (A) (A) (A) (A) (A) (A) (A) (A) (A) (A) (A)
                 (A) (A) (A) (A) (A) (A) (A) (A) (A) (A) (A) (A)
                 (A) (A) (A) (A) (A) (A) (A) (A) (A) (A) (A) (A)
                 (A) (A) (A) (A) (A) (A) (A) (A) (A) (A) (A) (A)
                 (A) (A) (A) (A) (A) (A) (A) (A) (A) (A) (A) (A)
                 (A) (A) (A) (A) (A) (A) (A) (A) (A) (A) (A) (A)
                 (A) (A) (A) (A) (A) (A) (A) (A) (A) (A) (A) (A)
                 (A) (A) (A) (A) (A) (A) (A) (A) (A) (A) (A) (A)
                 (A) (A) (A) (A) (A) (A) (A) (A) (A) (A) (A) (A)
                 (A) (A) (A) (A) (A) (A) (A) (A) (A) (A) (A) (A)
                 (A) (A) (A) (A) (A) (A) (A) (A) (A) (A) (A) (A)
                 (A) (A) (A) (A) (A) (A) (A) (A) (A) (A) (A) (A)
                 (A) (A) (A) (A) (A) (A) (A) (A) (A) (A) (A) (A)
                 (A) (A) (A) (A) (A) (A) (A) (A) (A) (A) (A) (A)
                 (A) (A) (A) (A) (A) (A) (A) (A) (A) (A) (A) (A)
                 (A) (A) (A) (A) (A) (A) (A) (A) (A) (A) (A) (A)
                 (A) (A) (A) (A) (A) (A) (A) (A) (A) (A) (A) (A)
                 (A) (A) (A) (A) (A) (A) (A) (A) (A) (A) (A) (A)
                 (A) (A) (A) (A) (A) (A) (A) (A) (A) (A) (A) (A)
                 (A) (A) (A) (A) (A) (A) (A) (A) (A) (A) (A) (A)
                 (A) (A) (A) (A) (A) (A) (A) (A) (A) (A) (A) (A)
                 (A) (A) (A) (A) (A) (A) (A) (A) (A) (A) (A) (A)
                 (A) (A) (A) (A) (A) (A)
 The electronic state is 1-A.
 Alpha  occ. eigenvalues --  -19.23644 -14.49605 -14.49067 -14.46789 -14.46273
 Alpha  occ. eigenvalues --  -14.46076 -14.45924 -14.45245 -10.42216 -10.40741
 Alpha  occ. eigenvalues --  -10.38370 -10.38239 -10.37028 -10.36549 -10.36174
 Alpha  occ. eigenvalues --  -10.35896 -10.35420 -10.35291 -10.35113 -10.35087
 Alpha  occ. eigenvalues --  -10.34461 -10.34330 -10.34054 -10.33033 -10.32352
 Alpha  occ. eigenvalues --  -10.32351 -10.31995 -10.31514 -10.31405 -10.31168
 Alpha  occ. eigenvalues --  -10.31164 -10.31083 -10.31080 -10.30430 -10.30305
 Alpha  occ. eigenvalues --  -10.29793 -10.29282  -1.13704  -1.11678  -1.05764
 Alpha  occ. eigenvalues --   -1.03861  -1.03436  -1.03207  -1.00241  -0.99571
 Alpha  occ. eigenvalues --   -0.96225  -0.94656  -0.92609  -0.89517  -0.88204
 Alpha  occ. eigenvalues --   -0.87270  -0.86522  -0.84974  -0.83967  -0.83655
 Alpha  occ. eigenvalues --   -0.81823  -0.79573  -0.78050  -0.77908  -0.76109
 Alpha  occ. eigenvalues --   -0.73552  -0.73015  -0.72553  -0.71329  -0.70735
 Alpha  occ. eigenvalues --   -0.70355  -0.69729  -0.68123  -0.66418  -0.64820
 Alpha  occ. eigenvalues --   -0.63417  -0.62438  -0.61733  -0.60577  -0.60234
 Alpha  occ. eigenvalues --   -0.58706  -0.58450  -0.57129  -0.56716  -0.56241
 Alpha  occ. eigenvalues --   -0.55984  -0.55549  -0.54846  -0.54444  -0.53689
 Alpha  occ. eigenvalues --   -0.53515  -0.52518  -0.52161  -0.51986  -0.51622
 Alpha  occ. eigenvalues --   -0.51472  -0.51266  -0.51048  -0.50973  -0.50459
 Alpha  occ. eigenvalues --   -0.50292  -0.50049  -0.49946  -0.49456  -0.47963
 Alpha  occ. eigenvalues --   -0.47471  -0.47161  -0.46565  -0.46518  -0.46201
 Alpha  occ. eigenvalues --   -0.45327  -0.44537  -0.44426  -0.43997  -0.43610
 Alpha  occ. eigenvalues --   -0.43369  -0.43112  -0.42185  -0.41593  -0.40222
 Alpha  occ. eigenvalues --   -0.39425  -0.38238  -0.37992  -0.37451  -0.35842
 Alpha  occ. eigenvalues --   -0.35525  -0.35273  -0.34047  -0.33769  -0.33423
 Alpha  occ. eigenvalues --   -0.33136  -0.32147  -0.31326  -0.29548  -0.27595
 Alpha  occ. eigenvalues --   -0.26209
 Alpha virt. eigenvalues --   -0.00772   0.02536   0.02948   0.04416   0.05579
 Alpha virt. eigenvalues --    0.07153   0.07354   0.07668   0.09789   0.09978
 Alpha virt. eigenvalues --    0.11742   0.12331   0.13688   0.14039   0.15872
 Alpha virt. eigenvalues --    0.15959   0.17042   0.17667   0.18285   0.18830
 Alpha virt. eigenvalues --    0.19278   0.19694   0.20061   0.21142   0.21492
 Alpha virt. eigenvalues --    0.21832   0.22554   0.22623   0.23041   0.23666
 Alpha virt. eigenvalues --    0.23904   0.24253   0.24630   0.24995   0.25071
 Alpha virt. eigenvalues --    0.25521   0.25866   0.26448   0.26616   0.26918
 Alpha virt. eigenvalues --    0.27685   0.27834   0.28015   0.28331   0.28733
 Alpha virt. eigenvalues --    0.29175   0.29441   0.30086   0.30304   0.31068
 Alpha virt. eigenvalues --    0.31353   0.31704   0.32087   0.33287   0.33811
 Alpha virt. eigenvalues --    0.33975   0.34691   0.35905   0.36197   0.37151
 Alpha virt. eigenvalues --    0.37672   0.37891   0.38440   0.39021   0.39474
 Alpha virt. eigenvalues --    0.40232   0.40766   0.41095   0.41336   0.41901
 Alpha virt. eigenvalues --    0.43337   0.44843   0.45169   0.46100   0.46889
 Alpha virt. eigenvalues --    0.47827   0.49171   0.51489   0.52547   0.53277
 Alpha virt. eigenvalues --    0.55167   0.55882   0.57078   0.57586   0.58150
 Alpha virt. eigenvalues --    0.58563   0.58839   0.59427   0.59755   0.59915
 Alpha virt. eigenvalues --    0.60663   0.61134   0.61753   0.61976   0.62170
 Alpha virt. eigenvalues --    0.62762   0.63123   0.63514   0.63839   0.64403
 Alpha virt. eigenvalues --    0.64584   0.64715   0.64818   0.65142   0.65446
 Alpha virt. eigenvalues --    0.65484   0.65783   0.66230   0.66444   0.66553
 Alpha virt. eigenvalues --    0.66693   0.67100   0.67228   0.67964   0.68197
 Alpha virt. eigenvalues --    0.69077   0.69355   0.69642   0.70053   0.70559
 Alpha virt. eigenvalues --    0.70595   0.70788   0.70945   0.71147   0.71896
 Alpha virt. eigenvalues --    0.72177   0.72284   0.72765   0.73245   0.73890
 Alpha virt. eigenvalues --    0.74268   0.74633   0.75118   0.75641   0.76000
 Alpha virt. eigenvalues --    0.76702   0.77137   0.77518   0.79069   0.79492
 Alpha virt. eigenvalues --    0.80305   0.80729   0.80873   0.81721   0.82504
 Alpha virt. eigenvalues --    0.83027   0.83237   0.83562   0.83861   0.84799
 Alpha virt. eigenvalues --    0.85826   0.86173   0.86622   0.87069   0.87640
 Alpha virt. eigenvalues --    0.88213   0.88818   0.89177   0.89431   0.89779
 Alpha virt. eigenvalues --    0.90564   0.90719   0.91205   0.91621   0.92233
 Alpha virt. eigenvalues --    0.92906   0.92973   0.93450   0.93664   0.94137
 Alpha virt. eigenvalues --    0.94264   0.94647   0.94960   0.95348   0.95815
 Alpha virt. eigenvalues --    0.96413   0.96687   0.97110   0.97722   0.98209
 Alpha virt. eigenvalues --    0.98908   0.99051   0.99467   0.99532   1.00554
 Alpha virt. eigenvalues --    1.00610   1.01684   1.01852   1.02101   1.02512
 Alpha virt. eigenvalues --    1.03088   1.04523   1.05501   1.06114   1.06377
[...]
                 (A) (A) (A) (A) (A) (A) (A) (A) (A) (A) (A) (A)
                 (A) (A) (A) (A) (A) (A) (A) (A) (A) (A) (A) (A)
                 (A) (A) (A) (A) (A) (A) (A) (A) (A) (A) (A) (A)
                 (A) (A) (A) (A) (A) (A) (A) (A) (A) (A) (A) (A)
                 (A) (A) (A) (A) (A) (A) (A) (A) (A) (A) (A) (A)
                 (A) (A) (A) (A) (A) (A) (A) (A) (A) (A) (A) (A)
                 (A) (A) (A) (A) (A) (A) (A) (A) (A) (A) (A) (A)
                 (A) (A) (A) (A) (A) (A) (A) (A) (A) (A) (A) (A)
                 (A) (A) (A) (A) (A) (A) (A) (A) (A) (A) (A) (A)
                 (A) (A) (A) (A) (A) (A) (A) (A) (A) (A) (A) (A)
                 (A) (A) (A) (A) (A) (A) (A) (A) (A) (A) (A) (A)
                 (A) (A) (A) (A) (A) (A) (A) (A) (A) (A) (A) (A)
                 (A) (A) (A) (A) (A) (A) (A) (A) (A) (A) (A) (A)
                 (A) (A) (A) (A) (A) (A) (A) (A) (A) (A) (A) (A)
                 (A) (A) (A) (A) (A) (A) (A) (A) (A) (A) (A) (A)
                 (A) (A) (A) (A) (A) (A) (A) (A) (A) (A) (A) (A)
                 (A) (A) (A) (A) (A) (A) (A) (A) (A) (A) (A) (A)
                 (A) (A) (A) (A) (A) (A) (A) (A) (A) (A) (A) (A)
                 (A) (A) (A) (A) (A) (A) (A) (A) (A) (A) (A) (A)
                 (A) (A) (A) (A) (A) (A) (A) (A) (A) (A) (A) (A)
                 (A) (A) (A) (A) (A) (A) (A) (A) (A) (A) (A) (A)
                 (A) (A) (A) (A) (A) (A) (A) (A) (A) (A) (A) (A)
                 (A) (A) (A) (A) (A) (A) (A) (A) (A) (A) (A) (A)
                 (A) (A) (A) (A) (A) (A) (A) (A) (A) (A) (A) (A)
                 (A) (A) (A) (A) (A) (A) (A) (A) (A) (A) (A) (A)
                 (A) (A) (A) (A) (A) (A) (A) (A) (A) (A) (A) (A)
                 (A) (A) (A) (A) (A) (A) (A) (A) (A) (A) (A) (A)
                 (A) (A) (A) (A) (A) (A) (A) (A) (A) (A) (A) (A)
                 (A) (A) (A) (A) (A) (A) (A) (A) (A) (A) (A) (A)
                 (A) (A) (A) (A) (A) (A) (A) (A) (A) (A) (A) (A)
                 (A) (A) (A) (A) (A) (A) (A) (A) (A) (A) (A) (A)
                 (A) (A) (A) (A) (A) (A) (A) (A) (A) (A) (A) (A)
                 (A) (A) (A) (A) (A) (A)
 The electronic state is 1-A.
 Alpha  occ. eigenvalues --  -19.23412 -14.49282 -14.48321 -14.46751 -14.46096
 Alpha  occ. eigenvalues --  -14.45764 -14.43617 -14.43135 -10.41778 -10.40081
 Alpha  occ. eigenvalues --  -10.37615 -10.36338 -10.35325 -10.35085 -10.34623
 Alpha  occ. eigenvalues --  -10.34135 -10.34016 -10.33623 -10.32863 -10.32367
 Alpha  occ. eigenvalues --  -10.31860 -10.31492 -10.31178 -10.30936 -10.30708
 Alpha  occ. eigenvalues --  -10.30688 -10.30677 -10.30586 -10.30533 -10.30403
 Alpha  occ. eigenvalues --  -10.30377 -10.30220 -10.30020 -10.29974 -10.29575
 Alpha  occ. eigenvalues --  -10.28740 -10.28405  -1.13444  -1.12295  -1.06322
 Alpha  occ. eigenvalues --   -1.04565  -1.03829  -1.03634  -1.00715  -0.99558
 Alpha  occ. eigenvalues --   -0.96086  -0.94671  -0.93098  -0.89778  -0.88124
 Alpha  occ. eigenvalues --   -0.87389  -0.86227  -0.85399  -0.84542  -0.83783
 Alpha  occ. eigenvalues --   -0.81888  -0.79581  -0.78270  -0.77798  -0.76320
 Alpha  occ. eigenvalues --   -0.73881  -0.73301  -0.73025  -0.72621  -0.70870
 Alpha  occ. eigenvalues --   -0.70314  -0.69615  -0.68039  -0.66413  -0.65150
 Alpha  occ. eigenvalues --   -0.63656  -0.63409  -0.62228  -0.61762  -0.60211
 Alpha  occ. eigenvalues --   -0.58848  -0.58045  -0.57570  -0.56611  -0.56101
 Alpha  occ. eigenvalues --   -0.55817  -0.55236  -0.55134  -0.54965  -0.54255
 Alpha  occ. eigenvalues --   -0.53867  -0.53239  -0.53154  -0.52612  -0.52175
 Alpha  occ. eigenvalues --   -0.51912  -0.51510  -0.51370  -0.50999  -0.50575
 Alpha  occ. eigenvalues --   -0.50365  -0.50116  -0.49974  -0.49497  -0.48335
 Alpha  occ. eigenvalues --   -0.47217  -0.46906  -0.46619  -0.46319  -0.46210
 Alpha  occ. eigenvalues --   -0.45762  -0.45236  -0.44797  -0.44045  -0.43932
 Alpha  occ. eigenvalues --   -0.43328  -0.43017  -0.42141  -0.41766  -0.41439
 Alpha  occ. eigenvalues --   -0.40964  -0.40777  -0.39912  -0.38187  -0.37592
 Alpha  occ. eigenvalues --   -0.35821  -0.35293  -0.34002  -0.33447  -0.33373
 Alpha  occ. eigenvalues --   -0.32818  -0.31904  -0.30772  -0.29115  -0.27080
 Alpha  occ. eigenvalues --   -0.24996
 Alpha virt. eigenvalues --   -0.00292   0.02872   0.03586   0.04480   0.06433
 Alpha virt. eigenvalues --    0.07258   0.08204   0.10371   0.13887   0.14814
 Alpha virt. eigenvalues --    0.15728   0.16386   0.17252   0.17441   0.18252
 Alpha virt. eigenvalues --    0.19198   0.19759   0.20074   0.20198   0.20629
 Alpha virt. eigenvalues --    0.21234   0.21899   0.22615   0.22766   0.23135
 Alpha virt. eigenvalues --    0.23343   0.23537   0.24192   0.24361   0.24838
 Alpha virt. eigenvalues --    0.25118   0.25124   0.26082   0.26489   0.26551
 Alpha virt. eigenvalues --    0.27066   0.27431   0.27681   0.27996   0.28428
 Alpha virt. eigenvalues --    0.28563   0.28864   0.29437   0.29708   0.30282
 Alpha virt. eigenvalues --    0.31014   0.31165   0.31764   0.32124   0.32246
 Alpha virt. eigenvalues --    0.32892   0.33213   0.33674   0.33955   0.34427
 Alpha virt. eigenvalues --    0.35001   0.36038   0.36537   0.37754   0.38122
 Alpha virt. eigenvalues --    0.38651   0.38809   0.39299   0.40138   0.40739
 Alpha virt. eigenvalues --    0.41234   0.41464   0.42063   0.42207   0.42712
 Alpha virt. eigenvalues --    0.43814   0.45043   0.46207   0.47058   0.47330
 Alpha virt. eigenvalues --    0.48355   0.49428   0.51937   0.53014   0.54230
 Alpha virt. eigenvalues --    0.55739   0.56536   0.57256   0.57912   0.58308
 Alpha virt. eigenvalues --    0.59047   0.59371   0.59611   0.60510   0.60897
 Alpha virt. eigenvalues --    0.61370   0.61486   0.61680   0.62222   0.62698
 Alpha virt. eigenvalues --    0.63200   0.63354   0.63864   0.64090   0.64889
 Alpha virt. eigenvalues --    0.64932   0.65336   0.65507   0.65529   0.65821
 Alpha virt. eigenvalues --    0.66021   0.66272   0.66897   0.66982   0.67472
 Alpha virt. eigenvalues --    0.67615   0.67787   0.68307   0.68615   0.69045
 Alpha virt. eigenvalues --    0.69766   0.70018   0.70550   0.71042   0.71240
 Alpha virt. eigenvalues --    0.71762   0.72092   0.72268   0.72585   0.73055
 Alpha virt. eigenvalues --    0.73334   0.73462   0.74255   0.75226   0.75348
 Alpha virt. eigenvalues --    0.75595   0.75945   0.76256   0.76931   0.77677
 Alpha virt. eigenvalues --    0.77802   0.79112   0.80382   0.80455   0.81762
 Alpha virt. eigenvalues --    0.81971   0.82305   0.83130   0.83262   0.84194
 Alpha virt. eigenvalues --    0.84654   0.85717   0.86629   0.86888   0.87423
 Alpha virt. eigenvalues --    0.88279   0.89046   0.89674   0.90199   0.90739
 Alpha virt. eigenvalues --    0.90925   0.91156   0.91468   0.92209   0.92295
 Alpha virt. eigenvalues --    0.92393   0.92543   0.93563   0.93885   0.94046
 Alpha virt. eigenvalues --    0.94342   0.94529   0.94676   0.95249   0.95604
 Alpha virt. eigenvalues --    0.95949   0.96541   0.97598   0.98197   0.98359
 Alpha virt. eigenvalues --    0.98516   0.99008   0.99058   0.99701   0.99825
 Alpha virt. eigenvalues --    1.00450   1.00624   1.01372   1.01925   1.02023
 Alpha virt. eigenvalues --    1.02502   1.02652   1.03218   1.03674   1.04408
 Alpha virt. eigenvalues --    1.05621   1.05882   1.06646   1.06768   1.07379
 Alpha virt. eigenvalues --    1.07618   1.08220   1.08750   1.08900   1.09056
 Alpha virt. eigenvalues --    1.10208   1.10699   1.11028   1.11714   1.12089
 Alpha virt. eigenvalues --    1.12635   1.13094   1.13795   1.14266   1.15632
 Alpha virt. eigenvalues --    1.16462   1.16988   1.17694   1.18301   1.19272
 Alpha virt. eigenvalues --    1.20081   1.21180   1.21738   1.23134   1.23418
 Alpha virt. eigenvalues --    1.24744   1.25515   1.26099   1.26962   1.27423
 Alpha virt. eigenvalues --    1.29018   1.29353   1.29702   1.30410   1.30872
 Alpha virt. eigenvalues --    1.31924   1.33068   1.33761   1.33901   1.34764
 Alpha virt. eigenvalues --    1.35489   1.36941   1.37300   1.37889   1.38644
 Alpha virt. eigenvalues --    1.39296   1.42346   1.43368   1.43716   1.44584
 Alpha virt. eigenvalues --    1.46486   1.47299   1.47753   1.48438   1.48546
 Alpha virt. eigenvalues --    1.48647   1.49181   1.49465   1.50258   1.51634
 Alpha virt. eigenvalues --    1.51970   1.52736   1.53660   1.54082   1.54529
 Alpha virt. eigenvalues --    1.55185   1.55559   1.56281   1.56872   1.56983
 Alpha virt. eigenvalues --    1.57523   1.57806   1.58457   1.59181   1.59303
 Alpha virt. eigenvalues --    1.59660   1.60103   1.60818   1.61983   1.62519
 Alpha virt. eigenvalues --    1.63915   1.64940   1.65123   1.65691   1.67671
 Alpha virt. eigenvalues --    1.68408   1.69750   1.72014   1.75169   1.76230
 Alpha virt. eigenvalues --    1.78748   1.80597   1.81506   1.82526   1.84277
 Alpha virt. eigenvalues --    1.84718   1.85642   1.86428   1.86958   1.87887
 Alpha virt. eigenvalues --    1.87957   1.88947   1.89940   1.90637   1.90825
 Alpha virt. eigenvalues --    1.91215   1.92461   1.92803   1.93433   1.94262
 Alpha virt. eigenvalues --    1.94426   1.94936   1.95569   1.96612   1.97940
 Alpha virt. eigenvalues --    1.98715   1.99602   2.00121   2.00241   2.01197
 Alpha virt. eigenvalues --    2.01310   2.01499   2.01782   2.02573   2.03679
 Alpha virt. eigenvalues --    2.05537   2.06500   2.06638   2.07326   2.08211
 Alpha virt. eigenvalues --    2.08612   2.08851   2.09737   2.10841   2.11394
 Alpha virt. eigenvalues --    2.12240   2.12580   2.13555   2.14167   2.14816
 Alpha virt. eigenvalues --    2.15877   2.16187   2.17693   2.19548   2.20431
 Alpha virt. eigenvalues --    2.21103   2.21283   2.21687   2.22413   2.22784
 Alpha virt. eigenvalues --    2.22976   2.23632   2.23941   2.24603   2.25134
 Alpha virt. eigenvalues --    2.25945   2.26147   2.26368   2.26888   2.28050
 Alpha virt. eigenvalues --    2.28544   2.29388   2.29952   2.31588   2.32593
 Alpha virt. eigenvalues --    2.34098   2.34927   2.36375   2.37132   2.37172
 Alpha virt. eigenvalues --    2.37913   2.38058   2.38213   2.39475   2.39886
 Alpha virt. eigenvalues --    2.40252   2.40812   2.42121   2.42800   2.43235
 Alpha virt. eigenvalues --    2.43390   2.44332   2.44773   2.44889   2.46220
 Alpha virt. eigenvalues --    2.46452   2.47886   2.48103   2.49416   2.49811
 Alpha virt. eigenvalues --    2.50304   2.50932   2.52050   2.53872   2.56003
 Alpha virt. eigenvalues --    2.58455   2.59876   2.60857   2.62124   2.63397
 Alpha virt. eigenvalues --    2.64709   2.65081   2.65952   2.66090   2.67626
 Alpha virt. eigenvalues --    2.68705   2.70008   2.71800   2.72056   2.72666
 Alpha virt. eigenvalues --    2.74010   2.74385   2.75463   2.76174   2.76865
 Alpha virt. eigenvalues --    2.77168   2.78480   2.78950   2.80939   2.81729
 Alpha virt. eigenvalues --    2.82745   2.83150   2.83723   2.84482   2.85526
 Alpha virt. eigenvalues --    2.86030   2.86479   2.87315   2.88412   2.89257
 Alpha virt. eigenvalues --    2.89962   2.91945   2.92700   2.93385   2.94567
 Alpha virt. eigenvalues --    2.94833   2.96131   2.97874   3.01370   3.02992
 Alpha virt. eigenvalues --    3.04140   3.06693   3.09290   3.10083   3.12017
 Alpha virt. eigenvalues --    3.18947   3.26897   3.29151   3.39172   3.41513
 Alpha virt. eigenvalues --    3.45038   3.53455   3.56406   3.57587   4.12660
 Alpha virt. eigenvalues --    4.13539   4.15200   4.16853   4.18259   4.19134
 Alpha virt. eigenvalues --    4.19562   4.20447   4.21989   4.23544   4.25288
 Alpha virt. eigenvalues --    4.26034   4.27471   4.28698   4.30759   4.31718
 Alpha virt. eigenvalues --    4.33381   4.34589   4.36932   4.40132   4.40368
 Alpha virt. eigenvalues --    4.41611   4.44510   4.46129   4.49150   4.49438
 Alpha virt. eigenvalues --    4.49747   4.52846   4.57340   4.60739   4.61922
 Alpha virt. eigenvalues --    4.64162   4.67478   4.69410   4.79023   4.85075
 Alpha virt. eigenvalues --    4.89517
          Condensed to atoms (all electrons):
 Mulliken atomic charges:
              1
     1  C   -0.197838
     2  C   -0.154408
     3  C    0.035517
     4  C    0.009576
     5  N   -0.437524
     6  C    0.035732
     7  C    0.295141
     8  C   -0.254761
     9  C    0.049014
    10  N   -0.493035
    11  C    0.714350
    12  N   -0.568386
    13  N   -0.802043
    14  C    0.291471
    15  C    0.119865
    16  C   -0.240380
    17  C   -0.191300
    18  C    0.358131
    19  C   -0.269679
    20  N   -0.757956
    21  C    0.585729
    22  C    0.015196
    23  C   -0.205353
    24  C   -0.217902
    25  C    0.155953
    26  C   -0.223077
    27  C   -0.178380
    28  C   -0.263548
    29  N   -0.382219
    30  C   -0.183901
    31  C   -0.181779
    32  N   -0.385707
    33  C   -0.349274
    34  C   -0.182636
    35  C   -0.186531
    36  O   -0.513270
    37  C   -0.607367
    38  H    0.186142
    39  H    0.186726
    40  H    0.198122
    41  H    0.179048
    42  H    0.180745
    43  H    0.189491
    44  H    0.369211
    45  H    0.160819
    46  H    0.213082
    47  H    0.199356
    48  H    0.361553
    49  H    0.185453
    50  H    0.172063
    51  H    0.163619
    52  H    0.195608
    53  H    0.170277
    54  H    0.168921
    55  H    0.148152
    56  H    0.158354
    57  H    0.141652
    58  H    0.174892
    59  H    0.135263
    60  H    0.164117
    61  H    0.167875
    62  H    0.153493
    63  H    0.172938
    64  H    0.159417
    65  H    0.154989
    66  H    0.178045
    67  H    0.182737
    68  H    0.190419
 Sum of Mulliken atomic charges =   0.00000
 Mulliken charges with hydrogens summed into heavy atoms:
              1
     1  C   -0.011696
     2  C    0.032318
     3  C    0.035517
     4  C    0.207698
     5  N   -0.437524
     6  C    0.214780
     7  C    0.295141
     8  C   -0.074016
     9  C    0.238505
    10  N   -0.493035
    11  C    0.714350
    12  N   -0.568386
    13  N   -0.432832
    14  C    0.291471
    15  C    0.119865
    16  C   -0.079561
    17  C    0.021782
    18  C    0.358131
    19  C   -0.070324
    20  N   -0.396402
    21  C    0.585729
    22  C    0.015196
    23  C   -0.019901
    24  C   -0.045839
    25  C    0.155953
    26  C   -0.059458
    27  C    0.017228
    28  C    0.075649
    29  N   -0.382219
    30  C    0.122605
    31  C    0.134765
    32  N   -0.385707
    33  C    0.117982
    34  C    0.143795
    35  C    0.127875
    36  O   -0.513270
    37  C   -0.056166
 Sum of Mulliken charges with hydrogens summed into heavy atoms =   0.00000
 Electronic spatial extent (au):  <R**2>=          21211.7618
 Charge=              0.0000 electrons
 Dipole moment (field-independent basis, Debye):
    X=              0.5805    Y=              6.5719    Z=              0.4335  Tot=              6.6118
 Quadrupole moment (field-independent basis, Debye-Ang):
   XX=           -193.3017   YY=           -202.5049   ZZ=           -220.4854
   XY=              3.1067   XZ=             -1.2837   YZ=             -5.2163
 Traceless Quadrupole moment (field-independent basis, Debye-Ang):
   XX=             12.1289   YY=              2.9258   ZZ=            -15.0547
   XY=              3.1067   XZ=             -1.2837   YZ=             -5.2163
 Octapole moment (field-independent basis, Debye-Ang**2):
  XXX=             80.0631  YYY=            204.3839  ZZZ=             11.3477  XYY=             33.4197
  XXY=            -43.1270  XXZ=             31.6418  XZZ=            -22.7162  YZZ=              1.3411
  YYZ=             17.7444  XYZ=              2.2811
 Hexadecapole moment (field-independent basis, Debye-Ang**3):
 XXXX=         -18570.4872 YYYY=          -7864.8682 ZZZZ=          -1607.4769 XXXY=            -50.9518
 XXXZ=           -102.9791 YYYX=            149.1389 YYYZ=            -76.1806 ZZZX=            -50.0300
 ZZZY=             15.0235 XXYY=          -4005.4153 XXZZ=          -3409.2308 YYZZ=          -1721.4272
 XXYZ=            -52.7177 YYXZ=            -15.9458 ZZXY=            -24.5840
 N-N= 3.895102063338D+03 E-N=-1.146179952277D+04  KE= 1.567155676679D+03
 No NMR shielding tensors so no spin-rotation constants.
 Leave Link  601 at Wed Mar 11 01:48:26 2020, MaxMem= 2684354560 cpu:       3.2
 (Enter /opt/g09gh/gaussian/g09/l9999.exe)
 1\1\GINC-NODE43\FOpt\RwB97XD\6-31G(d)\C29H31N7O1\BDW2292\11-Mar-2020\0
 \\#P opt=(,maxcycle=400) wB97XD/6-31G* MaxDisk=100GB\\MOLECULE0 Rotata
 ble Bond Optimization on g2-node38.bme.utexas.edu\\0,1\C,-0.857846073,
 4.0944548342,-0.3957156872\C,0.4818777032,4.0267045942,-0.0329061141\C
 ,1.1982013407,2.8621356123,-0.3039413254\C,0.514971759,1.8193199455,-0
 .9437147195\N,-0.7688748461,1.8689334323,-1.2945324869\C,-1.436622176,
 2.9923599212,-1.0155957714\C,2.6181084792,2.6759392419,0.0884937889\C,
 3.5152970963,3.7228174881,0.2798193263\C,4.8042911688,3.3609358066,0.6
 696356573\N,5.1964163878,2.1071354294,0.8498643765\C,4.2544104629,1.16
 93184863,0.6224286638\N,2.9944290778,1.4060706475,0.2576338964\N,4.677
 0604567,-0.119990425,0.7980319187\C,4.0006602772,-1.3348444705,0.57983
 03085\C,4.7609764004,-2.5189582719,0.4949372916\C,4.0794123471,-3.7091
 434804,0.2555840042\C,2.6984991663,-3.7802486986,0.0810640095\C,1.9706
 044714,-2.5977990371,0.1732096159\C,2.6187048362,-1.3939943756,0.44826
 0422\N,0.5841491019,-2.4877096019,-0.0236363174\C,-0.3200736468,-3.413
 0124171,-0.4783067196\C,-1.6512044877,-2.7970181705,-0.8052526209\C,-1
 .7517350028,-1.5147159655,-1.353054454\C,-2.9957764591,-0.953951363,-1
 .6014946092\C,-4.1666257716,-1.6446716669,-1.289196099\C,-4.0577772507
 ,-2.9475211669,-0.7948703845\C,-2.8151813269,-3.5249707741,-0.56120565
 38\C,-5.5211752912,-0.9684014273,-1.4245760711\N,-5.9594951071,-0.1268
 419399,-0.3214344735\C,-5.3332550035,1.1815951192,-0.1638413633\C,-4.1
 439590326,1.2037578952,0.8136830783\N,-4.4512441127,0.5926862109,2.103
 8501527\C,-5.2826265596,1.4184357917,2.9614448545\C,-4.9743209582,-0.7
 560687109,1.8983262991\C,-6.189209604,-0.7921181378,0.9562664363\O,-0.
 0910705302,-4.6053649397,-0.5926600064\C,6.2610085898,-2.4996872543,0.
 6447806159\H,-1.4476321811,4.9813626852,-0.1905462426\H,0.9522775418,4
 .86036796,0.4805177758\H,1.0509577086,0.904437346,-1.1832313738\H,-2.4
 86709223,3.0073233981,-1.2995611545\H,3.2494130738,4.7606994675,0.1221
 982063\H,5.5605772094,4.1242137482,0.8416340297\H,5.6553357448,-0.1735
 030322,1.0395331714\H,4.6560378505,-4.6282563267,0.1878310767\H,2.2007
 445931,-4.717587245,-0.1262954712\H,2.0452474526,-0.4829405099,0.52768
 12125\H,0.2153844919,-1.5602999512,0.126752837\H,-0.8656971048,-0.9428
 185548,-1.6129341983\H,-3.0435708768,0.0466852726,-2.0234545664\H,-4.9
 614630698,-3.5119185314,-0.5754510361\H,-2.7305497959,-4.5352760891,-0
 .1734252898\H,-5.5254531509,-0.3476256486,-2.3287097264\H,-6.288668691
 6,-1.7395534401,-1.5691314357\H,-5.0208603344,1.5431629533,-1.15087832
 68\H,-6.1029794154,1.8799097987,0.1981196743\H,-3.8200136009,2.2385985
 363,0.9835744519\H,-3.2937519285,0.6631974834,0.3831159553\H,-6.291681
 6831,1.6433999065,2.573202389\H,-4.7760620787,2.3734835265,3.139665577
 1\H,-5.4043246333,0.9181554534,3.9283845954\H,-5.241395818,-1.18275218
 69,2.872766589\H,-4.1654530755,-1.367423468,1.4816388177\H,-7.04294460
 29,-0.3026808056,1.4481773234\H,-6.4893298237,-1.828558599,0.765352198
 7\H,6.575581989,-2.1478349537,1.6368688804\H,6.7386295573,-1.853760381
 9,-0.1033960642\H,6.6733499922,-3.5036779729,0.5166892848\\Version=EM6
 4L-G09RevA.02\State=1-A\HF=-1581.7632162\RMSD=5.752e-09\RMSF=6.606e-06
 \Dipole=0.1465617,2.5724777,0.3570162\Quadrupole=8.8958198,2.7997944,-
 11.6956142,2.61266,-0.2682492,-2.8585111\PG=C01 [X(C29H31N7O1)]\\@


 THE MORE ACCURATE THE CALCULATIONS BECOME, THE MORE THE CONCEPTS
 TEND TO VANISH INTO THIN AIR.
     -- R.S. MULLIKEN, J.C.P. 43,S2(1965)
 Job cpu time:  0 days 10 hours 50 minutes 29.9 seconds.
 File lengths (MBytes):  RWF=    244 Int=      0 D2E=      0 Chk=     25 Scr=      1
 Normal termination of Gaussian 09 at Wed Mar 11 01:48:27 2020.
