 Entering Gaussian System, Link 0=g09
 Input=MOLECULE0-opt-15-14-13-11-111.com
 Output=MOLECULE0-opt-15-14-13-11-111.log
 Initial command:
 /opt/g09gh/gaussian/g09/l1.exe /scratch/bdw2292/Gau-MOLECULE0/Gau-53284.inp -scrdir=/scratch/bdw2292/Gau-MOLECULE0/
 Entering Link 1 = /opt/g09gh/gaussian/g09/l1.exe PID=     53291.
  
 Copyright (c) 1988,1990,1992,1993,1995,1998,2003,2009, Gaussian, Inc.
                  All Rights Reserved.
  
 This is part of the Gaussian(R) 09 program.  It is based on
 the Gaussian(R) 03 system (copyright 2003, Gaussian, Inc.),
 the Gaussian(R) 98 system (copyright 1998, Gaussian, Inc.),
 the Gaussian(R) 94 system (copyright 1995, Gaussian, Inc.),
 the Gaussian 92(TM) system (copyright 1992, Gaussian, Inc.),
 the Gaussian 90(TM) system (copyright 1990, Gaussian, Inc.),
 the Gaussian 88(TM) system (copyright 1988, Gaussian, Inc.),
 the Gaussian 86(TM) system (copyright 1986, Carnegie Mellon
 University), and the Gaussian 82(TM) system (copyright 1983,
 Carnegie Mellon University). Gaussian is a federally registered
 trademark of Gaussian, Inc.
  
 This software contains proprietary and confidential information,
 including trade secrets, belonging to Gaussian, Inc.
  
 This software is provided under written license and may be
 used, copied, transmitted, or stored only in accord with that
 written license.
  
 The following legend is applicable only to US Government
 contracts under FAR:
  
                    RESTRICTED RIGHTS LEGEND
  
 Use, reproduction and disclosure by the US Government is
 subject to restrictions as set forth in subparagraphs (a)
 and (c) of the Commercial Computer Software - Restricted
 Rights clause in FAR 52.227-19.
  
 Gaussian, Inc.
 340 Quinnipiac St., Bldg. 40, Wallingford CT 06492
  
  
 ---------------------------------------------------------------
 Warning -- This program may not be used in any manner that
 competes with the business of Gaussian, Inc. or will provide
 assistance to any competitor of Gaussian, Inc.  The licensee
 of this program is prohibited from giving any competitor of
 Gaussian, Inc. access to this program.  By using this program,
 the user acknowledges that Gaussian, Inc. is engaged in the
 business of creating and licensing software in the field of
 computational chemistry and represents and warrants to the
 licensee that it is not a competitor of Gaussian, Inc. and that
 it will not use this program in any manner prohibited above.
 ---------------------------------------------------------------
  

 Cite this work as:
 Gaussian 09, Revision A.02,
 M. J. Frisch, G. W. Trucks, H. B. Schlegel, G. E. Scuseria, 
 M. A. Robb, J. R. Cheeseman, G. Scalmani, V. Barone, B. Mennucci, 
 G. A. Petersson, H. Nakatsuji, M. Caricato, X. Li, H. P. Hratchian, 
 A. F. Izmaylov, J. Bloino, G. Zheng, J. L. Sonnenberg, M. Hada, 
 M. Ehara, K. Toyota, R. Fukuda, J. Hasegawa, M. Ishida, T. Nakajima, 
 Y. Honda, O. Kitao, H. Nakai, T. Vreven, J. A. Montgomery, Jr., 
 J. E. Peralta, F. Ogliaro, M. Bearpark, J. J. Heyd, E. Brothers, 
 K. N. Kudin, V. N. Staroverov, R. Kobayashi, J. Normand, 
 K. Raghavachari, A. Rendell, J. C. Burant, S. S. Iyengar, J. Tomasi, 
 M. Cossi, N. Rega, J. M. Millam, M. Klene, J. E. Knox, J. B. Cross, 
 V. Bakken, C. Adamo, J. Jaramillo, R. Gomperts, R. E. Stratmann, 
 O. Yazyev, A. J. Austin, R. Cammi, C. Pomelli, J. W. Ochterski, 
 R. L. Martin, K. Morokuma, V. G. Zakrzewski, G. A. Voth, 
 P. Salvador, J. J. Dannenberg, S. Dapprich, A. D. Daniels, 
 O. Farkas, J. B. Foresman, J. V. Ortiz, J. Cioslowski, 
 and D. J. Fox, Gaussian, Inc., Wallingford CT, 2009.
 
 ******************************************
 Gaussian 09:  EM64L-G09RevA.02 11-Jun-2009
                 3-Mar-2020 
 ******************************************
 %RWF=/scratch/bdw2292/Gau-MOLECULE0/,100GB
 %Nosave
 %Chk=MOLECULE0-opt-15-14-13-11-111.chk
 %Mem=20GB
 %Nproc=6
 Will use up to    6 processors via shared memory.
 --------------------------------------------------
 #P opt=(,maxcycle=400) wB97XD/6-31G* MaxDisk=100GB
 --------------------------------------------------
 1/6=400,14=-1,18=20,19=15,26=3,38=1/1,3;
 2/9=110,12=2,17=6,18=5,40=1/2;
 3/5=1,6=6,7=1,11=2,16=1,25=1,30=1,71=1,74=-58/1,2,3;
 4//1;
 5/5=2,38=5/2;
 6/7=2,8=2,9=2,10=2,28=1/1;
 7//1,2,3,16;
 1/6=400,14=-1,18=20,19=15/3(2);
 2/9=110/2;
 99//99;
 2/9=110/2;
 3/5=1,6=6,7=1,11=2,16=1,25=1,30=1,71=1,74=-58/1,2,3;
 4/5=5,16=3/1;
 5/5=2,38=5/2;
 7//1,2,3,16;
 1/6=400,14=-1,18=20,19=15/3(-5);
 2/9=110/2;
 6/7=2,8=2,9=2,10=2,19=2,28=1/1;
 99/9=1/99;
 Leave Link    1 at Tue Mar  3 10:17:07 2020, MaxMem= 2684354560 cpu:       0.2
 (Enter /opt/g09gh/gaussian/g09/l101.exe)
 --------------------------------------------------------------
 MOLECULE0 Rotatable Bond Optimization on node37.bme.utexas.edu
 --------------------------------------------------------------
 Symbolic Z-matrix:
 Charge =  0 Multiplicity = 1
 C                     3.61642   2.65831  -5.89488 
 C                     4.36671   2.82983  -4.72391 
 C                     4.29699   1.86914  -3.69493 
 C                     3.44207   0.76438  -3.93527 
 N                     2.71777   0.58714  -5.04816 
 C                     2.80977   1.52086  -6.00591 
 C                     5.06355   1.97839  -2.40134 
 C                     5.9291    3.02873  -2.0508 
 C                     6.52255   2.93421  -0.78657 
 N                     6.31531   1.93669   0.06843 
 C                     5.47177   0.9754   -0.35832 
 N                     4.85264   0.96647  -1.53853 
 N                     5.24483  -0.05945   0.51479 
 C                     4.49182  -1.25415   0.3605 
 C                     5.17552  -2.50188   0.3012 
 C                     4.38567  -3.65187   0.1521 
 C                     2.98981  -3.62531   0.05268 
 C                     2.33699  -2.38767   0.11197 
 C                     3.09668  -1.21435   0.26532 
 N                     0.92387  -2.19185  -0.00206 
 C                    -0.08192  -3.07077  -0.33198 
 C                    -1.45242  -2.49713  -0.63076 
 C                    -1.6459   -1.26669  -1.27966 
 C                    -2.9362   -0.78315  -1.50714 
 C                    -4.07354  -1.50809  -1.10416 
 C                    -3.8643   -2.74491  -0.46439 
 C                    -2.57812  -3.24263  -0.24421 
 C                    -5.4824   -0.94524  -1.29865 
 N                    -6.01638  -0.0031   -0.29811 
 C                    -5.51011   1.38759  -0.28337 
 C                    -4.33529   1.63185   0.69841 
 N                    -4.61332   1.20638   2.09003 
 C                    -5.37285   2.14244   2.92721 
 C                    -5.08273  -0.20089   2.07903 
 C                    -6.24001  -0.48462   1.08505 
 O                     0.08822  -4.27889  -0.36918 
 C                     6.68782  -2.61359   0.37778 
 H                     3.65509   3.38525  -6.70079 
 H                     4.99158   3.71581  -4.64022 
 H                     3.34357  -0.01507  -3.18432 
 H                     2.21041   1.34624  -6.89786 
 H                     6.14419   3.87673  -2.68925 
 H                     7.20415   3.71061  -0.44009 
 H                     5.78705   0.02987   1.3621 
 H                     4.86975  -4.62612   0.09741 
 H                     2.41986  -4.53711  -0.07808 
 H                     2.62846  -0.23948   0.29347 
 H                     0.62792  -1.23252   0.11117 
 H                    -0.78247  -0.69421  -1.61015 
 H                    -3.05338   0.17987  -2.00431 
 H                    -4.71589  -3.33478  -0.12616 
 H                    -2.4251   -4.20085   0.24596 
 H                    -5.52408  -0.43965  -2.27451 
 H                    -6.18981  -1.78584  -1.34912 
 H                    -5.30047   1.72173  -1.26212 
 H                    -6.69101   2.29201   0.24993 
 H                    -4.0694    3.11806   0.69933 
 H                    -3.39701   1.11579   0.35801 
 H                    -6.39454   2.26695   2.55143 
 H                    -4.8798    3.12101   2.9435 
 H                    -5.41923   1.77379   3.95835 
 H                    -5.36491  -0.51842   3.14726 
 H                    -3.92159  -1.03689   1.65716 
 H                    -7.47899   0.31862   1.65537 
 H                    -6.52644  -1.54362   1.08167 
 H                     7.06014  -2.33488   1.37349 
 H                     7.17879  -1.95473  -0.35225 
 H                     7.05099  -3.63061   0.17537 
 
 NAtoms=     68 NQM=     68 NQMF=      0 NMic=      0 NMicF=      0 NTot=     68.
                    Isotopes and Nuclear Properties:
 (Nuclear quadrupole moments (NQMom) in fm**2, nuclear magnetic moments (NMagM)
  in nuclear magnetons)

  Atom         1           2           3           4           5           6           7           8           9          10
 IAtWgt=          12          12          12          12          14          12          12          12          12          14
 AtmWgt=  12.0000000  12.0000000  12.0000000  12.0000000  14.0030740  12.0000000  12.0000000  12.0000000  12.0000000  14.0030740
 NucSpn=           0           0           0           0           2           0           0           0           0           2
 AtZEff=   0.0000000   0.0000000   0.0000000   0.0000000   0.0000000   0.0000000   0.0000000   0.0000000   0.0000000   0.0000000
 NQMom=    0.0000000   0.0000000   0.0000000   0.0000000   2.0440000   0.0000000   0.0000000   0.0000000   0.0000000   2.0440000
 NMagM=    0.0000000   0.0000000   0.0000000   0.0000000   0.4037610   0.0000000   0.0000000   0.0000000   0.0000000   0.4037610

  Atom        11          12          13          14          15          16          17          18          19          20
 IAtWgt=          12          14          14          12          12          12          12          12          12          14
 AtmWgt=  12.0000000  14.0030740  14.0030740  12.0000000  12.0000000  12.0000000  12.0000000  12.0000000  12.0000000  14.0030740
 NucSpn=           0           2           2           0           0           0           0           0           0           2
 AtZEff=   0.0000000   0.0000000   0.0000000   0.0000000   0.0000000   0.0000000   0.0000000   0.0000000   0.0000000   0.0000000
 NQMom=    0.0000000   2.0440000   2.0440000   0.0000000   0.0000000   0.0000000   0.0000000   0.0000000   0.0000000   2.0440000
 NMagM=    0.0000000   0.4037610   0.4037610   0.0000000   0.0000000   0.0000000   0.0000000   0.0000000   0.0000000   0.4037610

  Atom        21          22          23          24          25          26          27          28          29          30
 IAtWgt=          12          12          12          12          12          12          12          12          14          12
 AtmWgt=  12.0000000  12.0000000  12.0000000  12.0000000  12.0000000  12.0000000  12.0000000  12.0000000  14.0030740  12.0000000
 NucSpn=           0           0           0           0           0           0           0           0           2           0
 AtZEff=   0.0000000   0.0000000   0.0000000   0.0000000   0.0000000   0.0000000   0.0000000   0.0000000   0.0000000   0.0000000
 NQMom=    0.0000000   0.0000000   0.0000000   0.0000000   0.0000000   0.0000000   0.0000000   0.0000000   2.0440000   0.0000000
 NMagM=    0.0000000   0.0000000   0.0000000   0.0000000   0.0000000   0.0000000   0.0000000   0.0000000   0.4037610   0.0000000

  Atom        31          32          33          34          35          36          37          38          39          40
 IAtWgt=          12          14          12          12          12          16          12           1           1           1
 AtmWgt=  12.0000000  14.0030740  12.0000000  12.0000000  12.0000000  15.9949146  12.0000000   1.0078250   1.0078250   1.0078250
 NucSpn=           0           2           0           0           0           0           0           1           1           1
 AtZEff=   0.0000000   0.0000000   0.0000000   0.0000000   0.0000000   0.0000000   0.0000000   0.0000000   0.0000000   0.0000000
 NQMom=    0.0000000   2.0440000   0.0000000   0.0000000   0.0000000   0.0000000   0.0000000   0.0000000   0.0000000   0.0000000
 NMagM=    0.0000000   0.4037610   0.0000000   0.0000000   0.0000000   0.0000000   0.0000000   2.7928460   2.7928460   2.7928460

  Atom        41          42          43          44          45          46          47          48          49          50
 IAtWgt=           1           1           1           1           1           1           1           1           1           1
 AtmWgt=   1.0078250   1.0078250   1.0078250   1.0078250   1.0078250   1.0078250   1.0078250   1.0078250   1.0078250   1.0078250
 NucSpn=           1           1           1           1           1           1           1           1           1           1
 AtZEff=   0.0000000   0.0000000   0.0000000   0.0000000   0.0000000   0.0000000   0.0000000   0.0000000   0.0000000   0.0000000
 NQMom=    0.0000000   0.0000000   0.0000000   0.0000000   0.0000000   0.0000000   0.0000000   0.0000000   0.0000000   0.0000000
 NMagM=    2.7928460   2.7928460   2.7928460   2.7928460   2.7928460   2.7928460   2.7928460   2.7928460   2.7928460   2.7928460

  Atom        51          52          53          54          55          56          57          58          59          60
 IAtWgt=           1           1           1           1           1           1           1           1           1           1
 AtmWgt=   1.0078250   1.0078250   1.0078250   1.0078250   1.0078250   1.0078250   1.0078250   1.0078250   1.0078250   1.0078250
 NucSpn=           1           1           1           1           1           1           1           1           1           1
 AtZEff=   0.0000000   0.0000000   0.0000000   0.0000000   0.0000000   0.0000000   0.0000000   0.0000000   0.0000000   0.0000000
 NQMom=    0.0000000   0.0000000   0.0000000   0.0000000   0.0000000   0.0000000   0.0000000   0.0000000   0.0000000   0.0000000
 NMagM=    2.7928460   2.7928460   2.7928460   2.7928460   2.7928460   2.7928460   2.7928460   2.7928460   2.7928460   2.7928460

  Atom        61          62          63          64          65          66          67          68
 IAtWgt=           1           1           1           1           1           1           1           1
 AtmWgt=   1.0078250   1.0078250   1.0078250   1.0078250   1.0078250   1.0078250   1.0078250   1.0078250
 NucSpn=           1           1           1           1           1           1           1           1
 AtZEff=   0.0000000   0.0000000   0.0000000   0.0000000   0.0000000   0.0000000   0.0000000   0.0000000
 NQMom=    0.0000000   0.0000000   0.0000000   0.0000000   0.0000000   0.0000000   0.0000000   0.0000000
 NMagM=    2.7928460   2.7928460   2.7928460   2.7928460   2.7928460   2.7928460   2.7928460   2.7928460
 Leave Link  101 at Tue Mar  3 10:17:07 2020, MaxMem= 2684354560 cpu:       0.4
 (Enter /opt/g09gh/gaussian/g09/l103.exe)

 GradGradGradGradGradGradGradGradGradGradGradGradGradGradGradGradGradGrad
 Berny optimization.
 Initialization pass.
                           ----------------------------
                           !    Initial Parameters    !
                           ! (Angstroms and Degrees)  !
 --------------------------                            --------------------------
 ! Name  Definition              Value          Derivative Info.                !
 --------------------------------------------------------------------------------
 ! R1    R(1,2)                  1.4013         estimate D2E/DX2                !
 ! R2    R(1,6)                  1.3989         estimate D2E/DX2                !
 ! R3    R(1,38)                 1.086          estimate D2E/DX2                !
 ! R4    R(2,3)                  1.4095         estimate D2E/DX2                !
 ! R5    R(2,39)                 1.0874         estimate D2E/DX2                !
 ! R6    R(3,4)                  1.4174         estimate D2E/DX2                !
 ! R7    R(3,7)                  1.5076         estimate D2E/DX2                !
 ! R8    R(4,5)                  1.3396         estimate D2E/DX2                !
 ! R9    R(4,40)                 1.0868         estimate D2E/DX2                !
 ! R10   R(5,6)                  1.3407         estimate D2E/DX2                !
 ! R11   R(6,41)                 1.0887         estimate D2E/DX2                !
 ! R12   R(7,8)                  1.4054         estimate D2E/DX2                !
 ! R13   R(7,12)                 1.3464         estimate D2E/DX2                !
 ! R14   R(8,9)                  1.3998         estimate D2E/DX2                !
 ! R15   R(8,42)                 1.0831         estimate D2E/DX2                !
 ! R16   R(9,10)                 1.33           estimate D2E/DX2                !
 ! R17   R(9,43)                 1.0897         estimate D2E/DX2                !
 ! R18   R(10,11)                1.3482         estimate D2E/DX2                !
 ! R19   R(11,12)                1.3328         estimate D2E/DX2                !
 ! R20   R(11,13)                1.3729         estimate D2E/DX2                !
 ! R21   R(13,14)                1.4206         estimate D2E/DX2                !
 ! R22   R(13,44)                1.0099         estimate D2E/DX2                !
 ! R23   R(14,15)                1.424          estimate D2E/DX2                !
 ! R24   R(14,19)                1.3989         estimate D2E/DX2                !
 ! R25   R(15,16)                1.4031         estimate D2E/DX2                !
 ! R26   R(15,37)                1.5183         estimate D2E/DX2                !
 ! R27   R(16,17)                1.3996         estimate D2E/DX2                !
 ! R28   R(16,45)                1.0893         estimate D2E/DX2                !
 ! R29   R(17,18)                1.4005         estimate D2E/DX2                !
 ! R30   R(17,46)                1.0832         estimate D2E/DX2                !
 ! R31   R(18,19)                1.4062         estimate D2E/DX2                !
 ! R32   R(18,20)                1.4312         estimate D2E/DX2                !
 ! R33   R(19,47)                1.0818         estimate D2E/DX2                !
 ! R34   R(20,21)                1.3758         estimate D2E/DX2                !
 ! R35   R(20,48)                1.0103         estimate D2E/DX2                !
 ! R36   R(21,22)                1.5155         estimate D2E/DX2                !
 ! R37   R(21,36)                1.2206         estimate D2E/DX2                !
 ! R38   R(22,23)                1.4045         estimate D2E/DX2                !
 ! R39   R(22,27)                1.4044         estimate D2E/DX2                !
 ! R40   R(23,24)                1.3966         estimate D2E/DX2                !
 ! R41   R(23,49)                1.0874         estimate D2E/DX2                !
 ! R42   R(24,25)                1.4076         estimate D2E/DX2                !
 ! R43   R(24,50)                1.0901         estimate D2E/DX2                !
 ! R44   R(25,26)                1.4081         estimate D2E/DX2                !
 ! R45   R(25,28)                1.5295         estimate D2E/DX2                !
 ! R46   R(26,27)                1.3966         estimate D2E/DX2                !
 ! R47   R(26,51)                1.0898         estimate D2E/DX2                !
 ! R48   R(27,52)                1.0871         estimate D2E/DX2                !
 ! R49   R(28,29)                1.4744         estimate D2E/DX2                !
 ! R50   R(28,53)                1.0998         estimate D2E/DX2                !
 ! R51   R(28,54)                1.0998         estimate D2E/DX2                !
 ! R52   R(29,30)                1.48           estimate D2E/DX2                !
 ! R53   R(29,35)                1.4816         estimate D2E/DX2                !
 ! R54   R(30,31)                1.5504         estimate D2E/DX2                !
 ! R55   R(30,55)                1.0552         estimate D2E/DX2                !
 ! R56   R(30,56)                1.5802         estimate D2E/DX2                !
 ! R57   R(31,32)                1.4815         estimate D2E/DX2                !
 ! R58   R(31,57)                1.5098         estimate D2E/DX2                !
 ! R59   R(31,58)                1.1236         estimate D2E/DX2                !
 ! R60   R(32,33)                1.4676         estimate D2E/DX2                !
 ! R61   R(32,34)                1.4835         estimate D2E/DX2                !
 ! R62   R(33,59)                1.0957         estimate D2E/DX2                !
 ! R63   R(33,60)                1.0959         estimate D2E/DX2                !
 ! R64   R(33,61)                1.096          estimate D2E/DX2                !
 ! R65   R(34,35)                1.5517         estimate D2E/DX2                !
 ! R66   R(34,62)                1.1496         estimate D2E/DX2                !
 ! R67   R(34,63)                1.4917         estimate D2E/DX2                !
 ! R68   R(35,64)                1.5829         estimate D2E/DX2                !
 ! R69   R(35,65)                1.0971         estimate D2E/DX2                !
 ! R70   R(37,66)                1.099          estimate D2E/DX2                !
 ! R71   R(37,67)                1.0991         estimate D2E/DX2                !
 ! R72   R(37,68)                1.0987         estimate D2E/DX2                !
 ! A1    A(2,1,6)              118.3343         estimate D2E/DX2                !
 ! A2    A(2,1,38)             121.2738         estimate D2E/DX2                !
 ! A3    A(6,1,38)             120.3919         estimate D2E/DX2                !
 ! A4    A(1,2,3)              120.0103         estimate D2E/DX2                !
 ! A5    A(1,2,39)             118.1473         estimate D2E/DX2                !
 ! A6    A(3,2,39)             121.8423         estimate D2E/DX2                !
 ! A7    A(2,3,4)              115.9312         estimate D2E/DX2                !
 ! A8    A(2,3,7)              123.4953         estimate D2E/DX2                !
 ! A9    A(4,3,7)              120.5728         estimate D2E/DX2                !
 ! A10   A(3,4,5)              124.7563         estimate D2E/DX2                !
 ! A11   A(3,4,40)             119.7675         estimate D2E/DX2                !
 ! A12   A(5,4,40)             115.4762         estimate D2E/DX2                !
 ! A13   A(4,5,6)              117.659          estimate D2E/DX2                !
 ! A14   A(1,6,5)              123.3088         estimate D2E/DX2                !
 ! A15   A(1,6,41)             120.8572         estimate D2E/DX2                !
 ! A16   A(5,6,41)             115.834          estimate D2E/DX2                !
 ! A17   A(3,7,8)              125.5416         estimate D2E/DX2                !
 ! A18   A(3,7,12)             114.5655         estimate D2E/DX2                !
 ! A19   A(8,7,12)             119.8878         estimate D2E/DX2                !
 ! A20   A(7,8,9)              115.8421         estimate D2E/DX2                !
 ! A21   A(7,8,42)             124.0854         estimate D2E/DX2                !
 ! A22   A(9,8,42)             120.0718         estimate D2E/DX2                !
 ! A23   A(8,9,10)             124.4141         estimate D2E/DX2                !
 ! A24   A(8,9,43)             120.2815         estimate D2E/DX2                !
 ! A25   A(10,9,43)            115.3042         estimate D2E/DX2                !
 ! A26   A(9,10,11)            115.3884         estimate D2E/DX2                !
 ! A27   A(10,11,12)           125.1496         estimate D2E/DX2                !
 ! A28   A(10,11,13)           116.0766         estimate D2E/DX2                !
 ! A29   A(12,11,13)           118.7726         estimate D2E/DX2                !
 ! A30   A(7,12,11)            119.3177         estimate D2E/DX2                !
 ! A31   A(11,13,14)           130.7282         estimate D2E/DX2                !
 ! A32   A(11,13,44)           112.22           estimate D2E/DX2                !
 ! A33   A(14,13,44)           116.7495         estimate D2E/DX2                !
 ! A34   A(13,14,15)           119.1369         estimate D2E/DX2                !
 ! A35   A(13,14,19)           120.8027         estimate D2E/DX2                !
 ! A36   A(15,14,19)           120.0603         estimate D2E/DX2                !
 ! A37   A(14,15,16)           116.8917         estimate D2E/DX2                !
 ! A38   A(14,15,37)           122.7229         estimate D2E/DX2                !
 ! A39   A(16,15,37)           120.3822         estimate D2E/DX2                !
 ! A40   A(15,16,17)           123.6023         estimate D2E/DX2                !
 ! A41   A(15,16,45)           119.2251         estimate D2E/DX2                !
 ! A42   A(17,16,45)           117.1688         estimate D2E/DX2                !
 ! A43   A(16,17,18)           118.596          estimate D2E/DX2                !
 ! A44   A(16,17,46)           121.1549         estimate D2E/DX2                !
 ! A45   A(18,17,46)           120.246          estimate D2E/DX2                !
 ! A46   A(17,18,19)           119.3508         estimate D2E/DX2                !
 ! A47   A(17,18,20)           125.2951         estimate D2E/DX2                !
 ! A48   A(19,18,20)           115.3383         estimate D2E/DX2                !
 ! A49   A(14,19,18)           121.4976         estimate D2E/DX2                !
 ! A50   A(14,19,47)           117.0965         estimate D2E/DX2                !
 ! A51   A(18,19,47)           121.3932         estimate D2E/DX2                !
 ! A52   A(18,20,21)           130.807          estimate D2E/DX2                !
 ! A53   A(18,20,48)           114.2188         estimate D2E/DX2                !
 ! A54   A(21,20,48)           114.7916         estimate D2E/DX2                !
 ! A55   A(20,21,22)           117.8125         estimate D2E/DX2                !
 ! A56   A(20,21,36)           122.527          estimate D2E/DX2                !
 ! A57   A(22,21,36)           119.6496         estimate D2E/DX2                !
 ! A58   A(21,22,23)           123.1822         estimate D2E/DX2                !
 ! A59   A(21,22,27)           118.0134         estimate D2E/DX2                !
 ! A60   A(23,22,27)           118.8031         estimate D2E/DX2                !
 ! A61   A(22,23,24)           120.389          estimate D2E/DX2                !
 ! A62   A(22,23,49)           119.4895         estimate D2E/DX2                !
 ! A63   A(24,23,49)           120.1204         estimate D2E/DX2                !
 ! A64   A(23,24,25)           121.4361         estimate D2E/DX2                !
 ! A65   A(23,24,50)           118.6506         estimate D2E/DX2                !
 ! A66   A(25,24,50)           119.9127         estimate D2E/DX2                !
 ! A67   A(24,25,26)           117.5392         estimate D2E/DX2                !
 ! A68   A(24,25,28)           121.2187         estimate D2E/DX2                !
 ! A69   A(26,25,28)           121.1889         estimate D2E/DX2                !
 ! A70   A(25,26,27)           121.4332         estimate D2E/DX2                !
 ! A71   A(25,26,51)           120.0219         estimate D2E/DX2                !
 ! A72   A(27,26,51)           118.5446         estimate D2E/DX2                !
 ! A73   A(22,27,26)           120.3715         estimate D2E/DX2                !
 ! A74   A(22,27,52)           118.6301         estimate D2E/DX2                !
 ! A75   A(26,27,52)           120.9864         estimate D2E/DX2                !
 ! A76   A(25,28,29)           118.8454         estimate D2E/DX2                !
 ! A77   A(25,28,53)           108.4751         estimate D2E/DX2                !
 ! A78   A(25,28,54)           108.4844         estimate D2E/DX2                !
 ! A79   A(29,28,53)           107.1358         estimate D2E/DX2                !
 ! A80   A(29,28,54)           106.6535         estimate D2E/DX2                !
 ! A81   A(53,28,54)           106.6335         estimate D2E/DX2                !
 ! A82   A(28,29,30)           118.9011         estimate D2E/DX2                !
 ! A83   A(28,29,35)           118.7194         estimate D2E/DX2                !
 ! A84   A(30,29,35)           110.3479         estimate D2E/DX2                !
 ! A85   A(29,30,31)           114.4274         estimate D2E/DX2                !
 ! A86   A(29,30,55)           110.8692         estimate D2E/DX2                !
 ! A87   A(29,30,56)           106.5905         estimate D2E/DX2                !
 ! A88   A(31,30,55)           112.7627         estimate D2E/DX2                !
 ! A89   A(31,30,56)           105.2126         estimate D2E/DX2                !
 ! A90   A(55,30,56)           106.276          estimate D2E/DX2                !
 ! A91   A(30,31,32)           114.0393         estimate D2E/DX2                !
 ! A92   A(30,31,57)           106.7931         estimate D2E/DX2                !
 ! A93   A(30,31,58)           111.6268         estimate D2E/DX2                !
 ! A94   A(32,31,57)           108.3712         estimate D2E/DX2                !
 ! A95   A(32,31,58)           108.021          estimate D2E/DX2                !
 ! A96   A(57,31,58)           107.7718         estimate D2E/DX2                !
 ! A97   A(31,32,33)           116.7284         estimate D2E/DX2                !
 ! A98   A(31,32,34)           108.9555         estimate D2E/DX2                !
 ! A99   A(33,32,34)           116.4548         estimate D2E/DX2                !
 ! A100  A(32,33,59)           111.0634         estimate D2E/DX2                !
 ! A101  A(32,33,60)           110.192          estimate D2E/DX2                !
 ! A102  A(32,33,61)           110.1227         estimate D2E/DX2                !
 ! A103  A(59,33,60)           108.8529         estimate D2E/DX2                !
 ! A104  A(59,33,61)           108.7486         estimate D2E/DX2                !
 ! A105  A(60,33,61)           107.7822         estimate D2E/DX2                !
 ! A106  A(32,34,35)           114.4684         estimate D2E/DX2                !
 ! A107  A(32,34,62)           109.4381         estimate D2E/DX2                !
 ! A108  A(32,34,63)           106.7039         estimate D2E/DX2                !
 ! A109  A(35,34,62)           111.2024         estimate D2E/DX2                !
 ! A110  A(35,34,63)           107.2717         estimate D2E/DX2                !
 ! A111  A(62,34,63)           107.4013         estimate D2E/DX2                !
 ! A112  A(29,35,34)           115.2156         estimate D2E/DX2                !
 ! A113  A(29,35,64)           106.8336         estimate D2E/DX2                !
 ! A114  A(29,35,65)           110.504          estimate D2E/DX2                !
 ! A115  A(34,35,64)           105.0809         estimate D2E/DX2                !
 ! A116  A(34,35,65)           111.9135         estimate D2E/DX2                !
 ! A117  A(64,35,65)           106.6541         estimate D2E/DX2                !
 ! A118  A(15,37,66)           111.3756         estimate D2E/DX2                !
 ! A119  A(15,37,67)           111.5496         estimate D2E/DX2                !
 ! A120  A(15,37,68)           112.8322         estimate D2E/DX2                !
 ! A121  A(66,37,67)           107.3623         estimate D2E/DX2                !
 ! A122  A(66,37,68)           106.8391         estimate D2E/DX2                !
 ! A123  A(67,37,68)           106.5501         estimate D2E/DX2                !
 ! D1    D(6,1,2,3)              0.0015         estimate D2E/DX2                !
 ! D2    D(6,1,2,39)          -179.9123         estimate D2E/DX2                !
 ! D3    D(38,1,2,3)          -179.9631         estimate D2E/DX2                !
 ! D4    D(38,1,2,39)            0.1231         estimate D2E/DX2                !
 ! D5    D(2,1,6,5)              0.0437         estimate D2E/DX2                !
 ! D6    D(2,1,6,41)          -179.9528         estimate D2E/DX2                !
 ! D7    D(38,1,6,5)          -179.9913         estimate D2E/DX2                !
 ! D8    D(38,1,6,41)            0.0122         estimate D2E/DX2                !
 ! D9    D(1,2,3,4)              0.023          estimate D2E/DX2                !
 ! D10   D(1,2,3,7)           -179.6643         estimate D2E/DX2                !
 ! D11   D(39,2,3,4)           179.9336         estimate D2E/DX2                !
 ! D12   D(39,2,3,7)             0.2463         estimate D2E/DX2                !
 ! D13   D(2,3,4,5)             -0.099          estimate D2E/DX2                !
 ! D14   D(2,3,4,40)           179.8277         estimate D2E/DX2                !
 ! D15   D(7,3,4,5)            179.5982         estimate D2E/DX2                !
 ! D16   D(7,3,4,40)            -0.4752         estimate D2E/DX2                !
 ! D17   D(2,3,7,8)              0.1623         estimate D2E/DX2                !
 ! D18   D(2,3,7,12)           179.3351         estimate D2E/DX2                !
 ! D19   D(4,3,7,8)           -179.5111         estimate D2E/DX2                !
 ! D20   D(4,3,7,12)            -0.3383         estimate D2E/DX2                !
 ! D21   D(3,4,5,6)              0.1425         estimate D2E/DX2                !
 ! D22   D(40,4,5,6)          -179.787          estimate D2E/DX2                !
 ! D23   D(4,5,6,1)             -0.1122         estimate D2E/DX2                !
 ! D24   D(4,5,6,41)           179.8844         estimate D2E/DX2                !
 ! D25   D(3,7,8,9)            179.0947         estimate D2E/DX2                !
 ! D26   D(3,7,8,42)            -0.595          estimate D2E/DX2                !
 ! D27   D(12,7,8,9)            -0.0376         estimate D2E/DX2                !
 ! D28   D(12,7,8,42)         -179.7273         estimate D2E/DX2                !
 ! D29   D(3,7,12,11)         -179.2566         estimate D2E/DX2                !
 ! D30   D(8,7,12,11)           -0.0329         estimate D2E/DX2                !
 ! D31   D(7,8,9,10)            -0.0267         estimate D2E/DX2                !
 ! D32   D(7,8,9,43)          -179.8378         estimate D2E/DX2                !
 ! D33   D(42,8,9,10)          179.6763         estimate D2E/DX2                !
 ! D34   D(42,8,9,43)           -0.1348         estimate D2E/DX2                !
 ! D35   D(8,9,10,11)            0.1524         estimate D2E/DX2                !
 ! D36   D(43,9,10,11)         179.972          estimate D2E/DX2                !
 ! D37   D(9,10,11,12)          -0.2341         estimate D2E/DX2                !
 ! D38   D(9,10,11,13)        -179.8284         estimate D2E/DX2                !
 ! D39   D(10,11,12,7)           0.18           estimate D2E/DX2                !
 ! D40   D(13,11,12,7)         179.7643         estimate D2E/DX2                !
 ! D41   D(10,11,13,14)       -175.7684         estimate D2E/DX2                !
 ! D42   D(10,11,13,44)         -2.4079         estimate D2E/DX2                !
 ! D43   D(12,11,13,14)          4.61           estimate D2E/DX2                !
 ! D44   D(12,11,13,44)        177.9705         estimate D2E/DX2                !
 ! D45   D(11,13,14,15)        110.9756         estimate D2E/DX2                !
 ! D46   D(11,13,14,19)        -68.9326         estimate D2E/DX2                !
 ! D47   D(44,13,14,15)        -62.1402         estimate D2E/DX2                !
 ! D48   D(44,13,14,19)        117.9516         estimate D2E/DX2                !
 ! D49   D(13,14,15,16)        179.8216         estimate D2E/DX2                !
 ! D50   D(13,14,15,37)         -0.8306         estimate D2E/DX2                !
 ! D51   D(19,14,15,16)         -0.2695         estimate D2E/DX2                !
 ! D52   D(19,14,15,37)        179.0783         estimate D2E/DX2                !
 ! D53   D(13,14,19,18)        179.981          estimate D2E/DX2                !
 ! D54   D(13,14,19,47)          1.2584         estimate D2E/DX2                !
 ! D55   D(15,14,19,18)          0.0737         estimate D2E/DX2                !
 ! D56   D(15,14,19,47)       -178.649          estimate D2E/DX2                !
 ! D57   D(14,15,16,17)          0.4309         estimate D2E/DX2                !
 ! D58   D(14,15,16,45)        179.6955         estimate D2E/DX2                !
 ! D59   D(37,15,16,17)       -178.9331         estimate D2E/DX2                !
 ! D60   D(37,15,16,45)          0.3316         estimate D2E/DX2                !
 ! D61   D(14,15,37,66)         67.9336         estimate D2E/DX2                !
 ! D62   D(14,15,37,67)        -52.0075         estimate D2E/DX2                !
 ! D63   D(14,15,37,68)       -171.9126         estimate D2E/DX2                !
 ! D64   D(16,15,37,66)       -112.7406         estimate D2E/DX2                !
 ! D65   D(16,15,37,67)        127.3182         estimate D2E/DX2                !
 ! D66   D(16,15,37,68)          7.4132         estimate D2E/DX2                !
 ! D67   D(15,16,17,18)         -0.378          estimate D2E/DX2                !
 ! D68   D(15,16,17,46)        178.9774         estimate D2E/DX2                !
 ! D69   D(45,16,17,18)       -179.6567         estimate D2E/DX2                !
 ! D70   D(45,16,17,46)         -0.3013         estimate D2E/DX2                !
 ! D71   D(16,17,18,19)          0.1544         estimate D2E/DX2                !
 ! D72   D(16,17,18,20)        178.637          estimate D2E/DX2                !
 ! D73   D(46,17,18,19)       -179.207          estimate D2E/DX2                !
 ! D74   D(46,17,18,20)         -0.7244         estimate D2E/DX2                !
 ! D75   D(17,18,19,14)         -0.0125         estimate D2E/DX2                !
 ! D76   D(17,18,19,47)        178.6554         estimate D2E/DX2                !
 ! D77   D(20,18,19,14)       -178.6422         estimate D2E/DX2                !
 ! D78   D(20,18,19,47)          0.0256         estimate D2E/DX2                !
 ! D79   D(17,18,20,21)         -8.171          estimate D2E/DX2                !
 ! D80   D(17,18,20,48)        177.0735         estimate D2E/DX2                !
 ! D81   D(19,18,20,21)        170.3657         estimate D2E/DX2                !
 ! D82   D(19,18,20,48)         -4.3898         estimate D2E/DX2                !
 ! D83   D(18,20,21,22)       -168.2832         estimate D2E/DX2                !
 ! D84   D(18,20,21,36)         12.9262         estimate D2E/DX2                !
 ! D85   D(48,20,21,22)          6.4483         estimate D2E/DX2                !
 ! D86   D(48,20,21,36)       -172.3424         estimate D2E/DX2                !
 ! D87   D(20,21,22,23)         35.383          estimate D2E/DX2                !
 ! D88   D(20,21,22,27)       -145.0352         estimate D2E/DX2                !
 ! D89   D(36,21,22,23)       -145.7903         estimate D2E/DX2                !
 ! D90   D(36,21,22,27)         33.7916         estimate D2E/DX2                !
 ! D91   D(21,22,23,24)       -178.9909         estimate D2E/DX2                !
 ! D92   D(21,22,23,49)          1.3807         estimate D2E/DX2                !
 ! D93   D(27,22,23,24)          1.4304         estimate D2E/DX2                !
 ! D94   D(27,22,23,49)       -178.198          estimate D2E/DX2                !
 ! D95   D(21,22,27,26)        178.3486         estimate D2E/DX2                !
 ! D96   D(21,22,27,52)         -0.4067         estimate D2E/DX2                !
 ! D97   D(23,22,27,26)         -2.0508         estimate D2E/DX2                !
 ! D98   D(23,22,27,52)        179.1939         estimate D2E/DX2                !
 ! D99   D(22,23,24,25)         -0.3247         estimate D2E/DX2                !
 ! D100  D(22,23,24,50)        179.3934         estimate D2E/DX2                !
 ! D101  D(49,23,24,25)        179.3014         estimate D2E/DX2                !
 ! D102  D(49,23,24,50)         -0.9806         estimate D2E/DX2                !
 ! D103  D(23,24,25,26)         -0.179          estimate D2E/DX2                !
 ! D104  D(23,24,25,28)        177.1997         estimate D2E/DX2                !
 ! D105  D(50,24,25,26)       -179.8935         estimate D2E/DX2                !
 ! D106  D(50,24,25,28)         -2.5149         estimate D2E/DX2                !
 ! D107  D(24,25,26,27)         -0.4511         estimate D2E/DX2                !
 ! D108  D(24,25,26,51)        179.3555         estimate D2E/DX2                !
 ! D109  D(28,25,26,27)       -177.8306         estimate D2E/DX2                !
 ! D110  D(28,25,26,51)          1.9761         estimate D2E/DX2                !
 ! D111  D(24,25,28,29)        -82.9261         estimate D2E/DX2                !
 ! D112  D(24,25,28,53)         39.6674         estimate D2E/DX2                !
 ! D113  D(24,25,28,54)        155.1293         estimate D2E/DX2                !
 ! D114  D(26,25,28,29)         94.3568         estimate D2E/DX2                !
 ! D115  D(26,25,28,53)       -143.0497         estimate D2E/DX2                !
 ! D116  D(26,25,28,54)        -27.5878         estimate D2E/DX2                !
 ! D117  D(25,26,27,22)          1.5882         estimate D2E/DX2                !
 ! D118  D(25,26,27,52)       -179.6862         estimate D2E/DX2                !
 ! D119  D(51,26,27,22)       -178.2213         estimate D2E/DX2                !
 ! D120  D(51,26,27,52)          0.5043         estimate D2E/DX2                !
 ! D121  D(25,28,29,30)         74.592          estimate D2E/DX2                !
 ! D122  D(25,28,29,35)        -64.4671         estimate D2E/DX2                !
 ! D123  D(53,28,29,30)        -48.6658         estimate D2E/DX2                !
 ! D124  D(53,28,29,35)        172.2751         estimate D2E/DX2                !
 ! D125  D(54,28,29,30)       -162.5499         estimate D2E/DX2                !
 ! D126  D(54,28,29,35)         58.3909         estimate D2E/DX2                !
 ! D127  D(28,29,30,31)        -94.0355         estimate D2E/DX2                !
 ! D128  D(28,29,30,55)         34.8637         estimate D2E/DX2                !
 ! D129  D(28,29,30,56)        150.113          estimate D2E/DX2                !
 ! D130  D(35,29,30,31)         48.1638         estimate D2E/DX2                !
 ! D131  D(35,29,30,55)        177.0631         estimate D2E/DX2                !
 ! D132  D(35,29,30,56)        -67.6876         estimate D2E/DX2                !
 ! D133  D(28,29,35,34)         95.5487         estimate D2E/DX2                !
 ! D134  D(28,29,35,64)       -148.16           estimate D2E/DX2                !
 ! D135  D(28,29,35,65)        -32.5133         estimate D2E/DX2                !
 ! D136  D(30,29,35,34)        -46.728          estimate D2E/DX2                !
 ! D137  D(30,29,35,64)         69.5633         estimate D2E/DX2                !
 ! D138  D(30,29,35,65)       -174.79           estimate D2E/DX2                !
 ! D139  D(29,30,31,32)        -53.6252         estimate D2E/DX2                !
 ! D140  D(29,30,31,57)       -173.3009         estimate D2E/DX2                !
 ! D141  D(29,30,31,58)         69.1432         estimate D2E/DX2                !
 ! D142  D(55,30,31,32)        178.4311         estimate D2E/DX2                !
 ! D143  D(55,30,31,57)         58.7555         estimate D2E/DX2                !
 ! D144  D(55,30,31,58)        -58.8004         estimate D2E/DX2                !
 ! D145  D(56,30,31,32)         63.0222         estimate D2E/DX2                !
 ! D146  D(56,30,31,57)        -56.6534         estimate D2E/DX2                !
 ! D147  D(56,30,31,58)       -174.2093         estimate D2E/DX2                !
 ! D148  D(30,31,32,33)        -81.9897         estimate D2E/DX2                !
 ! D149  D(30,31,32,34)         52.4648         estimate D2E/DX2                !
 ! D150  D(57,31,32,33)         36.7922         estimate D2E/DX2                !
 ! D151  D(57,31,32,34)        171.2467         estimate D2E/DX2                !
 ! D152  D(58,31,32,33)        153.2954         estimate D2E/DX2                !
 ! D153  D(58,31,32,34)        -72.25           estimate D2E/DX2                !
 ! D154  D(31,32,33,59)         65.8163         estimate D2E/DX2                !
 ! D155  D(31,32,33,60)        -54.8871         estimate D2E/DX2                !
 ! D156  D(31,32,33,61)       -173.6575         estimate D2E/DX2                !
 ! D157  D(34,32,33,59)        -65.2406         estimate D2E/DX2                !
 ! D158  D(34,32,33,60)        174.0561         estimate D2E/DX2                !
 ! D159  D(34,32,33,61)         55.2856         estimate D2E/DX2                !
 ! D160  D(31,32,34,35)        -50.8261         estimate D2E/DX2                !
 ! D161  D(31,32,34,62)       -176.4147         estimate D2E/DX2                !
 ! D162  D(31,32,34,63)         67.6719         estimate D2E/DX2                !
 ! D163  D(33,32,34,35)         83.7676         estimate D2E/DX2                !
 ! D164  D(33,32,34,62)        -41.8209         estimate D2E/DX2                !
 ! D165  D(33,32,34,63)       -157.7343         estimate D2E/DX2                !
 ! D166  D(32,34,35,29)         50.3365         estimate D2E/DX2                !
 ! D167  D(32,34,35,64)        -66.9475         estimate D2E/DX2                !
 ! D168  D(32,34,35,65)        177.691          estimate D2E/DX2                !
 ! D169  D(62,34,35,29)        174.9961         estimate D2E/DX2                !
 ! D170  D(62,34,35,64)         57.7121         estimate D2E/DX2                !
 ! D171  D(62,34,35,65)        -57.6494         estimate D2E/DX2                !
 ! D172  D(63,34,35,29)        -67.8399         estimate D2E/DX2                !
 ! D173  D(63,34,35,64)        174.8761         estimate D2E/DX2                !
 ! D174  D(63,34,35,65)         59.5146         estimate D2E/DX2                !
 --------------------------------------------------------------------------------
 Trust Radius=3.00D-01 FncErr=1.00D-07 GrdErr=1.00D-06
 Number of steps in this run= 400 maximum allowed number of steps= 408.
 GradGradGradGradGradGradGradGradGradGradGradGradGradGradGradGradGradGrad

 Leave Link  103 at Tue Mar  3 10:17:07 2020, MaxMem= 2684354560 cpu:       0.1
 (Enter /opt/g09gh/gaussian/g09/l202.exe)
 Stoichiometry    C29H31N7O
 Framework group  C1[X(C29H31N7O)]
 Deg. of freedom   198
 Full point group                 C1      NOp   1
 Largest Abelian subgroup         C1      NOp   1
 Largest concise Abelian subgroup C1      NOp   1
                         Standard orientation:                         
 ---------------------------------------------------------------------
 Center     Atomic      Atomic             Coordinates (Angstroms)
 Number     Number       Type             X           Y           Z
 ---------------------------------------------------------------------
      1          6           0       -4.227813   -4.596701   -2.004691
      2          6           0       -4.712378   -3.944212   -0.863213
      3          6           0       -4.330120   -2.614188   -0.595823
      4          6           0       -3.453672   -2.019811   -1.538004
      5          7           0       -2.980969   -2.630626   -2.632530
      6          6           0       -3.366642   -3.895263   -2.855087
      7          6           0       -4.797698   -1.840685    0.610828
      8          6           0       -5.655151   -2.328360    1.611936
      9          6           0       -5.942778   -1.440125    2.654862
     10          7           0       -5.462221   -0.203047    2.742710
     11          6           0       -4.651051    0.174955    1.734312
     12          7           0       -4.310553   -0.588367    0.696200
     13          7           0       -4.143988    1.448332    1.812683
     14          6           0       -3.339320    2.183315    0.901404
     15          6           0       -3.903842    3.301327    0.223775
     16          6           0       -3.066279    3.995456   -0.662366
     17          6           0       -1.735357    3.639698   -0.909523
     18          6           0       -1.199910    2.536075   -0.233685
     19          6           0       -2.009348    1.819274    0.665397
     20          7           0        0.129278    2.031379   -0.397337
     21          6           0        1.112014    2.363003   -1.301334
     22          6           0        2.324838    1.458750   -1.390737
     23          6           0        2.258033    0.065076   -1.230405
     24          6           0        3.416903   -0.710861   -1.303727
     25          6           0        4.675855   -0.129188   -1.544899
     26          6           0        4.725910    1.267827   -1.714216
     27          6           0        3.570702    2.050457   -1.655493
     28          6           0        5.949995   -0.975230   -1.561389
     29          7           0        6.605208   -1.299413   -0.280982
     30          6           0        5.991535   -2.319481    0.598458
     31          6           0        5.046300   -1.744644    1.684658
     32          7           0        5.662913   -0.692440    2.525848
     33          6           0        6.501486   -1.146363    3.641515
     34          6           0        6.243120    0.350527    1.644689
     35          6           0        7.172178   -0.195413    0.528186
     36          8           0        1.047482    3.358025   -2.005361
     37          6           0       -5.345209    3.737068    0.418634
     38          1           0       -4.509433   -5.620882   -2.230884
     39          1           0       -5.380429   -4.492789   -0.203523
     40          1           0       -3.121403   -0.995072   -1.394222
     41          1           0       -2.966542   -4.362139   -3.753559
     42          1           0       -6.081879   -3.323799    1.613647
     43          1           0       -6.597831   -1.744370    3.470817
     44          1           0       -4.490811    1.948590    2.618519
     45          1           0       -3.460603    4.853848   -1.204736
     46          1           0       -1.128720    4.194472   -1.614895
     47          1           0       -1.636354    0.949020    1.188772
     48          1           0        0.355244    1.254868    0.208224
     49          1           0        1.294840   -0.407939   -1.054369
     50          1           0        3.333725   -1.788910   -1.165143
     51          1           0        5.680891    1.761579   -1.892480
     52          1           0        3.617088    3.127951   -1.792275
     53          1           0        5.728707   -1.928824   -2.062739
     54          1           0        6.701474   -0.461859   -2.178898
     55          1           0        5.541031   -3.085028    0.028782
     56          1           0        7.174780   -2.998609    1.395714
     57          1           0        4.654359   -2.898041    2.576607
     58          1           0        4.106360   -1.323911    1.235150
     59          1           0        7.399045   -1.658094    3.276706
     60          1           0        5.938145   -1.833492    4.282971
     61          1           0        6.808193   -0.291371    4.254877
     62          1           0        6.782386    1.137075    2.286649
     63          1           0        5.097574    1.031165    0.974170
     64          1           0        8.429145   -0.783719    1.289420
     65          1           0        7.545009    0.605516   -0.122228
     66          1           0       -5.511264    4.130731    1.431149
     67          1           0       -6.043056    2.900378    0.273485
     68          1           0       -5.651005    4.525042   -0.283337
 ---------------------------------------------------------------------
 Rotational constants (GHZ):      0.1260268      0.0447734      0.0402135
 Leave Link  202 at Tue Mar  3 10:17:08 2020, MaxMem= 2684354560 cpu:       0.0
 (Enter /opt/g09gh/gaussian/g09/l301.exe)
 Standard basis: 6-31G(d) (6D, 7F)
 Ernie: Thresh=  0.10000D-02 Tol=  0.10000D-05 Strict=F.
 There are   617 symmetry adapted basis functions of A   symmetry.
 Integral buffers will be    131072 words long.
 Raffenetti 2 integral format.
 Two-electron integral symmetry is turned on.
   617 basis functions,  1160 primitive gaussians,   617 cartesian basis functions
   131 alpha electrons      131 beta electrons
       nuclear repulsion energy      3641.5647607527 Hartrees.
 IExCor= 4639 DFT=T Ex+Corr=wB97XD ExCW=0 ScaHFX=  1.000000
 ScaDFX=  1.000000  1.000000  1.000000  1.000000 ScalE2=  1.000000  1.000000
 IRadAn=      0 IRanWt=     -1 IRanGd=            0 ICorTp=0
  HFx wShort=  0.000000 wLong=  0.200000 cFull=  0.222036 cShort=  0.000000 cLong=  0.777964
  DFx wShort=  0.000000 wLong=  0.200000 cFull=  0.000000 cShort=  0.000000 cLong=  1.000000
 NAtoms=   68 NActive=   68 NUniq=   68 SFac= 7.50D-01 NAtFMM=   80 NAOKFM=F Big=T
 R6Disp: Dispersion energy =        -0.0552550185 Hartrees.
 Nuclear repulsion after empirical dispersion term =     3641.5095057341 Hartrees.
 Leave Link  301 at Tue Mar  3 10:17:08 2020, MaxMem= 2684354560 cpu:       0.2
 (Enter /opt/g09gh/gaussian/g09/l302.exe)
 NPDir=0 NMtPBC=     1 NCelOv=     1 NCel=       1 NClECP=     1 NCelD=      1
         NCelK=      1 NCelE2=     1 NClLst=     1 CellRange=     0.0.
 One-electron integrals computed using PRISM.
 NBasis=   617 RedAO= T  NBF=   617
 NBsUse=   617 1.00D-06 NBFU=   617
 Precomputing XC quadrature grid using
 IXCGrd= 2 IRadAn=           0 IRanWt=          -1 IRanGd=           0 AccXCQ= 1.00D-10.
 NRdTot=    4383 NPtTot=      560546 NUsed=      592124 NTot=      592156
 NSgBfM=   602   602   602   602   602 NAtAll=    68    68.
 Leave Link  302 at Tue Mar  3 10:17:09 2020, MaxMem= 2684354560 cpu:       7.4
 (Enter /opt/g09gh/gaussian/g09/l303.exe)
 DipDrv:  MaxL=1.
 Leave Link  303 at Tue Mar  3 10:17:09 2020, MaxMem= 2684354560 cpu:       0.5
 (Enter /opt/g09gh/gaussian/g09/l401.exe)
 Harris functional with IExCor= 4639 diagonalized for initial guess.
 ExpMin= 1.61D-01 ExpMax= 5.48D+03 ExpMxC= 8.25D+02 IAcc=1 IRadAn=         1 AccDes= 0.00D+00
 HarFok:  IExCor= 4639 AccDes= 0.00D+00 IRadAn=         1 IDoV= 1
 ScaDFX=  1.000000  1.000000  1.000000  1.000000
 FoFCou: FMM=F IPFlag=           0 FMFlag=      100000 FMFlg1=           1
         NFxFlg=           0 DoJE=T BraDBF=F KetDBF=T FulRan=T
         Omega=  0.000000  0.000000  1.000000  0.000000  0.000000 ICntrl=     500 IOpCl=  0
         NMat0=    1 NMatS0=    1 NMatT0=    0 NMatD0=    1 NMtDS0=    0 NMtDT0=    0
         I1Cent=           4 NGrid=           0.
 Petite list used in FoFCou.
 Harris En= -1512.38483025544    
 Initial guess orbital symmetries:
       Occupied  (A) (A) (A) (A) (A) (A) (A) (A) (A) (A) (A) (A)
                 (A) (A) (A) (A) (A) (A) (A) (A) (A) (A) (A) (A)
                 (A) (A) (A) (A) (A) (A) (A) (A) (A) (A) (A) (A)
                 (A) (A) (A) (A) (A) (A) (A) (A) (A) (A) (A) (A)
                 (A) (A) (A) (A) (A) (A) (A) (A) (A) (A) (A) (A)
                 (A) (A) (A) (A) (A) (A) (A) (A) (A) (A) (A) (A)
                 (A) (A) (A) (A) (A) (A) (A) (A) (A) (A) (A) (A)
                 (A) (A) (A) (A) (A) (A) (A) (A) (A) (A) (A) (A)
                 (A) (A) (A) (A) (A) (A) (A) (A) (A) (A) (A) (A)
                 (A) (A) (A) (A) (A) (A) (A) (A) (A) (A) (A) (A)
                 (A) (A) (A) (A) (A) (A) (A) (A) (A) (A) (A)
       Virtual   (A) (A) (A) (A) (A) (A) (A) (A) (A) (A) (A) (A)
                 (A) (A) (A) (A) (A) (A) (A) (A) (A) (A) (A) (A)
                 (A) (A) (A) (A) (A) (A) (A) (A) (A) (A) (A) (A)
                 (A) (A) (A) (A) (A) (A) (A) (A) (A) (A) (A) (A)
                 (A) (A) (A) (A) (A) (A) (A) (A) (A) (A) (A) (A)
                 (A) (A) (A) (A) (A) (A) (A) (A) (A) (A) (A) (A)
                 (A) (A) (A) (A) (A) (A) (A) (A) (A) (A) (A) (A)
                 (A) (A) (A) (A) (A) (A) (A) (A) (A) (A) (A) (A)
                 (A) (A) (A) (A) (A) (A) (A) (A) (A) (A) (A) (A)
                 (A) (A) (A) (A) (A) (A) (A) (A) (A) (A) (A) (A)
                 (A) (A) (A) (A) (A) (A) (A) (A) (A) (A) (A) (A)
                 (A) (A) (A) (A) (A) (A) (A) (A) (A) (A) (A) (A)
                 (A) (A) (A) (A) (A) (A) (A) (A) (A) (A) (A) (A)
                 (A) (A) (A) (A) (A) (A) (A) (A) (A) (A) (A) (A)
                 (A) (A) (A) (A) (A) (A) (A) (A) (A) (A) (A) (A)
                 (A) (A) (A) (A) (A) (A) (A) (A) (A) (A) (A) (A)
                 (A) (A) (A) (A) (A) (A) (A) (A) (A) (A) (A) (A)
                 (A) (A) (A) (A) (A) (A) (A) (A) (A) (A) (A) (A)
                 (A) (A) (A) (A) (A) (A) (A) (A) (A) (A) (A) (A)
                 (A) (A) (A) (A) (A) (A) (A) (A) (A) (A) (A) (A)
                 (A) (A) (A) (A) (A) (A) (A) (A) (A) (A) (A) (A)
                 (A) (A) (A) (A) (A) (A) (A) (A) (A) (A) (A) (A)
                 (A) (A) (A) (A) (A) (A) (A) (A) (A) (A) (A) (A)
                 (A) (A) (A) (A) (A) (A) (A) (A) (A) (A) (A) (A)
                 (A) (A) (A) (A) (A) (A) (A) (A) (A) (A) (A) (A)
                 (A) (A) (A) (A) (A) (A) (A) (A) (A) (A) (A) (A)
                 (A) (A) (A) (A) (A) (A) (A) (A) (A) (A) (A) (A)
                 (A) (A) (A) (A) (A) (A) (A) (A) (A) (A) (A) (A)
                 (A) (A) (A) (A) (A) (A) (A) (A) (A) (A) (A) (A)
                 (A) (A) (A) (A) (A) (A) (A) (A) (A) (A) (A) (A)
                 (A) (A) (A) (A) (A) (A) (A) (A) (A) (A) (A) (A)
                 (A) (A) (A) (A) (A) (A) (A) (A) (A) (A) (A) (A)
                 (A) (A) (A) (A) (A) (A) (A) (A) (A) (A) (A) (A)
                 (A) (A) (A) (A) (A) (A) (A) (A) (A) (A) (A) (A)
                 (A) (A) (A) (A) (A) (A) (A) (A) (A) (A) (A) (A)
                 (A) (A) (A) (A) (A) (A) (A) (A) (A) (A) (A) (A)
                 (A) (A) (A) (A) (A) (A) (A) (A) (A) (A) (A) (A)
                 (A) (A) (A) (A) (A) (A) (A) (A) (A) (A) (A) (A)
                 (A) (A) (A) (A) (A) (A) (A) (A) (A) (A) (A) (A)
                 (A) (A) (A) (A) (A) (A) (A) (A) (A) (A) (A) (A)
                 (A) (A) (A) (A) (A) (A)
 The electronic state of the initial guess is 1-A.
 Leave Link  401 at Tue Mar  3 10:17:11 2020, MaxMem= 2684354560 cpu:      14.8
 (Enter /opt/g09gh/gaussian/g09/l502.exe)
 Closed shell SCF:
 Requested convergence on RMS density matrix=1.00D-08 within 128 cycles.
 Requested convergence on MAX density matrix=1.00D-06.
 Requested convergence on             energy=1.00D-06.
 No special actions if energy rises.
 Using DIIS extrapolation, IDIIS=  1040.
 Integral symmetry usage will be decided dynamically.
       591499 words used for storage of precomputed grid.
 IEnd=     1760079 IEndB=     1760079 NGot=  2684354560 MDV=  2682992428
 LenX=  2682992428 LenY=  2682611122
 Fock matrices will be formed incrementally for  20 cycles.
 Integral accuracy reduced to 1.0D-05 until final iterations.

 Cycle   1  Pass 0  IDiag  1:
 FoFJK:  IHMeth= 1 ICntrl=     0 DoSepK=T KAlg= 1 I1Cent= 0 FoldK=F
 FoFCou: FMM=T IPFlag=           0 FMFlag=      100000 FMFlg1=           1
         NFxFlg=           0 DoJE=T BraDBF=F KetDBF=F FulRan=T
         Omega=  0.000000  0.000000  1.000000  0.000000  0.000000 ICntrl=     500 IOpCl=  0
         NMat0=    1 NMatS0=    1 NMatT0=    0 NMatD0=    1 NMtDS0=    0 NMtDT0=    0
         I1Cent=           0 NGrid=           0.
 Symmetry not used in FoFCou.
 FMM levels:  10  Number of levels for PrismC:   9
 E= -1581.16862502739    
 DIIS: error= 5.73D-02 at cycle   1 NSaved=   1.
 NSaved= 1 IEnMin= 1 EnMin= -1581.16862502739     IErMin= 1 ErrMin= 5.73D-02
 ErrMax= 5.73D-02 EMaxC= 1.00D-01 BMatC= 1.44D+00 BMatP= 1.44D+00
 IDIUse=3 WtCom= 4.27D-01 WtEn= 5.73D-01
 Coeff-Com:  0.100D+01
 Coeff-En:   0.100D+01
 Coeff:      0.100D+01
 Gap=     0.291 Goal=   None    Shift=    0.000
 GapD=    0.291 DampG=1.000 DampE=0.500 DampFc=0.5000 IDamp=-1.
 Damping current iteration by 5.00D-01
 RMSDP=1.83D-03 MaxDP=8.83D-02              OVMax= 1.19D-01

 Cycle   2  Pass 0  IDiag  1:
 RMSU=  6.46D-04    CP:  1.00D+00
 FoFJK:  IHMeth= 1 ICntrl=     0 DoSepK=T KAlg= 1 I1Cent= 0 FoldK=F
 E= -1581.33938941391     Delta-E=       -0.170764386520 Rises=F Damp=T
 DIIS: error= 2.93D-02 at cycle   2 NSaved=   2.
 NSaved= 2 IEnMin= 2 EnMin= -1581.33938941391     IErMin= 2 ErrMin= 2.93D-02
 ErrMax= 2.93D-02 EMaxC= 1.00D-01 BMatC= 3.22D-01 BMatP= 1.44D+00
 IDIUse=3 WtCom= 7.07D-01 WtEn= 2.93D-01
 Coeff-Com: -0.681D+00 0.168D+01
 Coeff-En:   0.000D+00 0.100D+01
 Coeff:     -0.482D+00 0.148D+01
 Gap=     0.303 Goal=   None    Shift=    0.000
 RMSDP=8.62D-04 MaxDP=3.92D-02 DE=-1.71D-01 OVMax= 9.86D-02

 Cycle   3  Pass 0  IDiag  1:
 RMSU=  5.42D-04    CP:  1.00D+00  1.43D+00
 FoFJK:  IHMeth= 1 ICntrl=     0 DoSepK=T KAlg= 1 I1Cent= 0 FoldK=F
 E= -1581.46766619412     Delta-E=       -0.128276780210 Rises=F Damp=F
 DIIS: error= 7.76D-03 at cycle   3 NSaved=   3.
 NSaved= 3 IEnMin= 3 EnMin= -1581.46766619412     IErMin= 3 ErrMin= 7.76D-03
 ErrMax= 7.76D-03 EMaxC= 1.00D-01 BMatC= 5.62D-02 BMatP= 3.22D-01
 IDIUse=3 WtCom= 9.22D-01 WtEn= 7.76D-02
 Coeff-Com: -0.367D+00 0.758D+00 0.609D+00
 Coeff-En:   0.000D+00 0.000D+00 0.100D+01
 Coeff:     -0.339D+00 0.699D+00 0.639D+00
 Gap=     0.274 Goal=   None    Shift=    0.000
 RMSDP=4.42D-04 MaxDP=2.68D-02 DE=-1.28D-01 OVMax= 5.29D-02

 Cycle   4  Pass 0  IDiag  1:
 RMSU=  1.37D-04    CP:  1.00D+00  1.70D+00  5.96D-01
 FoFJK:  IHMeth= 1 ICntrl=     0 DoSepK=T KAlg= 1 I1Cent= 0 FoldK=F
 E= -1581.51691639732     Delta-E=       -0.049250203197 Rises=F Damp=F
 DIIS: error= 2.78D-03 at cycle   4 NSaved=   4.
 NSaved= 4 IEnMin= 4 EnMin= -1581.51691639732     IErMin= 4 ErrMin= 2.78D-03
 ErrMax= 2.78D-03 EMaxC= 1.00D-01 BMatC= 3.43D-03 BMatP= 5.62D-02
 IDIUse=3 WtCom= 9.72D-01 WtEn= 2.78D-02
 Coeff-Com: -0.163D+00 0.333D+00 0.343D+00 0.488D+00
 Coeff-En:   0.000D+00 0.000D+00 0.000D+00 0.100D+01
 Coeff:     -0.159D+00 0.323D+00 0.333D+00 0.502D+00
 Gap=     0.267 Goal=   None    Shift=    0.000
 RMSDP=9.81D-05 MaxDP=8.50D-03 DE=-4.93D-02 OVMax= 8.47D-03

 Cycle   5  Pass 0  IDiag  1:
 RMSU=  4.47D-05    CP:  1.00D+00  1.69D+00  6.62D-01  7.21D-01
 FoFJK:  IHMeth= 1 ICntrl=     0 DoSepK=T KAlg= 1 I1Cent= 0 FoldK=F
 E= -1581.51981055609     Delta-E=       -0.002894158777 Rises=F Damp=F
 DIIS: error= 4.09D-04 at cycle   5 NSaved=   5.
 NSaved= 5 IEnMin= 5 EnMin= -1581.51981055609     IErMin= 5 ErrMin= 4.09D-04
 ErrMax= 4.09D-04 EMaxC= 1.00D-01 BMatC= 9.12D-05 BMatP= 3.43D-03
 IDIUse=3 WtCom= 9.96D-01 WtEn= 4.09D-03
 Coeff-Com: -0.162D-01 0.321D-01 0.552D-01 0.169D+00 0.760D+00
 Coeff-En:   0.000D+00 0.000D+00 0.000D+00 0.000D+00 0.100D+01
 Coeff:     -0.161D-01 0.320D-01 0.550D-01 0.169D+00 0.761D+00
 Gap=     0.266 Goal=   None    Shift=    0.000
 RMSDP=2.34D-05 MaxDP=2.17D-03 DE=-2.89D-03 OVMax= 2.83D-03

 Cycle   6  Pass 0  IDiag  1:
 RMSU=  1.29D-05    CP:  1.00D+00  1.69D+00  6.68D-01  7.85D-01  9.75D-01
 FoFJK:  IHMeth= 1 ICntrl=     0 DoSepK=T KAlg= 1 I1Cent= 0 FoldK=F
 E= -1581.51989708752     Delta-E=       -0.000086531422 Rises=F Damp=F
 DIIS: error= 2.82D-04 at cycle   6 NSaved=   6.
 NSaved= 6 IEnMin= 6 EnMin= -1581.51989708752     IErMin= 6 ErrMin= 2.82D-04
 ErrMax= 2.82D-04 EMaxC= 1.00D-01 BMatC= 2.36D-05 BMatP= 9.12D-05
 IDIUse=3 WtCom= 9.97D-01 WtEn= 2.82D-03
 Coeff-Com:  0.222D-01-0.459D-01-0.339D-01-0.104D-01 0.376D+00 0.692D+00
 Coeff-En:   0.000D+00 0.000D+00 0.000D+00 0.000D+00 0.000D+00 0.100D+01
 Coeff:      0.221D-01-0.457D-01-0.338D-01-0.104D-01 0.375D+00 0.693D+00
 Gap=     0.267 Goal=   None    Shift=    0.000
 RMSDP=1.25D-05 MaxDP=7.50D-04 DE=-8.65D-05 OVMax= 1.69D-03

 Cycle   7  Pass 0  IDiag  1:
 RMSU=  5.46D-06    CP:  1.00D+00  1.69D+00  6.72D-01  8.13D-01  1.09D+00
                    CP:  9.19D-01
 FoFJK:  IHMeth= 1 ICntrl=     0 DoSepK=T KAlg= 1 I1Cent= 0 FoldK=F
 E= -1581.51992394879     Delta-E=       -0.000026861269 Rises=F Damp=F
 DIIS: error= 3.79D-05 at cycle   7 NSaved=   7.
 NSaved= 7 IEnMin= 7 EnMin= -1581.51992394879     IErMin= 7 ErrMin= 3.79D-05
 ErrMax= 3.79D-05 EMaxC= 1.00D-01 BMatC= 1.65D-06 BMatP= 2.36D-05
 IDIUse=1 WtCom= 1.00D+00 WtEn= 0.00D+00
 Coeff-Com:  0.964D-02-0.197D-01-0.169D-01-0.211D-01 0.594D-01 0.243D+00
 Coeff-Com:  0.746D+00
 Coeff:      0.964D-02-0.197D-01-0.169D-01-0.211D-01 0.594D-01 0.243D+00
 Coeff:      0.746D+00
 Gap=     0.267 Goal=   None    Shift=    0.000
 RMSDP=4.16D-06 MaxDP=1.78D-04 DE=-2.69D-05 OVMax= 5.91D-04

 Initial convergence to 1.0D-05 achieved.  Increase integral accuracy.
 Cycle   8  Pass 1  IDiag  1:
 FoFJK:  IHMeth= 1 ICntrl=     0 DoSepK=T KAlg= 1 I1Cent= 0 FoldK=F
 E= -1581.51884164624     Delta-E=        0.001082302549 Rises=F Damp=F
 DIIS: error= 1.17D-04 at cycle   1 NSaved=   1.
 NSaved= 1 IEnMin= 1 EnMin= -1581.51884164624     IErMin= 1 ErrMin= 1.17D-04
 ErrMax= 1.17D-04 EMaxC= 1.00D-01 BMatC= 1.21D-05 BMatP= 1.21D-05
 IDIUse=3 WtCom= 9.99D-01 WtEn= 1.17D-03
 Coeff-Com:  0.100D+01
 Coeff-En:   0.100D+01
 Coeff:      0.100D+01
 Gap=     0.267 Goal=   None    Shift=    0.000
 RMSDP=4.16D-06 MaxDP=1.78D-04 DE= 1.08D-03 OVMax= 3.18D-04

 Cycle   9  Pass 1  IDiag  1:
 RMSU=  1.60D-05    CP:  1.00D+00
 FoFJK:  IHMeth= 1 ICntrl=     0 DoSepK=T KAlg= 1 I1Cent= 0 FoldK=F
 E= -1581.51885119415     Delta-E=       -0.000009547914 Rises=F Damp=F
 DIIS: error= 3.10D-05 at cycle   2 NSaved=   2.
 NSaved= 2 IEnMin= 2 EnMin= -1581.51885119415     IErMin= 2 ErrMin= 3.10D-05
 ErrMax= 3.10D-05 EMaxC= 1.00D-01 BMatC= 6.80D-07 BMatP= 1.21D-05
 IDIUse=1 WtCom= 1.00D+00 WtEn= 0.00D+00
 Coeff-Com:  0.238D-01 0.976D+00
 Coeff:      0.238D-01 0.976D+00
 Gap=     0.267 Goal=   None    Shift=    0.000
 RMSDP=3.00D-06 MaxDP=1.84D-04 DE=-9.55D-06 OVMax= 2.71D-04

 Cycle  10  Pass 1  IDiag  1:
 RMSU=  1.99D-06    CP:  1.00D+00  1.05D+00
 FoFJK:  IHMeth= 1 ICntrl=     0 DoSepK=T KAlg= 1 I1Cent= 0 FoldK=F
 E= -1581.51885122718     Delta-E=       -0.000000033028 Rises=F Damp=F
 DIIS: error= 4.51D-05 at cycle   3 NSaved=   3.
 NSaved= 3 IEnMin= 3 EnMin= -1581.51885122718     IErMin= 2 ErrMin= 3.10D-05
 ErrMax= 4.51D-05 EMaxC= 1.00D-01 BMatC= 8.50D-07 BMatP= 6.80D-07
 IDIUse=1 WtCom= 1.00D+00 WtEn= 0.00D+00
 Coeff-Com: -0.426D-01 0.548D+00 0.494D+00
 Coeff:     -0.426D-01 0.548D+00 0.494D+00
 Gap=     0.267 Goal=   None    Shift=    0.000
 RMSDP=1.50D-06 MaxDP=1.14D-04 DE=-3.30D-08 OVMax= 1.49D-04

 Cycle  11  Pass 1  IDiag  1:
 RMSU=  6.14D-07    CP:  1.00D+00  1.06D+00  5.75D-01
 FoFJK:  IHMeth= 1 ICntrl=     0 DoSepK=T KAlg= 1 I1Cent= 0 FoldK=F
 E= -1581.51885197010     Delta-E=       -0.000000742923 Rises=F Damp=F
 DIIS: error= 6.66D-06 at cycle   4 NSaved=   4.
 NSaved= 4 IEnMin= 4 EnMin= -1581.51885197010     IErMin= 4 ErrMin= 6.66D-06
 ErrMax= 6.66D-06 EMaxC= 1.00D-01 BMatC= 1.82D-08 BMatP= 6.80D-07
 IDIUse=1 WtCom= 1.00D+00 WtEn= 0.00D+00
 Coeff-Com: -0.165D-01 0.125D+00 0.164D+00 0.727D+00
 Coeff:     -0.165D-01 0.125D+00 0.164D+00 0.727D+00
 Gap=     0.267 Goal=   None    Shift=    0.000
 RMSDP=3.27D-07 MaxDP=2.97D-05 DE=-7.43D-07 OVMax= 4.14D-05

 Cycle  12  Pass 1  IDiag  1:
 RMSU=  1.99D-07    CP:  1.00D+00  1.06D+00  6.28D-01  1.08D+00
 FoFJK:  IHMeth= 1 ICntrl=     0 DoSepK=T KAlg= 1 I1Cent= 0 FoldK=F
 E= -1581.51885198865     Delta-E=       -0.000000018551 Rises=F Damp=F
 DIIS: error= 3.11D-06 at cycle   5 NSaved=   5.
 NSaved= 5 IEnMin= 5 EnMin= -1581.51885198865     IErMin= 5 ErrMin= 3.11D-06
 ErrMax= 3.11D-06 EMaxC= 1.00D-01 BMatC= 4.50D-09 BMatP= 1.82D-08
 IDIUse=1 WtCom= 1.00D+00 WtEn= 0.00D+00
 Coeff-Com:  0.729D-03-0.454D-01-0.184D-01 0.329D+00 0.734D+00
 Coeff:      0.729D-03-0.454D-01-0.184D-01 0.329D+00 0.734D+00
 Gap=     0.267 Goal=   None    Shift=    0.000
 RMSDP=1.84D-07 MaxDP=1.17D-05 DE=-1.86D-08 OVMax= 3.01D-05

 Cycle  13  Pass 1  IDiag  1:
 RMSU=  8.30D-08    CP:  1.00D+00  1.06D+00  6.46D-01  1.23D+00  9.35D-01
 FoFJK:  IHMeth= 1 ICntrl=     0 DoSepK=T KAlg= 1 I1Cent= 0 FoldK=F
 E= -1581.51885199487     Delta-E=       -0.000000006214 Rises=F Damp=F
 DIIS: error= 6.24D-07 at cycle   6 NSaved=   6.
 NSaved= 6 IEnMin= 6 EnMin= -1581.51885199487     IErMin= 6 ErrMin= 6.24D-07
 ErrMax= 6.24D-07 EMaxC= 1.00D-01 BMatC= 4.92D-10 BMatP= 4.50D-09
 IDIUse=1 WtCom= 1.00D+00 WtEn= 0.00D+00
 Coeff-Com:  0.218D-02-0.306D-01-0.267D-01 0.286D-01 0.271D+00 0.756D+00
 Coeff:      0.218D-02-0.306D-01-0.267D-01 0.286D-01 0.271D+00 0.756D+00
 Gap=     0.267 Goal=   None    Shift=    0.000
 RMSDP=7.76D-08 MaxDP=3.30D-06 DE=-6.21D-09 OVMax= 1.32D-05

 Cycle  14  Pass 1  IDiag  1:
 RMSU=  3.27D-08    CP:  1.00D+00  1.06D+00  6.51D-01  1.28D+00  1.07D+00
                    CP:  1.07D+00
 FoFJK:  IHMeth= 1 ICntrl=     0 DoSepK=T KAlg= 1 I1Cent= 0 FoldK=F
 E= -1581.51885199585     Delta-E=       -0.000000000982 Rises=F Damp=F
 DIIS: error= 2.86D-07 at cycle   7 NSaved=   7.
 NSaved= 7 IEnMin= 7 EnMin= -1581.51885199585     IErMin= 7 ErrMin= 2.86D-07
 ErrMax= 2.86D-07 EMaxC= 1.00D-01 BMatC= 9.28D-11 BMatP= 4.92D-10
 IDIUse=1 WtCom= 1.00D+00 WtEn= 0.00D+00
 Coeff-Com:  0.656D-03-0.242D-02-0.704D-02-0.584D-01-0.385D-01 0.290D+00
 Coeff-Com:  0.816D+00
 Coeff:      0.656D-03-0.242D-02-0.704D-02-0.584D-01-0.385D-01 0.290D+00
 Coeff:      0.816D+00
 Gap=     0.267 Goal=   None    Shift=    0.000
 RMSDP=4.11D-08 MaxDP=1.82D-06 DE=-9.82D-10 OVMax= 7.69D-06

 Cycle  15  Pass 1  IDiag  1:
 RMSU=  1.42D-08    CP:  1.00D+00  1.06D+00  6.56D-01  1.30D+00  1.12D+00
                    CP:  1.27D+00  1.07D+00
 FoFJK:  IHMeth= 1 ICntrl=     0 DoSepK=T KAlg= 1 I1Cent= 0 FoldK=F
 E= -1581.51885199613     Delta-E=       -0.000000000284 Rises=F Damp=F
 DIIS: error= 1.42D-07 at cycle   8 NSaved=   8.
 NSaved= 8 IEnMin= 8 EnMin= -1581.51885199613     IErMin= 8 ErrMin= 1.42D-07
 ErrMax= 1.42D-07 EMaxC= 1.00D-01 BMatC= 1.44D-11 BMatP= 9.28D-11
 IDIUse=1 WtCom= 1.00D+00 WtEn= 0.00D+00
 Coeff-Com: -0.100D-03 0.397D-02 0.167D-02-0.252D-01-0.547D-01-0.206D-01
 Coeff-Com:  0.297D+00 0.798D+00
 Coeff:     -0.100D-03 0.397D-02 0.167D-02-0.252D-01-0.547D-01-0.206D-01
 Coeff:      0.297D+00 0.798D+00
 Gap=     0.267 Goal=   None    Shift=    0.000
 RMSDP=1.61D-08 MaxDP=7.42D-07 DE=-2.84D-10 OVMax= 3.41D-06

 Cycle  16  Pass 1  IDiag  1:
 RMSU=  5.48D-09    CP:  1.00D+00  1.06D+00  6.56D-01  1.31D+00  1.14D+00
                    CP:  1.33D+00  1.25D+00  1.08D+00
 FoFJK:  IHMeth= 1 ICntrl=     0 DoSepK=T KAlg= 1 I1Cent= 0 FoldK=F
 E= -1581.51885199614     Delta-E=       -0.000000000005 Rises=F Damp=F
 DIIS: error= 4.15D-08 at cycle   9 NSaved=   9.
 NSaved= 9 IEnMin= 9 EnMin= -1581.51885199614     IErMin= 9 ErrMin= 4.15D-08
 ErrMax= 4.15D-08 EMaxC= 1.00D-01 BMatC= 2.46D-12 BMatP= 1.44D-11
 IDIUse=1 WtCom= 1.00D+00 WtEn= 0.00D+00
 Coeff-Com: -0.151D-03 0.192D-02 0.188D-02 0.375D-03-0.150D-01-0.614D-01
 Coeff-Com: -0.323D-01 0.293D+00 0.812D+00
 Coeff:     -0.151D-03 0.192D-02 0.188D-02 0.375D-03-0.150D-01-0.614D-01
 Coeff:     -0.323D-01 0.293D+00 0.812D+00
 Gap=     0.267 Goal=   None    Shift=    0.000
 RMSDP=6.78D-09 MaxDP=2.86D-07 DE=-4.55D-12 OVMax= 1.30D-06

 SCF Done:  E(RwB97XD) =  -1581.51885200     A.U. after   16 cycles
             Convg  =    0.6777D-08             -V/T =  2.0108
 KE= 1.564544588612D+03 PE=-1.095175387776D+04 EE= 4.164180931420D+03
 Leave Link  502 at Tue Mar  3 10:19:48 2020, MaxMem= 2684354560 cpu:     939.4
 (Enter /opt/g09gh/gaussian/g09/l601.exe)
 Copying SCF densities to generalized density rwf, IOpCl= 0 IROHF=0.

 **********************************************************************

            Population analysis using the SCF density.

 **********************************************************************

 Orbital symmetries:
       Occupied  (A) (A) (A) (A) (A) (A) (A) (A) (A) (A) (A) (A)
                 (A) (A) (A) (A) (A) (A) (A) (A) (A) (A) (A) (A)
                 (A) (A) (A) (A) (A) (A) (A) (A) (A) (A) (A) (A)
                 (A) (A) (A) (A) (A) (A) (A) (A) (A) (A) (A) (A)
                 (A) (A) (A) (A) (A) (A) (A) (A) (A) (A) (A) (A)
                 (A) (A) (A) (A) (A) (A) (A) (A) (A) (A) (A) (A)
                 (A) (A) (A) (A) (A) (A) (A) (A) (A) (A) (A) (A)
                 (A) (A) (A) (A) (A) (A) (A) (A) (A) (A) (A) (A)
                 (A) (A) (A) (A) (A) (A) (A) (A) (A) (A) (A) (A)
                 (A) (A) (A) (A) (A) (A) (A) (A) (A) (A) (A) (A)
                 (A) (A) (A) (A) (A) (A) (A) (A) (A) (A) (A)
       Virtual   (A) (A) (A) (A) (A) (A) (A) (A) (A) (A) (A) (A)
                 (A) (A) (A) (A) (A) (A) (A) (A) (A) (A) (A) (A)
                 (A) (A) (A) (A) (A) (A) (A) (A) (A) (A) (A) (A)
                 (A) (A) (A) (A) (A) (A) (A) (A) (A) (A) (A) (A)
                 (A) (A) (A) (A) (A) (A) (A) (A) (A) (A) (A) (A)
                 (A) (A) (A) (A) (A) (A) (A) (A) (A) (A) (A) (A)
                 (A) (A) (A) (A) (A) (A) (A) (A) (A) (A) (A) (A)
                 (A) (A) (A) (A) (A) (A) (A) (A) (A) (A) (A) (A)
                 (A) (A) (A) (A) (A) (A) (A) (A) (A) (A) (A) (A)
                 (A) (A) (A) (A) (A) (A) (A) (A) (A) (A) (A) (A)
                 (A) (A) (A) (A) (A) (A) (A) (A) (A) (A) (A) (A)
                 (A) (A) (A) (A) (A) (A) (A) (A) (A) (A) (A) (A)
                 (A) (A) (A) (A) (A) (A) (A) (A) (A) (A) (A) (A)
                 (A) (A) (A) (A) (A) (A) (A) (A) (A) (A) (A) (A)
                 (A) (A) (A) (A) (A) (A) (A) (A) (A) (A) (A) (A)
                 (A) (A) (A) (A) (A) (A) (A) (A) (A) (A) (A) (A)
                 (A) (A) (A) (A) (A) (A) (A) (A) (A) (A) (A) (A)
                 (A) (A) (A) (A) (A) (A) (A) (A) (A) (A) (A) (A)
                 (A) (A) (A) (A) (A) (A) (A) (A) (A) (A) (A) (A)
                 (A) (A) (A) (A) (A) (A) (A) (A) (A) (A) (A) (A)
                 (A) (A) (A) (A) (A) (A) (A) (A) (A) (A) (A) (A)
                 (A) (A) (A) (A) (A) (A) (A) (A) (A) (A) (A) (A)
                 (A) (A) (A) (A) (A) (A) (A) (A) (A) (A) (A) (A)
                 (A) (A) (A) (A) (A) (A) (A) (A) (A) (A) (A) (A)
                 (A) (A) (A) (A) (A) (A) (A) (A) (A) (A) (A) (A)
                 (A) (A) (A) (A) (A) (A) (A) (A) (A) (A) (A) (A)
                 (A) (A) (A) (A) (A) (A) (A) (A) (A) (A) (A) (A)
                 (A) (A) (A) (A) (A) (A) (A) (A) (A) (A) (A) (A)
                 (A) (A) (A) (A) (A) (A) (A) (A) (A) (A) (A) (A)
                 (A) (A) (A) (A) (A) (A) (A) (A) (A) (A) (A) (A)
                 (A) (A) (A) (A) (A) (A) (A) (A) (A) (A) (A) (A)
                 (A) (A) (A) (A) (A) (A) (A) (A) (A) (A) (A) (A)
                 (A) (A) (A) (A) (A) (A) (A) (A) (A) (A) (A) (A)
                 (A) (A) (A) (A) (A) (A) (A) (A) (A) (A) (A) (A)
                 (A) (A) (A) (A) (A) (A) (A) (A) (A) (A) (A) (A)
                 (A) (A) (A) (A) (A) (A) (A) (A) (A) (A) (A) (A)
                 (A) (A) (A) (A) (A) (A) (A) (A) (A) (A) (A) (A)
                 (A) (A) (A) (A) (A) (A) (A) (A) (A) (A) (A) (A)
                 (A) (A) (A) (A) (A) (A) (A) (A) (A) (A) (A) (A)
                 (A) (A) (A) (A) (A) (A) (A) (A) (A) (A) (A) (A)
                 (A) (A) (A) (A) (A) (A)
 The electronic state is 1-A.
 Alpha  occ. eigenvalues --  -19.24084 -14.49618 -14.48147 -14.46906 -14.45216
 Alpha  occ. eigenvalues --  -14.45193 -14.44867 -14.44774 -10.41225 -10.41093
 Alpha  occ. eigenvalues --  -10.37308 -10.36656 -10.36242 -10.36062 -10.36029
 Alpha  occ. eigenvalues --  -10.35647 -10.35635 -10.34949 -10.34624 -10.34186
 Alpha  occ. eigenvalues --  -10.33805 -10.33341 -10.33059 -10.32536 -10.32510
 Alpha  occ. eigenvalues --  -10.32256 -10.31908 -10.31793 -10.31639 -10.31583
 Alpha  occ. eigenvalues --  -10.31532 -10.31306 -10.31088 -10.30926 -10.30423
 Alpha  occ. eigenvalues --  -10.30020 -10.29945  -1.14238  -1.10988  -1.04405
 Alpha  occ. eigenvalues --   -1.04044  -1.03786  -1.03048  -0.99782  -0.99332
 Alpha  occ. eigenvalues --   -0.96747  -0.94719  -0.91515  -0.88827  -0.88280
 Alpha  occ. eigenvalues --   -0.86727  -0.86197  -0.85646  -0.84078  -0.83842
 Alpha  occ. eigenvalues --   -0.82292  -0.79604  -0.78145  -0.77003  -0.75445
 Alpha  occ. eigenvalues --   -0.73174  -0.72519  -0.72181  -0.71486  -0.71205
 Alpha  occ. eigenvalues --   -0.70753  -0.69934  -0.68563  -0.66490  -0.64309
 Alpha  occ. eigenvalues --   -0.63704  -0.62456  -0.61459  -0.60959  -0.59864
 Alpha  occ. eigenvalues --   -0.58815  -0.57709  -0.57123  -0.56547  -0.56324
 Alpha  occ. eigenvalues --   -0.55696  -0.55458  -0.54916  -0.54486  -0.54277
 Alpha  occ. eigenvalues --   -0.53363  -0.53129  -0.52738  -0.52274  -0.51701
 Alpha  occ. eigenvalues --   -0.51650  -0.51278  -0.51007  -0.50592  -0.50314
 Alpha  occ. eigenvalues --   -0.50155  -0.50086  -0.49045  -0.48890  -0.48725
 Alpha  occ. eigenvalues --   -0.47504  -0.47320  -0.46675  -0.46474  -0.45463
 Alpha  occ. eigenvalues --   -0.45156  -0.44739  -0.44684  -0.44180  -0.43992
 Alpha  occ. eigenvalues --   -0.43688  -0.42915  -0.41963  -0.40522  -0.40301
 Alpha  occ. eigenvalues --   -0.39788  -0.38301  -0.37928  -0.36429  -0.36034
 Alpha  occ. eigenvalues --   -0.34526  -0.34455  -0.33800  -0.33699  -0.32792
 Alpha  occ. eigenvalues --   -0.32681  -0.32347  -0.31493  -0.29766  -0.28717
 Alpha  occ. eigenvalues --   -0.26363
 Alpha virt. eigenvalues --    0.00305   0.02274   0.04115   0.05142   0.05647
 Alpha virt. eigenvalues --    0.06946   0.07078   0.07634   0.09507   0.09703
 Alpha virt. eigenvalues --    0.11902   0.12996   0.13780   0.15604   0.16277
 Alpha virt. eigenvalues --    0.16631   0.17663   0.18374   0.18636   0.19456
 Alpha virt. eigenvalues --    0.19800   0.20066   0.20726   0.21656   0.22225
 Alpha virt. eigenvalues --    0.22567   0.22612   0.22931   0.23088   0.23567
 Alpha virt. eigenvalues --    0.23705   0.24395   0.24781   0.24912   0.25188
 Alpha virt. eigenvalues --    0.25656   0.25908   0.26058   0.26155   0.26486
 Alpha virt. eigenvalues --    0.27231   0.27449   0.28188   0.28290   0.28719
 Alpha virt. eigenvalues --    0.28985   0.29388   0.29792   0.30593   0.31234
 Alpha virt. eigenvalues --    0.31361   0.32027   0.32372   0.32763   0.32960
 Alpha virt. eigenvalues --    0.33581   0.34301   0.35124   0.35984   0.37628
 Alpha virt. eigenvalues --    0.37765   0.38184   0.38660   0.39160   0.39277
 Alpha virt. eigenvalues --    0.39710   0.40543   0.41139   0.41183   0.41818
 Alpha virt. eigenvalues --    0.43657   0.44006   0.44824   0.45843   0.46803
 Alpha virt. eigenvalues --    0.48652   0.49935   0.51518   0.52739   0.53965
 Alpha virt. eigenvalues --    0.55403   0.55722   0.56736   0.57825   0.58085
 Alpha virt. eigenvalues --    0.58386   0.58761   0.59241   0.59742   0.60307
 Alpha virt. eigenvalues --    0.60702   0.61013   0.61118   0.61217   0.61626
 Alpha virt. eigenvalues --    0.62214   0.62601   0.62672   0.63599   0.63830
 Alpha virt. eigenvalues --    0.64190   0.64798   0.65091   0.65582   0.65681
 Alpha virt. eigenvalues --    0.65929   0.66144   0.66320   0.66420   0.66592
 Alpha virt. eigenvalues --    0.67117   0.67228   0.67631   0.67919   0.68367
 Alpha virt. eigenvalues --    0.68715   0.68818   0.69105   0.69458   0.69847
 Alpha virt. eigenvalues --    0.70370   0.70920   0.71265   0.71826   0.71994
 Alpha virt. eigenvalues --    0.72066   0.72538   0.72822   0.73159   0.73791
 Alpha virt. eigenvalues --    0.74055   0.74728   0.75447   0.76506   0.77067
 Alpha virt. eigenvalues --    0.77289   0.77608   0.78607   0.78814   0.79191
 Alpha virt. eigenvalues --    0.79483   0.80102   0.80956   0.81637   0.82536
 Alpha virt. eigenvalues --    0.83586   0.84125   0.84563   0.84974   0.85174
 Alpha virt. eigenvalues --    0.86565   0.87097   0.87305   0.87692   0.88261
 Alpha virt. eigenvalues --    0.88572   0.88838   0.89711   0.90095   0.90629
 Alpha virt. eigenvalues --    0.90796   0.91605   0.91833   0.92098   0.92226
 Alpha virt. eigenvalues --    0.92546   0.93275   0.93884   0.94194   0.94208
 Alpha virt. eigenvalues --    0.94696   0.95171   0.95340   0.95618   0.95662
 Alpha virt. eigenvalues --    0.95974   0.96938   0.97003   0.97263   0.97765
 Alpha virt. eigenvalues --    0.97922   0.98735   0.99302   0.99637   0.99964
 Alpha virt. eigenvalues --    1.00270   1.00629   1.00878   1.01545   1.01675
 Alpha virt. eigenvalues --    1.02469   1.03262   1.03794   1.04065   1.04365
[...]
                 (A) (A) (A) (A) (A) (A) (A) (A) (A) (A) (A) (A)
                 (A) (A) (A) (A) (A) (A) (A) (A) (A) (A) (A) (A)
                 (A) (A) (A) (A) (A) (A) (A) (A) (A) (A) (A) (A)
                 (A) (A) (A) (A) (A) (A) (A) (A) (A) (A) (A) (A)
                 (A) (A) (A) (A) (A) (A) (A) (A) (A) (A) (A) (A)
                 (A) (A) (A) (A) (A) (A) (A) (A) (A) (A) (A) (A)
                 (A) (A) (A) (A) (A) (A) (A) (A) (A) (A) (A) (A)
                 (A) (A) (A) (A) (A) (A) (A) (A) (A) (A) (A) (A)
                 (A) (A) (A) (A) (A) (A) (A) (A) (A) (A) (A) (A)
                 (A) (A) (A) (A) (A) (A) (A) (A) (A) (A) (A) (A)
                 (A) (A) (A) (A) (A) (A) (A) (A) (A) (A) (A) (A)
                 (A) (A) (A) (A) (A) (A) (A) (A) (A) (A) (A) (A)
                 (A) (A) (A) (A) (A) (A) (A) (A) (A) (A) (A) (A)
                 (A) (A) (A) (A) (A) (A) (A) (A) (A) (A) (A) (A)
                 (A) (A) (A) (A) (A) (A) (A) (A) (A) (A) (A) (A)
                 (A) (A) (A) (A) (A) (A) (A) (A) (A) (A) (A) (A)
                 (A) (A) (A) (A) (A) (A) (A) (A) (A) (A) (A) (A)
                 (A) (A) (A) (A) (A) (A) (A) (A) (A) (A) (A) (A)
                 (A) (A) (A) (A) (A) (A) (A) (A) (A) (A) (A) (A)
                 (A) (A) (A) (A) (A) (A) (A) (A) (A) (A) (A) (A)
                 (A) (A) (A) (A) (A) (A) (A) (A) (A) (A) (A) (A)
                 (A) (A) (A) (A) (A) (A) (A) (A) (A) (A) (A) (A)
                 (A) (A) (A) (A) (A) (A) (A) (A) (A) (A) (A) (A)
                 (A) (A) (A) (A) (A) (A) (A) (A) (A) (A) (A) (A)
                 (A) (A) (A) (A) (A) (A) (A) (A) (A) (A) (A) (A)
                 (A) (A) (A) (A) (A) (A) (A) (A) (A) (A) (A) (A)
                 (A) (A) (A) (A) (A) (A) (A) (A) (A) (A) (A) (A)
                 (A) (A) (A) (A) (A) (A) (A) (A) (A) (A) (A) (A)
                 (A) (A) (A) (A) (A) (A) (A) (A) (A) (A) (A) (A)
                 (A) (A) (A) (A) (A) (A) (A) (A) (A) (A) (A) (A)
                 (A) (A) (A) (A) (A) (A) (A) (A) (A) (A) (A) (A)
                 (A) (A) (A) (A) (A) (A)
 The electronic state is 1-A.
 Alpha  occ. eigenvalues --  -19.23411 -14.49282 -14.48321 -14.46751 -14.46096
 Alpha  occ. eigenvalues --  -14.45764 -14.43617 -14.43135 -10.41778 -10.40081
 Alpha  occ. eigenvalues --  -10.37615 -10.36338 -10.35325 -10.35084 -10.34623
 Alpha  occ. eigenvalues --  -10.34135 -10.34016 -10.33622 -10.32863 -10.32367
 Alpha  occ. eigenvalues --  -10.31860 -10.31492 -10.31179 -10.30935 -10.30708
 Alpha  occ. eigenvalues --  -10.30688 -10.30677 -10.30586 -10.30534 -10.30403
 Alpha  occ. eigenvalues --  -10.30377 -10.30220 -10.30020 -10.29975 -10.29575
 Alpha  occ. eigenvalues --  -10.28740 -10.28405  -1.13443  -1.12295  -1.06322
 Alpha  occ. eigenvalues --   -1.04565  -1.03829  -1.03634  -1.00715  -0.99558
 Alpha  occ. eigenvalues --   -0.96086  -0.94671  -0.93098  -0.89777  -0.88124
 Alpha  occ. eigenvalues --   -0.87388  -0.86228  -0.85399  -0.84542  -0.83783
 Alpha  occ. eigenvalues --   -0.81888  -0.79581  -0.78270  -0.77798  -0.76320
 Alpha  occ. eigenvalues --   -0.73881  -0.73301  -0.73025  -0.72621  -0.70870
 Alpha  occ. eigenvalues --   -0.70314  -0.69614  -0.68039  -0.66413  -0.65150
 Alpha  occ. eigenvalues --   -0.63656  -0.63409  -0.62228  -0.61762  -0.60211
 Alpha  occ. eigenvalues --   -0.58848  -0.58045  -0.57570  -0.56611  -0.56101
 Alpha  occ. eigenvalues --   -0.55817  -0.55236  -0.55134  -0.54965  -0.54255
 Alpha  occ. eigenvalues --   -0.53867  -0.53239  -0.53154  -0.52612  -0.52174
 Alpha  occ. eigenvalues --   -0.51912  -0.51510  -0.51370  -0.50999  -0.50575
 Alpha  occ. eigenvalues --   -0.50365  -0.50116  -0.49974  -0.49497  -0.48335
 Alpha  occ. eigenvalues --   -0.47217  -0.46906  -0.46619  -0.46319  -0.46211
 Alpha  occ. eigenvalues --   -0.45762  -0.45236  -0.44797  -0.44044  -0.43932
 Alpha  occ. eigenvalues --   -0.43328  -0.43016  -0.42141  -0.41766  -0.41439
 Alpha  occ. eigenvalues --   -0.40964  -0.40777  -0.39912  -0.38187  -0.37592
 Alpha  occ. eigenvalues --   -0.35821  -0.35293  -0.34001  -0.33446  -0.33373
 Alpha  occ. eigenvalues --   -0.32818  -0.31904  -0.30772  -0.29115  -0.27079
 Alpha  occ. eigenvalues --   -0.24996
 Alpha virt. eigenvalues --   -0.00292   0.02872   0.03585   0.04480   0.06433
 Alpha virt. eigenvalues --    0.07258   0.08204   0.10371   0.13887   0.14815
 Alpha virt. eigenvalues --    0.15728   0.16386   0.17252   0.17441   0.18251
 Alpha virt. eigenvalues --    0.19198   0.19759   0.20074   0.20198   0.20629
 Alpha virt. eigenvalues --    0.21234   0.21900   0.22614   0.22767   0.23135
 Alpha virt. eigenvalues --    0.23343   0.23537   0.24192   0.24362   0.24839
 Alpha virt. eigenvalues --    0.25118   0.25125   0.26082   0.26488   0.26551
 Alpha virt. eigenvalues --    0.27065   0.27431   0.27680   0.27996   0.28429
 Alpha virt. eigenvalues --    0.28563   0.28864   0.29436   0.29708   0.30282
 Alpha virt. eigenvalues --    0.31014   0.31165   0.31764   0.32125   0.32246
 Alpha virt. eigenvalues --    0.32892   0.33214   0.33675   0.33954   0.34428
 Alpha virt. eigenvalues --    0.35001   0.36036   0.36538   0.37755   0.38123
 Alpha virt. eigenvalues --    0.38651   0.38809   0.39299   0.40138   0.40740
 Alpha virt. eigenvalues --    0.41234   0.41464   0.42064   0.42207   0.42713
 Alpha virt. eigenvalues --    0.43814   0.45043   0.46208   0.47058   0.47330
 Alpha virt. eigenvalues --    0.48355   0.49428   0.51937   0.53014   0.54230
 Alpha virt. eigenvalues --    0.55739   0.56536   0.57256   0.57911   0.58309
 Alpha virt. eigenvalues --    0.59048   0.59371   0.59611   0.60510   0.60897
 Alpha virt. eigenvalues --    0.61370   0.61486   0.61681   0.62222   0.62698
 Alpha virt. eigenvalues --    0.63200   0.63355   0.63864   0.64090   0.64889
 Alpha virt. eigenvalues --    0.64932   0.65336   0.65507   0.65529   0.65821
 Alpha virt. eigenvalues --    0.66021   0.66272   0.66897   0.66982   0.67472
 Alpha virt. eigenvalues --    0.67616   0.67787   0.68308   0.68614   0.69045
 Alpha virt. eigenvalues --    0.69766   0.70018   0.70550   0.71042   0.71240
 Alpha virt. eigenvalues --    0.71763   0.72092   0.72268   0.72585   0.73055
 Alpha virt. eigenvalues --    0.73334   0.73461   0.74254   0.75226   0.75349
 Alpha virt. eigenvalues --    0.75595   0.75945   0.76255   0.76931   0.77677
 Alpha virt. eigenvalues --    0.77802   0.79112   0.80382   0.80454   0.81763
 Alpha virt. eigenvalues --    0.81970   0.82304   0.83131   0.83261   0.84195
 Alpha virt. eigenvalues --    0.84655   0.85716   0.86629   0.86887   0.87423
 Alpha virt. eigenvalues --    0.88279   0.89047   0.89674   0.90199   0.90738
 Alpha virt. eigenvalues --    0.90924   0.91157   0.91468   0.92209   0.92296
 Alpha virt. eigenvalues --    0.92393   0.92543   0.93563   0.93885   0.94046
 Alpha virt. eigenvalues --    0.94341   0.94529   0.94676   0.95250   0.95603
 Alpha virt. eigenvalues --    0.95949   0.96541   0.97598   0.98198   0.98359
 Alpha virt. eigenvalues --    0.98516   0.99007   0.99058   0.99700   0.99825
 Alpha virt. eigenvalues --    1.00450   1.00623   1.01371   1.01925   1.02022
 Alpha virt. eigenvalues --    1.02501   1.02651   1.03217   1.03674   1.04408
 Alpha virt. eigenvalues --    1.05621   1.05881   1.06645   1.06768   1.07379
 Alpha virt. eigenvalues --    1.07618   1.08219   1.08750   1.08901   1.09056
 Alpha virt. eigenvalues --    1.10207   1.10700   1.11026   1.11715   1.12088
 Alpha virt. eigenvalues --    1.12634   1.13093   1.13792   1.14265   1.15633
 Alpha virt. eigenvalues --    1.16460   1.16986   1.17693   1.18301   1.19272
 Alpha virt. eigenvalues --    1.20080   1.21180   1.21738   1.23134   1.23418
 Alpha virt. eigenvalues --    1.24743   1.25515   1.26099   1.26962   1.27424
 Alpha virt. eigenvalues --    1.29019   1.29353   1.29703   1.30409   1.30873
 Alpha virt. eigenvalues --    1.31926   1.33068   1.33761   1.33900   1.34765
 Alpha virt. eigenvalues --    1.35491   1.36942   1.37300   1.37889   1.38645
 Alpha virt. eigenvalues --    1.39297   1.42346   1.43368   1.43714   1.44584
 Alpha virt. eigenvalues --    1.46486   1.47299   1.47753   1.48441   1.48545
 Alpha virt. eigenvalues --    1.48648   1.49179   1.49465   1.50258   1.51636
 Alpha virt. eigenvalues --    1.51970   1.52736   1.53658   1.54081   1.54529
 Alpha virt. eigenvalues --    1.55183   1.55560   1.56282   1.56870   1.56982
 Alpha virt. eigenvalues --    1.57523   1.57806   1.58456   1.59180   1.59303
 Alpha virt. eigenvalues --    1.59660   1.60103   1.60820   1.61985   1.62520
 Alpha virt. eigenvalues --    1.63914   1.64941   1.65122   1.65691   1.67669
 Alpha virt. eigenvalues --    1.68408   1.69749   1.72014   1.75168   1.76228
 Alpha virt. eigenvalues --    1.78748   1.80597   1.81507   1.82526   1.84277
 Alpha virt. eigenvalues --    1.84719   1.85643   1.86429   1.86958   1.87887
 Alpha virt. eigenvalues --    1.87957   1.88948   1.89940   1.90638   1.90825
 Alpha virt. eigenvalues --    1.91214   1.92461   1.92803   1.93434   1.94263
 Alpha virt. eigenvalues --    1.94426   1.94935   1.95569   1.96613   1.97941
 Alpha virt. eigenvalues --    1.98716   1.99604   2.00121   2.00240   2.01197
 Alpha virt. eigenvalues --    2.01310   2.01499   2.01783   2.02573   2.03679
 Alpha virt. eigenvalues --    2.05537   2.06500   2.06638   2.07326   2.08211
 Alpha virt. eigenvalues --    2.08612   2.08850   2.09736   2.10837   2.11394
 Alpha virt. eigenvalues --    2.12240   2.12580   2.13555   2.14167   2.14816
 Alpha virt. eigenvalues --    2.15877   2.16188   2.17688   2.19548   2.20432
 Alpha virt. eigenvalues --    2.21104   2.21284   2.21687   2.22413   2.22784
 Alpha virt. eigenvalues --    2.22976   2.23632   2.23942   2.24603   2.25134
 Alpha virt. eigenvalues --    2.25944   2.26147   2.26368   2.26887   2.28050
 Alpha virt. eigenvalues --    2.28543   2.29387   2.29951   2.31588   2.32594
 Alpha virt. eigenvalues --    2.34097   2.34929   2.36376   2.37133   2.37171
 Alpha virt. eigenvalues --    2.37913   2.38058   2.38212   2.39475   2.39887
 Alpha virt. eigenvalues --    2.40251   2.40812   2.42122   2.42801   2.43234
 Alpha virt. eigenvalues --    2.43389   2.44333   2.44771   2.44889   2.46220
 Alpha virt. eigenvalues --    2.46451   2.47886   2.48104   2.49417   2.49811
 Alpha virt. eigenvalues --    2.50303   2.50932   2.52052   2.53872   2.56003
 Alpha virt. eigenvalues --    2.58456   2.59876   2.60856   2.62125   2.63397
 Alpha virt. eigenvalues --    2.64709   2.65081   2.65953   2.66089   2.67626
 Alpha virt. eigenvalues --    2.68705   2.70008   2.71801   2.72056   2.72665
 Alpha virt. eigenvalues --    2.74011   2.74385   2.75463   2.76174   2.76866
 Alpha virt. eigenvalues --    2.77167   2.78479   2.78950   2.80938   2.81729
 Alpha virt. eigenvalues --    2.82745   2.83152   2.83723   2.84482   2.85525
 Alpha virt. eigenvalues --    2.86030   2.86479   2.87315   2.88411   2.89256
 Alpha virt. eigenvalues --    2.89962   2.91945   2.92699   2.93388   2.94567
 Alpha virt. eigenvalues --    2.94833   2.96132   2.97874   3.01370   3.02993
 Alpha virt. eigenvalues --    3.04141   3.06694   3.09290   3.10084   3.12016
 Alpha virt. eigenvalues --    3.18948   3.26900   3.29152   3.39174   3.41513
 Alpha virt. eigenvalues --    3.45039   3.53456   3.56407   3.57588   4.12658
 Alpha virt. eigenvalues --    4.13540   4.15201   4.16851   4.18259   4.19133
 Alpha virt. eigenvalues --    4.19562   4.20448   4.21989   4.23544   4.25286
 Alpha virt. eigenvalues --    4.26035   4.27472   4.28696   4.30761   4.31719
 Alpha virt. eigenvalues --    4.33381   4.34587   4.36933   4.40131   4.40369
 Alpha virt. eigenvalues --    4.41611   4.44510   4.46129   4.49147   4.49439
 Alpha virt. eigenvalues --    4.49747   4.52847   4.57341   4.60738   4.61923
 Alpha virt. eigenvalues --    4.64160   4.67477   4.69410   4.79023   4.85075
 Alpha virt. eigenvalues --    4.89518
          Condensed to atoms (all electrons):
 Mulliken atomic charges:
              1
     1  C   -0.197840
     2  C   -0.154400
     3  C    0.035504
     4  C    0.009583
     5  N   -0.437528
     6  C    0.035730
     7  C    0.295156
     8  C   -0.254769
     9  C    0.049018
    10  N   -0.493038
    11  C    0.714365
    12  N   -0.568397
    13  N   -0.802064
    14  C    0.291482
    15  C    0.119860
    16  C   -0.240381
    17  C   -0.191300
    18  C    0.358145
    19  C   -0.269684
    20  N   -0.757971
    21  C    0.585755
    22  C    0.015196
    23  C   -0.205364
    24  C   -0.217907
    25  C    0.155965
    26  C   -0.223074
    27  C   -0.178383
    28  C   -0.263557
    29  N   -0.382219
    30  C   -0.183900
    31  C   -0.181774
    32  N   -0.385713
    33  C   -0.349276
    34  C   -0.182632
    35  C   -0.186514
    36  O   -0.513293
    37  C   -0.607365
    38  H    0.186140
    39  H    0.186725
    40  H    0.198125
    41  H    0.179047
    42  H    0.180746
    43  H    0.189490
    44  H    0.369212
    45  H    0.160821
    46  H    0.213087
    47  H    0.199358
    48  H    0.361558
    49  H    0.185462
    50  H    0.172058
    51  H    0.163617
    52  H    0.195613
    53  H    0.170280
    54  H    0.168917
    55  H    0.148155
    56  H    0.158353
    57  H    0.141663
    58  H    0.174888
    59  H    0.135268
    60  H    0.164120
    61  H    0.167874
    62  H    0.153492
    63  H    0.172916
    64  H    0.159407
    65  H    0.154995
    66  H    0.178032
    67  H    0.182751
    68  H    0.190418
 Sum of Mulliken atomic charges =   0.00000
 Mulliken charges with hydrogens summed into heavy atoms:
              1
     1  C   -0.011699
     2  C    0.032325
     3  C    0.035504
     4  C    0.207707
     5  N   -0.437528
     6  C    0.214776
     7  C    0.295156
     8  C   -0.074023
     9  C    0.238507
    10  N   -0.493038
    11  C    0.714365
    12  N   -0.568397
    13  N   -0.432853
    14  C    0.291482
    15  C    0.119860
    16  C   -0.079560
    17  C    0.021787
    18  C    0.358145
    19  C   -0.070326
    20  N   -0.396414
    21  C    0.585755
    22  C    0.015196
    23  C   -0.019901
    24  C   -0.045849
    25  C    0.155965
    26  C   -0.059457
    27  C    0.017230
    28  C    0.075640
    29  N   -0.382219
    30  C    0.122608
    31  C    0.134777
    32  N   -0.385713
    33  C    0.117986
    34  C    0.143776
    35  C    0.127888
    36  O   -0.513293
    37  C   -0.056165
 Sum of Mulliken charges with hydrogens summed into heavy atoms =   0.00000
 Electronic spatial extent (au):  <R**2>=          21212.4767
 Charge=              0.0000 electrons
 Dipole moment (field-independent basis, Debye):
    X=              0.5802    Y=              6.5719    Z=              0.4335  Tot=              6.6117
 Quadrupole moment (field-independent basis, Debye-Ang):
   XX=           -193.2967   YY=           -202.5053   ZZ=           -220.4854
   XY=              3.1065   XZ=             -1.2803   YZ=             -5.2179
 Traceless Quadrupole moment (field-independent basis, Debye-Ang):
   XX=             12.1324   YY=              2.9238   ZZ=            -15.0562
   XY=              3.1065   XZ=             -1.2803   YZ=             -5.2179
 Octapole moment (field-independent basis, Debye-Ang**2):
  XXX=             80.0218  YYY=            204.3879  ZZZ=             11.3500  XYY=             33.4312
  XXY=            -43.1176  XXZ=             31.6532  XZZ=            -22.7149  YZZ=              1.3384
  YYZ=             17.7399  XYZ=              2.2779
 Hexadecapole moment (field-independent basis, Debye-Ang**3):
 XXXX=         -18570.8651 YYYY=          -7865.2323 ZZZZ=          -1607.5607 XXXY=            -50.9277
 XXXZ=           -102.8925 YYYX=            149.1285 YYYZ=            -76.2089 ZZZX=            -50.0281
 ZZZY=             15.0283 XXYY=          -4005.5120 XXZZ=          -3409.3058 YYZZ=          -1721.4920
 XXYZ=            -52.7617 YYXZ=            -15.9053 ZZXY=            -24.6007
 N-N= 3.895059363485D+03 E-N=-1.146171421887D+04  KE= 1.567155693288D+03
 No NMR shielding tensors so no spin-rotation constants.
 Leave Link  601 at Tue Mar  3 12:09:33 2020, MaxMem= 2684354560 cpu:       3.1
 (Enter /opt/g09gh/gaussian/g09/l9999.exe)
 1\1\GINC-NODE43\FOpt\RwB97XD\6-31G(d)\C29H31N7O1\BDW2292\03-Mar-2020\0
 \\#P opt=(,maxcycle=400) wB97XD/6-31G* MaxDisk=100GB\\MOLECULE0 Rotata
 ble Bond Optimization on node37.bme.utexas.edu\\0,1\C,0.4058463873,3.4
 970026171,-2.8189829712\C,1.749161766,3.4251902201,-2.4705304752\C,2.3
 324698762,2.1738572042,-2.2788902582\C,1.518037842,1.0482669073,-2.461
 3812528\N,0.2290757892,1.1018396364,-2.7922982937\C,-0.3096108932,2.31
 30555827,-2.9612684689\C,3.7452909422,1.9957611713,-1.8581408716\C,4.7
 499072236,2.9301590971,-2.0929407148\C,6.0151460832,2.6043018523,-1.60
 5666051\N,6.2904397855,1.4792098897,-0.9602078366\C,5.2501941081,0.636
 0100621,-0.800402856\N,4.0027271883,0.8534165436,-1.2165972611\N,5.552
 1379958,-0.5269028125,-0.1460147628\C,4.7490249384,-1.6501342918,0.126
 6600477\C,5.3836011401,-2.8531853144,0.4973224242\C,4.5767322168,-3.96
 13041806,0.741032961\C,3.1884372792,-3.9404391543,0.6200634526\C,2.586
 2913352,-2.7397289495,0.2564448729\C,3.3630629807,-1.601781447,0.04073
 11188\N,1.2092027697,-2.5605058185,0.0451827924\C,0.1961303687,-3.4831
 005615,-0.009508513\C,-1.0828481932,-2.8954574035,-0.5359104407\C,-1.0
 845355094,-1.9167205079,-1.5342041569\C,-2.2783865837,-1.3593869605,-1
 .9676762525\C,-3.4940263184,-1.7445394186,-1.4025098127\C,-3.488838575
 1,-2.7634481854,-0.4457511813\C,-2.2988122013,-3.341578089,-0.01947619
 56\C,-4.7805457593,-1.0258498388,-1.7750734009\N,-5.0766215085,0.21608
 2534,-1.0770853103\C,-4.3173524839,1.4075729859,-1.4414849959\C,-3.083
 2241589,1.6696691827,-0.5590630738\N,-3.3828203039,1.6357358604,0.8697
 464858\C,-4.0838994388,2.8129077861,1.3507027488\C,-4.0460823919,0.377
 5399866,1.2045012892\C,-5.3051502087,0.1189610807,0.360354002\O,0.3003
 678897,-4.646168199,0.3421539632\C,6.883914072,-2.9442108199,0.6143445
 989\H,-0.0824503534,4.454392164,-2.9656829925\H,2.3250526485,4.3341469
 261,-2.3221276648\H,1.9483718053,0.058052282,-2.3350739354\H,-1.366250
 2621,2.3345310262,-3.2193234667\H,4.5799357587,3.8517702133,-2.6356010
 252\H,6.8507691606,3.2867227183,-1.747735009\H,6.5313923513,-0.5919789
 651,0.0885852226\H,5.0557406663,-4.8943232854,1.0271794776\H,2.5907778
 287,-4.8246428927,0.79427206\H,2.8869818143,-0.6720511653,-0.231530951
 8\H,0.9417709838,-1.6112790535,-0.1696291344\H,-0.1609685012,-1.589084
 9685,-2.0025443856\H,-2.2489738719,-0.5969131237,-2.7418710373\H,-4.43
 12846287,-3.0976556961,-0.0174489174\H,-2.2943209303,-4.1300095548,0.7
 265855461\H,-4.7700859627,-0.801036151,-2.8484715668\H,-5.6266318291,-
 1.7037559039,-1.6041435552\H,-4.0217170846,1.3278496909,-2.4944811371\
 H,-4.9950142964,2.2716856496,-1.3693173618\H,-2.6506279614,2.648177068
 5,-0.8039407173\H,-2.3135956312,0.9151468366,-0.7560339576\H,-5.084337
 9572,2.9827050536,0.9150238276\H,-3.4771937259,3.7012332264,1.14268592
 14\H,-4.2048367651,2.736559906,2.4367986863\H,-4.303698542,0.387713150
 7,2.2705612436\H,-3.3236862477,-0.4320383817,1.047963536\H,-6.08035565
 14,0.8502413929,0.6337014417\H,-5.7151502591,-0.8718086514,0.586192055
 1\H,7.2819399819,-2.2771855492,1.3912970288\H,7.3840071577,-2.69024550
 73,-0.3293260864\H,7.1881948542,-3.9599187032,0.8792635056\\Version=EM
 64L-G09RevA.02\State=1-A\HF=-1581.7632161\RMSD=4.830e-09\RMSF=4.663e-0
 6\Dipole=0.4172219,2.4806584,-0.6623524\Quadrupole=9.2409277,-1.750264
 8,-7.490663,1.0594711,-2.1898975,-6.98454\PG=C01 [X(C29H31N7O1)]\\@


 A MAN SHOULD NEVER BE ASHAMED TO OWN HE HAS BEEN IN THE WRONG
 WHICH IS BUT SAYING IN OTHER WORDS,
 THAT HE IS WISER TODAY THAN HE WAS YESTERDAY.

                          -- JONATHAN SWIFT
 Job cpu time:  0 days 11 hours 11 minutes 57.6 seconds.
 File lengths (MBytes):  RWF=    244 Int=      0 D2E=      0 Chk=     25 Scr=      1
 Normal termination of Gaussian 09 at Tue Mar  3 12:09:33 2020.
