68
MOLECULE0-opt-15-14-13-11-191.log	Energy: -992571.9110855
C          0.60522        4.16788       -0.06472
C         -0.77351        4.15636        0.10532
C         -1.47649        2.98191       -0.16065
C         -0.73654        1.87390       -0.59729
N          0.58479        1.86804       -0.75271
C          1.24222        3.00329       -0.48615
C         -2.94083        2.84667        0.03016
C         -3.83060        3.91804        0.08635
C         -5.16925        3.59451        0.29682
N         -5.62102        2.35185        0.42053
C         -4.68094        1.39195        0.32564
N         -3.37661        1.59097        0.15490
N         -5.14922        0.10770        0.42014
C         -4.45979       -1.10106        0.20366
C         -5.19232       -2.22408       -0.22679
C         -4.48936       -3.40236       -0.46220
C         -3.10938       -3.51062       -0.31149
C         -2.40636       -2.38979        0.12498
C         -3.08779       -1.20709        0.41060
N         -1.01063       -2.34953        0.31379
C         -0.06362       -3.22563       -0.15333
C          1.34920       -2.80257        0.13642
C          1.70996       -2.09340        1.28523
C          3.03754       -1.75006        1.50798
C          4.03063       -2.08532        0.58593
C          3.66120       -2.80493       -0.55272
C          2.33934       -3.16933       -0.77402
C          5.48342       -1.69746        0.81978
N          5.91147       -0.36514        0.43445
C          5.56219        0.75187        1.30146
C          4.31058        1.52391        0.85460
N          4.36545        1.92299       -0.55042
C          5.28620        3.01484       -0.81998
C          4.58435        0.73940       -1.38205
C          5.85103       -0.03452       -0.98379
O         -0.31719       -4.25084       -0.76344
C         -6.68225       -2.15063       -0.44388
H          1.18319        5.06317        0.14019
H         -1.28824        5.04321        0.46476
H         -1.25787        0.95055       -0.83561
H          2.32395        2.94986       -0.61269
H         -3.51835        4.94747       -0.03809
H         -5.92014        4.37933        0.36299
H         -6.15533        0.06462        0.48125
H         -5.04195       -4.27535       -0.80025
H         -2.58998       -4.42977       -0.54176
H         -2.54194       -0.34191        0.75798
H         -0.65796       -1.45677        0.62795
H          0.96402       -1.84605        2.03603
H          3.30830       -1.22548        2.42158
H          4.42417       -3.09724       -1.27059
H          2.05662       -3.74701       -1.64806
H          5.71505       -1.81787        1.88495
H          6.11934       -2.41198        0.28112
H          5.43209        0.37945        2.32365
H          6.41582        1.44640        1.32670
H          4.18020        2.42119        1.47256
H          3.41637        0.90164        0.97912
H          6.34825        2.80460       -0.60951
H          4.99471        3.88337       -0.21822
H          5.20476        3.29398       -1.87594
H          4.64613        1.05132       -2.43136
H          3.70151        0.09764       -1.27805
H          6.73665        0.56772       -1.23713
H          5.92463       -0.95970       -1.56546
H         -6.95082       -1.36996       -1.16664
H         -7.22691       -1.94271        0.48733
H         -7.06258       -3.09937       -0.83110
