68
MOLECULE0-opt-22-21-20-18-084.log	Energy: -992569.9519947
C          7.44708        1.88227        0.72352
C          6.88610        0.63169        0.94334
C          5.74835        0.26401        0.22505
C          5.23132        1.19179       -0.68693
N          5.76049        2.39294       -0.91005
C          6.84866        2.72307       -0.20984
C          5.08829       -1.05084        0.40258
C          5.77531       -2.18263        0.83619
C          5.02650       -3.34925        0.95971
N          3.73317       -3.42060        0.67922
C          3.16902       -2.27274        0.25088
N          3.78362       -1.09828        0.10848
N          1.84010       -2.39328       -0.05021
C          0.90771       -1.46663       -0.54272
C         -0.31753       -1.97872       -1.01717
C         -1.25623       -1.08446       -1.52209
C         -1.02256        0.28325       -1.55436
C          0.15911        0.78280       -1.01521
C          1.12794       -0.08671       -0.52044
N          0.39105        2.18131       -0.93111
C         -0.51513        3.15801       -0.58310
C         -1.74473        2.69812        0.14400
C         -1.68295        1.77663        1.19112
C         -2.85049        1.32082        1.78455
C         -4.10088        1.74245        1.32594
C         -4.14861        2.71553        0.32668
C         -2.98115        3.20190       -0.25263
C         -5.37511        1.10497        1.85529
N         -5.80421       -0.14007        1.23602
C         -5.07930       -1.36113        1.56674
C         -3.97223       -1.73051        0.56359
N         -4.43729       -1.74318       -0.82302
C         -5.26001       -2.89293       -1.15921
C         -5.05904       -0.45726       -1.13825
C         -6.19226       -0.08467       -0.16748
O         -0.31427        4.33192       -0.84286
C         -0.62600       -3.45442       -0.98321
H          8.32636        2.20610        1.27011
H          7.31416       -0.03877        1.68311
H          4.34826        0.93253       -1.26533
H          7.25973        3.71123       -0.40361
H          6.83803       -2.17447        1.04336
H          5.49277       -4.27294        1.29665
H          1.51902       -3.34338        0.06058
H         -2.21346       -1.46740       -1.86780
H         -1.76772        0.95704       -1.96190
H          2.04251        0.30696       -0.09999
H          1.25176        2.54707       -1.31789
H         -0.72152        1.39878        1.52521
H         -2.79348        0.59752        2.59483
H         -5.11253        3.08672       -0.01447
H         -3.01869        3.95461       -1.03399
H         -5.26366        0.91053        2.92882
H         -6.19931        1.82208        1.75005
H         -4.65618       -1.26110        2.57250
H         -5.80842       -2.18433        1.61211
H         -3.55908       -2.71766        0.80553
H         -3.15191       -1.00680        0.62443
H         -6.21482       -2.96853       -0.61163
H         -4.69178       -3.80866       -0.96168
H         -5.49161       -2.86488       -2.22949
H         -5.43997       -0.49174       -2.16615
H         -4.27387        0.30733       -1.09754
H         -7.03491       -0.77631       -0.31746
H         -6.56669        0.91980       -0.39323
H         -0.61936       -3.85513        0.03989
H          0.08801       -4.04173       -1.57493
H         -1.62299       -3.63816       -1.39173
