 Entering Gaussian System, Link 0=g09
 Input=MOLECULE0-opt-22-21-20-18-220.com
 Output=MOLECULE0-opt-22-21-20-18-220.log
 Initial command:
 /opt/g09gh/gaussian/g09/l1.exe /scratch/bdw2292/Gau-MOLECULE0/Gau-66504.inp -scrdir=/scratch/bdw2292/Gau-MOLECULE0/
 Entering Link 1 = /opt/g09gh/gaussian/g09/l1.exe PID=     66505.
  
 Copyright (c) 1988,1990,1992,1993,1995,1998,2003,2009, Gaussian, Inc.
                  All Rights Reserved.
  
 This is part of the Gaussian(R) 09 program.  It is based on
 the Gaussian(R) 03 system (copyright 2003, Gaussian, Inc.),
 the Gaussian(R) 98 system (copyright 1998, Gaussian, Inc.),
 the Gaussian(R) 94 system (copyright 1995, Gaussian, Inc.),
 the Gaussian 92(TM) system (copyright 1992, Gaussian, Inc.),
 the Gaussian 90(TM) system (copyright 1990, Gaussian, Inc.),
 the Gaussian 88(TM) system (copyright 1988, Gaussian, Inc.),
 the Gaussian 86(TM) system (copyright 1986, Carnegie Mellon
 University), and the Gaussian 82(TM) system (copyright 1983,
 Carnegie Mellon University). Gaussian is a federally registered
 trademark of Gaussian, Inc.
  
 This software contains proprietary and confidential information,
 including trade secrets, belonging to Gaussian, Inc.
  
 This software is provided under written license and may be
 used, copied, transmitted, or stored only in accord with that
 written license.
  
 The following legend is applicable only to US Government
 contracts under FAR:
  
                    RESTRICTED RIGHTS LEGEND
  
 Use, reproduction and disclosure by the US Government is
 subject to restrictions as set forth in subparagraphs (a)
 and (c) of the Commercial Computer Software - Restricted
 Rights clause in FAR 52.227-19.
  
 Gaussian, Inc.
 340 Quinnipiac St., Bldg. 40, Wallingford CT 06492
  
  
 ---------------------------------------------------------------
 Warning -- This program may not be used in any manner that
 competes with the business of Gaussian, Inc. or will provide
 assistance to any competitor of Gaussian, Inc.  The licensee
 of this program is prohibited from giving any competitor of
 Gaussian, Inc. access to this program.  By using this program,
 the user acknowledges that Gaussian, Inc. is engaged in the
 business of creating and licensing software in the field of
 computational chemistry and represents and warrants to the
 licensee that it is not a competitor of Gaussian, Inc. and that
 it will not use this program in any manner prohibited above.
 ---------------------------------------------------------------
  

 Cite this work as:
 Gaussian 09, Revision A.02,
 M. J. Frisch, G. W. Trucks, H. B. Schlegel, G. E. Scuseria, 
 M. A. Robb, J. R. Cheeseman, G. Scalmani, V. Barone, B. Mennucci, 
 G. A. Petersson, H. Nakatsuji, M. Caricato, X. Li, H. P. Hratchian, 
 A. F. Izmaylov, J. Bloino, G. Zheng, J. L. Sonnenberg, M. Hada, 
 M. Ehara, K. Toyota, R. Fukuda, J. Hasegawa, M. Ishida, T. Nakajima, 
 Y. Honda, O. Kitao, H. Nakai, T. Vreven, J. A. Montgomery, Jr., 
 J. E. Peralta, F. Ogliaro, M. Bearpark, J. J. Heyd, E. Brothers, 
 K. N. Kudin, V. N. Staroverov, R. Kobayashi, J. Normand, 
 K. Raghavachari, A. Rendell, J. C. Burant, S. S. Iyengar, J. Tomasi, 
 M. Cossi, N. Rega, J. M. Millam, M. Klene, J. E. Knox, J. B. Cross, 
 V. Bakken, C. Adamo, J. Jaramillo, R. Gomperts, R. E. Stratmann, 
 O. Yazyev, A. J. Austin, R. Cammi, C. Pomelli, J. W. Ochterski, 
 R. L. Martin, K. Morokuma, V. G. Zakrzewski, G. A. Voth, 
 P. Salvador, J. J. Dannenberg, S. Dapprich, A. D. Daniels, 
 O. Farkas, J. B. Foresman, J. V. Ortiz, J. Cioslowski, 
 and D. J. Fox, Gaussian, Inc., Wallingford CT, 2009.
 
 ******************************************
 Gaussian 09:  EM64L-G09RevA.02 11-Jun-2009
                 4-Mar-2020 
 ******************************************
 %RWF=/scratch/bdw2292/Gau-MOLECULE0/,100GB
 %Nosave
 %Chk=MOLECULE0-opt-22-21-20-18-220.chk
 %Mem=20GB
 %Nproc=6
 Will use up to    6 processors via shared memory.
 --------------------------------------------------
 #P opt=(,maxcycle=400) wB97XD/6-31G* MaxDisk=100GB
 --------------------------------------------------
 1/6=400,14=-1,18=20,19=15,26=3,38=1/1,3;
 2/9=110,12=2,17=6,18=5,40=1/2;
 3/5=1,6=6,7=1,11=2,16=1,25=1,30=1,71=1,74=-58/1,2,3;
 4//1;
 5/5=2,38=5/2;
 6/7=2,8=2,9=2,10=2,28=1/1;
 7//1,2,3,16;
 1/6=400,14=-1,18=20,19=15/3(2);
 2/9=110/2;
 99//99;
 2/9=110/2;
 3/5=1,6=6,7=1,11=2,16=1,25=1,30=1,71=1,74=-58/1,2,3;
 4/5=5,16=3/1;
 5/5=2,38=5/2;
 7//1,2,3,16;
 1/6=400,14=-1,18=20,19=15/3(-5);
 2/9=110/2;
 6/7=2,8=2,9=2,10=2,19=2,28=1/1;
 99/9=1/99;
 Leave Link    1 at Wed Mar  4 06:32:57 2020, MaxMem= 2684354560 cpu:       0.5
 (Enter /opt/g09gh/gaussian/g09/l101.exe)
 --------------------------------------------------------------
 MOLECULE0 Rotatable Bond Optimization on node37.bme.utexas.edu
 --------------------------------------------------------------
 Symbolic Z-matrix:
 Charge =  0 Multiplicity = 1
 C                    -0.59965   4.25108   2.15121 
 C                     0.78015   4.27387   1.90308 
 C                     1.40663   3.15925   1.31107 
 C                     0.54715   2.08914   0.95996 
 N                    -0.77175   2.05036   1.1806 
 C                    -1.32755   3.11391   1.78126 
 C                     2.89389   3.06175   1.07478 
 C                     3.82951   4.08326   1.3029 
 C                     5.1636    3.754     1.03662 
 N                     5.57675   2.56015   0.61953 
 C                     4.61172   1.63237   0.4484 
 N                     3.3098    1.85387   0.64694 
 N                     5.04851   0.37896   0.04439 
 C                     4.36411  -0.84072  -0.31254 
 C                     5.06608  -1.8558   -1.03083 
 C                     4.35494  -3.02557  -1.34883 
 C                     3.0122   -3.23969  -1.0157 
 C                     2.33689  -2.23253  -0.31874 
 C                     3.02414  -1.05977   0.03041 
 N                     0.96037  -2.26582   0.06045 
 C                    -0.03304  -3.15182  -0.26996 
 C                    -1.40493  -2.57279  -0.55027 
 C                    -1.58805  -1.32956  -1.17858 
 C                    -2.87435  -0.85735  -1.45077 
 C                    -4.01765  -1.59378  -1.0888 
 C                    -3.81737  -2.81335  -0.41236 
 C                    -2.53563  -3.31355  -0.17269 
 C                    -5.42951  -1.07133  -1.36015 
 N                    -6.06477  -0.12018  -0.43273 
 C                    -5.62254   1.29205  -0.43171 
 C                    -4.59399   1.67073   0.66195 
 N                    -4.96783   1.27204   2.03611 
 C                    -5.9046    2.15191   2.74535 
 C                    -5.31421  -0.17141   2.02508 
 C                    -6.36075  -0.56316   0.94795 
 O                     0.15937  -4.35531  -0.32582 
 C                     6.5194   -1.7288   -1.45416 
 H                    -1.0984    5.08605   2.63455 
 H                     1.34526   5.14806   2.21671 
 H                     0.94815   1.21482   0.45953 
 H                    -2.39698   3.04713   1.97234 
 H                     3.57098   5.07611   1.64996 
 H                     5.94992   4.49545   1.17628 
 H                     6.04821   0.39758  -0.09168 
 H                     4.85978  -3.82247  -1.89372 
 H                     2.49779  -4.15312  -1.29116 
 H                     2.51132  -0.28666   0.57903 
 H                     0.63961  -1.47336   0.6009 
 H                    -0.71831  -0.75092  -1.47893 
 H                    -2.98341   0.10269  -1.9548 
 H                    -4.67354  -3.41097  -0.10007 
 H                    -2.39049  -4.27551   0.31225 
 H                    -5.43209  -0.59014  -2.34924 
 H                    -6.10265  -1.93907  -1.42229 
 H                    -5.31628   1.59003  -1.39389 
 H                    -6.91619   2.16108  -0.08295 
 H                    -4.41943   3.12345   0.617 
 H                    -3.35056   1.05458   0.36684 
 H                    -6.88578   2.15935   2.25701 
 H                    -5.51571   3.1763    2.7713 
 H                    -6.02856   1.81397   3.78063 
 H                    -5.60096  -0.47806   2.99613 
 H                    -4.01463  -0.93239   1.66754 
 H                    -7.68454   0.08822   1.36844 
 H                    -6.54041  -1.96552   0.97891 
 H                     7.18637  -1.67363  -0.58224 
 H                     6.68641  -0.82434  -2.05605 
 H                     6.86497  -2.57645  -2.06202 
 
 NAtoms=     68 NQM=     68 NQMF=      0 NMic=      0 NMicF=      0 NTot=     68.
                    Isotopes and Nuclear Properties:
 (Nuclear quadrupole moments (NQMom) in fm**2, nuclear magnetic moments (NMagM)
  in nuclear magnetons)

  Atom         1           2           3           4           5           6           7           8           9          10
 IAtWgt=          12          12          12          12          14          12          12          12          12          14
 AtmWgt=  12.0000000  12.0000000  12.0000000  12.0000000  14.0030740  12.0000000  12.0000000  12.0000000  12.0000000  14.0030740
 NucSpn=           0           0           0           0           2           0           0           0           0           2
 AtZEff=   0.0000000   0.0000000   0.0000000   0.0000000   0.0000000   0.0000000   0.0000000   0.0000000   0.0000000   0.0000000
 NQMom=    0.0000000   0.0000000   0.0000000   0.0000000   2.0440000   0.0000000   0.0000000   0.0000000   0.0000000   2.0440000
 NMagM=    0.0000000   0.0000000   0.0000000   0.0000000   0.4037610   0.0000000   0.0000000   0.0000000   0.0000000   0.4037610

  Atom        11          12          13          14          15          16          17          18          19          20
 IAtWgt=          12          14          14          12          12          12          12          12          12          14
 AtmWgt=  12.0000000  14.0030740  14.0030740  12.0000000  12.0000000  12.0000000  12.0000000  12.0000000  12.0000000  14.0030740
 NucSpn=           0           2           2           0           0           0           0           0           0           2
 AtZEff=   0.0000000   0.0000000   0.0000000   0.0000000   0.0000000   0.0000000   0.0000000   0.0000000   0.0000000   0.0000000
 NQMom=    0.0000000   2.0440000   2.0440000   0.0000000   0.0000000   0.0000000   0.0000000   0.0000000   0.0000000   2.0440000
 NMagM=    0.0000000   0.4037610   0.4037610   0.0000000   0.0000000   0.0000000   0.0000000   0.0000000   0.0000000   0.4037610

  Atom        21          22          23          24          25          26          27          28          29          30
 IAtWgt=          12          12          12          12          12          12          12          12          14          12
 AtmWgt=  12.0000000  12.0000000  12.0000000  12.0000000  12.0000000  12.0000000  12.0000000  12.0000000  14.0030740  12.0000000
 NucSpn=           0           0           0           0           0           0           0           0           2           0
 AtZEff=   0.0000000   0.0000000   0.0000000   0.0000000   0.0000000   0.0000000   0.0000000   0.0000000   0.0000000   0.0000000
 NQMom=    0.0000000   0.0000000   0.0000000   0.0000000   0.0000000   0.0000000   0.0000000   0.0000000   2.0440000   0.0000000
 NMagM=    0.0000000   0.0000000   0.0000000   0.0000000   0.0000000   0.0000000   0.0000000   0.0000000   0.4037610   0.0000000

  Atom        31          32          33          34          35          36          37          38          39          40
 IAtWgt=          12          14          12          12          12          16          12           1           1           1
 AtmWgt=  12.0000000  14.0030740  12.0000000  12.0000000  12.0000000  15.9949146  12.0000000   1.0078250   1.0078250   1.0078250
 NucSpn=           0           2           0           0           0           0           0           1           1           1
 AtZEff=   0.0000000   0.0000000   0.0000000   0.0000000   0.0000000   0.0000000   0.0000000   0.0000000   0.0000000   0.0000000
 NQMom=    0.0000000   2.0440000   0.0000000   0.0000000   0.0000000   0.0000000   0.0000000   0.0000000   0.0000000   0.0000000
 NMagM=    0.0000000   0.4037610   0.0000000   0.0000000   0.0000000   0.0000000   0.0000000   2.7928460   2.7928460   2.7928460

  Atom        41          42          43          44          45          46          47          48          49          50
 IAtWgt=           1           1           1           1           1           1           1           1           1           1
 AtmWgt=   1.0078250   1.0078250   1.0078250   1.0078250   1.0078250   1.0078250   1.0078250   1.0078250   1.0078250   1.0078250
 NucSpn=           1           1           1           1           1           1           1           1           1           1
 AtZEff=   0.0000000   0.0000000   0.0000000   0.0000000   0.0000000   0.0000000   0.0000000   0.0000000   0.0000000   0.0000000
 NQMom=    0.0000000   0.0000000   0.0000000   0.0000000   0.0000000   0.0000000   0.0000000   0.0000000   0.0000000   0.0000000
 NMagM=    2.7928460   2.7928460   2.7928460   2.7928460   2.7928460   2.7928460   2.7928460   2.7928460   2.7928460   2.7928460

  Atom        51          52          53          54          55          56          57          58          59          60
 IAtWgt=           1           1           1           1           1           1           1           1           1           1
 AtmWgt=   1.0078250   1.0078250   1.0078250   1.0078250   1.0078250   1.0078250   1.0078250   1.0078250   1.0078250   1.0078250
 NucSpn=           1           1           1           1           1           1           1           1           1           1
 AtZEff=   0.0000000   0.0000000   0.0000000   0.0000000   0.0000000   0.0000000   0.0000000   0.0000000   0.0000000   0.0000000
 NQMom=    0.0000000   0.0000000   0.0000000   0.0000000   0.0000000   0.0000000   0.0000000   0.0000000   0.0000000   0.0000000
 NMagM=    2.7928460   2.7928460   2.7928460   2.7928460   2.7928460   2.7928460   2.7928460   2.7928460   2.7928460   2.7928460

  Atom        61          62          63          64          65          66          67          68
 IAtWgt=           1           1           1           1           1           1           1           1
 AtmWgt=   1.0078250   1.0078250   1.0078250   1.0078250   1.0078250   1.0078250   1.0078250   1.0078250
 NucSpn=           1           1           1           1           1           1           1           1
 AtZEff=   0.0000000   0.0000000   0.0000000   0.0000000   0.0000000   0.0000000   0.0000000   0.0000000
 NQMom=    0.0000000   0.0000000   0.0000000   0.0000000   0.0000000   0.0000000   0.0000000   0.0000000
 NMagM=    2.7928460   2.7928460   2.7928460   2.7928460   2.7928460   2.7928460   2.7928460   2.7928460
 Leave Link  101 at Wed Mar  4 06:32:57 2020, MaxMem= 2684354560 cpu:       0.8
 (Enter /opt/g09gh/gaussian/g09/l103.exe)

 GradGradGradGradGradGradGradGradGradGradGradGradGradGradGradGradGradGrad
 Berny optimization.
 Initialization pass.
                           ----------------------------
                           !    Initial Parameters    !
                           ! (Angstroms and Degrees)  !
 --------------------------                            --------------------------
 ! Name  Definition              Value          Derivative Info.                !
 --------------------------------------------------------------------------------
 ! R1    R(1,2)                  1.4021         estimate D2E/DX2                !
 ! R2    R(1,6)                  1.4            estimate D2E/DX2                !
 ! R3    R(1,38)                 1.0861         estimate D2E/DX2                !
 ! R4    R(2,3)                  1.409          estimate D2E/DX2                !
 ! R5    R(2,39)                 1.0872         estimate D2E/DX2                !
 ! R6    R(3,4)                  1.4167         estimate D2E/DX2                !
 ! R7    R(3,7)                  1.5091         estimate D2E/DX2                !
 ! R8    R(4,5)                  1.3378         estimate D2E/DX2                !
 ! R9    R(4,40)                 1.0843         estimate D2E/DX2                !
 ! R10   R(5,6)                  1.342          estimate D2E/DX2                !
 ! R11   R(6,41)                 1.0884         estimate D2E/DX2                !
 ! R12   R(7,8)                  1.4039         estimate D2E/DX2                !
 ! R13   R(7,12)                 1.3472         estimate D2E/DX2                !
 ! R14   R(8,9)                  1.3997         estimate D2E/DX2                !
 ! R15   R(8,42)                 1.0831         estimate D2E/DX2                !
 ! R16   R(9,10)                 1.3304         estimate D2E/DX2                !
 ! R17   R(9,43)                 1.0898         estimate D2E/DX2                !
 ! R18   R(10,11)                1.3496         estimate D2E/DX2                !
 ! R19   R(11,12)                1.3355         estimate D2E/DX2                !
 ! R20   R(11,13)                1.3875         estimate D2E/DX2                !
 ! R21   R(13,14)                1.4434         estimate D2E/DX2                !
 ! R22   R(13,44)                1.0091         estimate D2E/DX2                !
 ! R23   R(14,15)                1.428          estimate D2E/DX2                !
 ! R24   R(14,19)                1.4004         estimate D2E/DX2                !
 ! R25   R(15,16)                1.4054         estimate D2E/DX2                !
 ! R26   R(15,37)                1.519          estimate D2E/DX2                !
 ! R27   R(16,17)                1.3999         estimate D2E/DX2                !
 ! R28   R(16,45)                1.0894         estimate D2E/DX2                !
 ! R29   R(17,18)                1.3986         estimate D2E/DX2                !
 ! R30   R(17,46)                1.0839         estimate D2E/DX2                !
 ! R31   R(18,19)                1.4034         estimate D2E/DX2                !
 ! R32   R(18,20)                1.4282         estimate D2E/DX2                !
 ! R33   R(19,47)                1.0778         estimate D2E/DX2                !
 ! R34   R(20,21)                1.3715         estimate D2E/DX2                !
 ! R35   R(20,48)                1.0114         estimate D2E/DX2                !
 ! R36   R(21,22)                1.5152         estimate D2E/DX2                !
 ! R37   R(21,36)                1.2201         estimate D2E/DX2                !
 ! R38   R(22,23)                1.405          estimate D2E/DX2                !
 ! R39   R(22,27)                1.4035         estimate D2E/DX2                !
 ! R40   R(23,24)                1.397          estimate D2E/DX2                !
 ! R41   R(23,49)                1.087          estimate D2E/DX2                !
 ! R42   R(24,25)                1.4073         estimate D2E/DX2                !
 ! R43   R(24,50)                1.0898         estimate D2E/DX2                !
 ! R44   R(25,26)                1.4089         estimate D2E/DX2                !
 ! R45   R(25,28)                1.5297         estimate D2E/DX2                !
 ! R46   R(26,27)                1.3966         estimate D2E/DX2                !
 ! R47   R(26,51)                1.0898         estimate D2E/DX2                !
 ! R48   R(27,52)                1.087          estimate D2E/DX2                !
 ! R49   R(28,29)                1.4725         estimate D2E/DX2                !
 ! R50   R(28,53)                1.0999         estimate D2E/DX2                !
 ! R51   R(28,54)                1.1            estimate D2E/DX2                !
 ! R52   R(29,30)                1.4798         estimate D2E/DX2                !
 ! R53   R(29,35)                1.4799         estimate D2E/DX2                !
 ! R54   R(30,31)                1.5484         estimate D2E/DX2                !
 ! R55   R(30,55)                1.0528         estimate D2E/DX2                !
 ! R56   R(30,56)                1.597          estimate D2E/DX2                !
 ! R57   R(31,32)                1.4789         estimate D2E/DX2                !
 ! R58   R(31,57)                1.4639         estimate D2E/DX2                !
 ! R59   R(31,58)                1.4187         estimate D2E/DX2                !
 ! R60   R(32,33)                1.4679         estimate D2E/DX2                !
 ! R61   R(32,34)                1.4845         estimate D2E/DX2                !
 ! R62   R(33,59)                1.096          estimate D2E/DX2                !
 ! R63   R(33,60)                1.096          estimate D2E/DX2                !
 ! R64   R(33,61)                1.0961         estimate D2E/DX2                !
 ! R65   R(34,35)                1.5521         estimate D2E/DX2                !
 ! R66   R(34,62)                1.0579         estimate D2E/DX2                !
 ! R67   R(34,63)                1.5479         estimate D2E/DX2                !
 ! R68   R(35,64)                1.5341         estimate D2E/DX2                !
 ! R69   R(35,65)                1.4142         estimate D2E/DX2                !
 ! R70   R(37,66)                1.0992         estimate D2E/DX2                !
 ! R71   R(37,67)                1.0992         estimate D2E/DX2                !
 ! R72   R(37,68)                1.0988         estimate D2E/DX2                !
 ! A1    A(2,1,6)              118.5619         estimate D2E/DX2                !
 ! A2    A(2,1,38)             121.2102         estimate D2E/DX2                !
 ! A3    A(6,1,38)             120.22           estimate D2E/DX2                !
 ! A4    A(1,2,3)              119.9368         estimate D2E/DX2                !
 ! A5    A(1,2,39)             118.2648         estimate D2E/DX2                !
 ! A6    A(3,2,39)             121.748          estimate D2E/DX2                !
 ! A7    A(2,3,4)              115.5884         estimate D2E/DX2                !
 ! A8    A(2,3,7)              123.7173         estimate D2E/DX2                !
 ! A9    A(4,3,7)              120.6838         estimate D2E/DX2                !
 ! A10   A(3,4,5)              125.3894         estimate D2E/DX2                !
 ! A11   A(3,4,40)             119.9394         estimate D2E/DX2                !
 ! A12   A(5,4,40)             114.6674         estimate D2E/DX2                !
 ! A13   A(4,5,6)              117.3333         estimate D2E/DX2                !
 ! A14   A(1,6,5)              123.1413         estimate D2E/DX2                !
 ! A15   A(1,6,41)             120.9521         estimate D2E/DX2                !
 ! A16   A(5,6,41)             115.9066         estimate D2E/DX2                !
 ! A17   A(3,7,8)              125.7582         estimate D2E/DX2                !
 ! A18   A(3,7,12)             114.3247         estimate D2E/DX2                !
 ! A19   A(8,7,12)             119.8829         estimate D2E/DX2                !
 ! A20   A(7,8,9)              115.6667         estimate D2E/DX2                !
 ! A21   A(7,8,42)             124.0563         estimate D2E/DX2                !
 ! A22   A(9,8,42)             120.2728         estimate D2E/DX2                !
 ! A23   A(8,9,10)             124.523          estimate D2E/DX2                !
 ! A24   A(8,9,43)             120.2192         estimate D2E/DX2                !
 ! A25   A(10,9,43)            115.2556         estimate D2E/DX2                !
 ! A26   A(9,10,11)            115.7599         estimate D2E/DX2                !
 ! A27   A(10,11,12)           124.3489         estimate D2E/DX2                !
 ! A28   A(10,11,13)           115.6491         estimate D2E/DX2                !
 ! A29   A(12,11,13)           120.0015         estimate D2E/DX2                !
 ! A30   A(7,12,11)            119.7935         estimate D2E/DX2                !
 ! A31   A(11,13,14)           133.3217         estimate D2E/DX2                !
 ! A32   A(11,13,44)           109.541          estimate D2E/DX2                !
 ! A33   A(14,13,44)           116.8716         estimate D2E/DX2                !
 ! A34   A(13,14,15)           119.4701         estimate D2E/DX2                !
 ! A35   A(13,14,19)           121.6897         estimate D2E/DX2                !
 ! A36   A(15,14,19)           118.84           estimate D2E/DX2                !
 ! A37   A(14,15,16)           117.177          estimate D2E/DX2                !
 ! A38   A(14,15,37)           123.4403         estimate D2E/DX2                !
 ! A39   A(16,15,37)           119.3826         estimate D2E/DX2                !
 ! A40   A(15,16,17)           123.9723         estimate D2E/DX2                !
 ! A41   A(15,16,45)           119.1787         estimate D2E/DX2                !
 ! A42   A(17,16,45)           116.8474         estimate D2E/DX2                !
 ! A43   A(16,17,18)           118.1354         estimate D2E/DX2                !
 ! A44   A(16,17,46)           121.576          estimate D2E/DX2                !
 ! A45   A(18,17,46)           120.2871         estimate D2E/DX2                !
 ! A46   A(17,18,19)           119.2935         estimate D2E/DX2                !
 ! A47   A(17,18,20)           125.5135         estimate D2E/DX2                !
 ! A48   A(19,18,20)           115.1761         estimate D2E/DX2                !
 ! A49   A(14,19,18)           122.5714         estimate D2E/DX2                !
 ! A50   A(14,19,47)           117.8863         estimate D2E/DX2                !
 ! A51   A(18,19,47)           119.5414         estimate D2E/DX2                !
 ! A52   A(18,20,21)           130.4824         estimate D2E/DX2                !
 ! A53   A(18,20,48)           115.4217         estimate D2E/DX2                !
 ! A54   A(21,20,48)           113.902          estimate D2E/DX2                !
 ! A55   A(20,21,22)           116.9687         estimate D2E/DX2                !
 ! A56   A(20,21,36)           122.278          estimate D2E/DX2                !
 ! A57   A(22,21,36)           120.7488         estimate D2E/DX2                !
 ! A58   A(21,22,23)           122.6082         estimate D2E/DX2                !
 ! A59   A(21,22,27)           118.5525         estimate D2E/DX2                !
 ! A60   A(23,22,27)           118.8383         estimate D2E/DX2                !
 ! A61   A(22,23,24)           120.4145         estimate D2E/DX2                !
 ! A62   A(22,23,49)           119.3631         estimate D2E/DX2                !
 ! A63   A(24,23,49)           120.1964         estimate D2E/DX2                !
 ! A64   A(23,24,25)           121.4011         estimate D2E/DX2                !
 ! A65   A(23,24,50)           118.6874         estimate D2E/DX2                !
 ! A66   A(25,24,50)           119.9115         estimate D2E/DX2                !
 ! A67   A(24,25,26)           117.4498         estimate D2E/DX2                !
 ! A68   A(24,25,28)           121.7005         estimate D2E/DX2                !
 ! A69   A(26,25,28)           120.7981         estimate D2E/DX2                !
 ! A70   A(25,26,27)           121.5258         estimate D2E/DX2                !
 ! A71   A(25,26,51)           120.0377         estimate D2E/DX2                !
 ! A72   A(27,26,51)           118.3868         estimate D2E/DX2                !
 ! A73   A(22,27,26)           120.2768         estimate D2E/DX2                !
 ! A74   A(22,27,52)           118.6542         estimate D2E/DX2                !
 ! A75   A(26,27,52)           121.0681         estimate D2E/DX2                !
 ! A76   A(25,28,29)           120.4691         estimate D2E/DX2                !
 ! A77   A(25,28,53)           108.1253         estimate D2E/DX2                !
 ! A78   A(25,28,54)           107.7828         estimate D2E/DX2                !
 ! A79   A(29,28,53)           106.4245         estimate D2E/DX2                !
 ! A80   A(29,28,54)           106.3276         estimate D2E/DX2                !
 ! A81   A(53,28,54)           107.0299         estimate D2E/DX2                !
 ! A82   A(28,29,30)           119.2046         estimate D2E/DX2                !
 ! A83   A(28,29,35)           118.7191         estimate D2E/DX2                !
 ! A84   A(30,29,35)           110.1681         estimate D2E/DX2                !
 ! A85   A(29,30,31)           115.6193         estimate D2E/DX2                !
 ! A86   A(29,30,55)           110.8796         estimate D2E/DX2                !
 ! A87   A(29,30,56)           106.104          estimate D2E/DX2                !
 ! A88   A(31,30,55)           112.5243         estimate D2E/DX2                !
 ! A89   A(31,30,56)           104.523          estimate D2E/DX2                !
 ! A90   A(55,30,56)           106.3329         estimate D2E/DX2                !
 ! A91   A(30,31,32)           114.9909         estimate D2E/DX2                !
 ! A92   A(30,31,57)           107.4714         estimate D2E/DX2                !
 ! A93   A(30,31,58)           109.2123         estimate D2E/DX2                !
 ! A94   A(32,31,57)           109.0392         estimate D2E/DX2                !
 ! A95   A(32,31,58)           107.3226         estimate D2E/DX2                !
 ! A96   A(57,31,58)           108.6677         estimate D2E/DX2                !
 ! A97   A(31,32,33)           116.6597         estimate D2E/DX2                !
 ! A98   A(31,32,34)           108.3137         estimate D2E/DX2                !
 ! A99   A(33,32,34)           115.9461         estimate D2E/DX2                !
 ! A100  A(32,33,59)           111.1059         estimate D2E/DX2                !
 ! A101  A(32,33,60)           110.1957         estimate D2E/DX2                !
 ! A102  A(32,33,61)           110.1045         estimate D2E/DX2                !
 ! A103  A(59,33,60)           108.7748         estimate D2E/DX2                !
 ! A104  A(59,33,61)           108.7653         estimate D2E/DX2                !
 ! A105  A(60,33,61)           107.8147         estimate D2E/DX2                !
 ! A106  A(32,34,35)           114.0744         estimate D2E/DX2                !
 ! A107  A(32,34,62)           109.7718         estimate D2E/DX2                !
 ! A108  A(32,34,63)           106.4906         estimate D2E/DX2                !
 ! A109  A(35,34,62)           112.4009         estimate D2E/DX2                !
 ! A110  A(35,34,63)           106.3637         estimate D2E/DX2                !
 ! A111  A(62,34,63)           107.283          estimate D2E/DX2                !
 ! A112  A(29,35,34)           115.9163         estimate D2E/DX2                !
 ! A113  A(29,35,64)           107.5298         estimate D2E/DX2                !
 ! A114  A(29,35,65)           110.0394         estimate D2E/DX2                !
 ! A115  A(34,35,64)           106.5259         estimate D2E/DX2                !
 ! A116  A(34,35,65)           108.7095         estimate D2E/DX2                !
 ! A117  A(64,35,65)           107.7835         estimate D2E/DX2                !
 ! A118  A(15,37,66)           111.3262         estimate D2E/DX2                !
 ! A119  A(15,37,67)           111.5165         estimate D2E/DX2                !
 ! A120  A(15,37,68)           112.9887         estimate D2E/DX2                !
 ! A121  A(66,37,67)           107.5103         estimate D2E/DX2                !
 ! A122  A(66,37,68)           106.6613         estimate D2E/DX2                !
 ! A123  A(67,37,68)           106.5021         estimate D2E/DX2                !
 ! D1    D(6,1,2,3)             -0.9049         estimate D2E/DX2                !
 ! D2    D(6,1,2,39)          -178.3687         estimate D2E/DX2                !
 ! D3    D(38,1,2,3)           178.0782         estimate D2E/DX2                !
 ! D4    D(38,1,2,39)            0.6144         estimate D2E/DX2                !
 ! D5    D(2,1,6,5)             -1.0655         estimate D2E/DX2                !
 ! D6    D(2,1,6,41)           178.86           estimate D2E/DX2                !
 ! D7    D(38,1,6,5)           179.941          estimate D2E/DX2                !
 ! D8    D(38,1,6,41)           -0.1334         estimate D2E/DX2                !
 ! D9    D(1,2,3,4)              2.2669         estimate D2E/DX2                !
 ! D10   D(1,2,3,7)           -176.5559         estimate D2E/DX2                !
 ! D11   D(39,2,3,4)           179.64           estimate D2E/DX2                !
 ! D12   D(39,2,3,7)             0.8172         estimate D2E/DX2                !
 ! D13   D(2,3,4,5)             -1.9895         estimate D2E/DX2                !
 ! D14   D(2,3,4,40)           177.2689         estimate D2E/DX2                !
 ! D15   D(7,3,4,5)            176.8719         estimate D2E/DX2                !
 ! D16   D(7,3,4,40)            -3.8696         estimate D2E/DX2                !
 ! D17   D(2,3,7,8)             -5.4549         estimate D2E/DX2                !
 ! D18   D(2,3,7,12)           172.4007         estimate D2E/DX2                !
 ! D19   D(4,3,7,8)            175.7796         estimate D2E/DX2                !
 ! D20   D(4,3,7,12)            -6.3647         estimate D2E/DX2                !
 ! D21   D(3,4,5,6)              0.1636         estimate D2E/DX2                !
 ! D22   D(40,4,5,6)          -179.1293         estimate D2E/DX2                !
 ! D23   D(4,5,6,1)              1.4333         estimate D2E/DX2                !
 ! D24   D(4,5,6,41)          -178.4957         estimate D2E/DX2                !
 ! D25   D(3,7,8,9)            178.7316         estimate D2E/DX2                !
 ! D26   D(3,7,8,42)            -2.0089         estimate D2E/DX2                !
 ! D27   D(12,7,8,9)             0.9852         estimate D2E/DX2                !
 ! D28   D(12,7,8,42)         -179.7552         estimate D2E/DX2                !
 ! D29   D(3,7,12,11)         -177.6553         estimate D2E/DX2                !
 ! D30   D(8,7,12,11)            0.3378         estimate D2E/DX2                !
 ! D31   D(7,8,9,10)            -1.3348         estimate D2E/DX2                !
 ! D32   D(7,8,9,43)           179.2373         estimate D2E/DX2                !
 ! D33   D(42,8,9,10)          179.3755         estimate D2E/DX2                !
 ! D34   D(42,8,9,43)           -0.0524         estimate D2E/DX2                !
 ! D35   D(8,9,10,11)            0.2876         estimate D2E/DX2                !
 ! D36   D(43,9,10,11)         179.7409         estimate D2E/DX2                !
 ! D37   D(9,10,11,12)           1.2142         estimate D2E/DX2                !
 ! D38   D(9,10,11,13)        -178.51           estimate D2E/DX2                !
 ! D39   D(10,11,12,7)          -1.5429         estimate D2E/DX2                !
 ! D40   D(13,11,12,7)         178.17           estimate D2E/DX2                !
 ! D41   D(10,11,13,14)       -176.1371         estimate D2E/DX2                !
 ! D42   D(10,11,13,44)         -2.4316         estimate D2E/DX2                !
 ! D43   D(12,11,13,14)          4.1258         estimate D2E/DX2                !
 ! D44   D(12,11,13,44)        177.8313         estimate D2E/DX2                !
 ! D45   D(11,13,14,15)        163.0504         estimate D2E/DX2                !
 ! D46   D(11,13,14,19)        -17.111          estimate D2E/DX2                !
 ! D47   D(44,13,14,15)        -10.298          estimate D2E/DX2                !
 ! D48   D(44,13,14,19)        169.5406         estimate D2E/DX2                !
 ! D49   D(13,14,15,16)        179.755          estimate D2E/DX2                !
 ! D50   D(13,14,15,37)         -0.1044         estimate D2E/DX2                !
 ! D51   D(19,14,15,16)         -0.0883         estimate D2E/DX2                !
 ! D52   D(19,14,15,37)       -179.9476         estimate D2E/DX2                !
 ! D53   D(13,14,19,18)        179.3432         estimate D2E/DX2                !
 ! D54   D(13,14,19,47)         -0.2991         estimate D2E/DX2                !
 ! D55   D(15,14,19,18)         -0.8172         estimate D2E/DX2                !
 ! D56   D(15,14,19,47)        179.5405         estimate D2E/DX2                !
 ! D57   D(14,15,16,17)          0.6519         estimate D2E/DX2                !
 ! D58   D(14,15,16,45)       -179.8179         estimate D2E/DX2                !
 ! D59   D(37,15,16,17)       -179.4828         estimate D2E/DX2                !
 ! D60   D(37,15,16,45)          0.0474         estimate D2E/DX2                !
 ! D61   D(14,15,37,66)         64.3229         estimate D2E/DX2                !
 ! D62   D(14,15,37,67)        -55.7503         estimate D2E/DX2                !
 ! D63   D(14,15,37,68)       -175.679          estimate D2E/DX2                !
 ! D64   D(16,15,37,66)       -115.5335         estimate D2E/DX2                !
 ! D65   D(16,15,37,67)        124.3933         estimate D2E/DX2                !
 ! D66   D(16,15,37,68)          4.4646         estimate D2E/DX2                !
 ! D67   D(15,16,17,18)         -0.3074         estimate D2E/DX2                !
 ! D68   D(15,16,17,46)        179.2479         estimate D2E/DX2                !
 ! D69   D(45,16,17,18)       -179.8477         estimate D2E/DX2                !
 ! D70   D(45,16,17,46)         -0.2924         estimate D2E/DX2                !
 ! D71   D(16,17,18,19)         -0.5998         estimate D2E/DX2                !
 ! D72   D(16,17,18,20)        177.8313         estimate D2E/DX2                !
 ! D73   D(46,17,18,19)        179.839          estimate D2E/DX2                !
 ! D74   D(46,17,18,20)         -1.73           estimate D2E/DX2                !
 ! D75   D(17,18,19,14)          1.1774         estimate D2E/DX2                !
 ! D76   D(17,18,19,47)       -179.1859         estimate D2E/DX2                !
 ! D77   D(20,18,19,14)       -177.4115         estimate D2E/DX2                !
 ! D78   D(20,18,19,47)          2.2252         estimate D2E/DX2                !
 ! D79   D(17,18,20,21)         -8.2992         estimate D2E/DX2                !
 ! D80   D(17,18,20,48)        177.139          estimate D2E/DX2                !
 ! D81   D(19,18,20,21)        170.1889         estimate D2E/DX2                !
 ! D82   D(19,18,20,48)         -4.3729         estimate D2E/DX2                !
 ! D83   D(18,20,21,22)       -140.119          estimate D2E/DX2                !
 ! D84   D(18,20,21,36)         40.6534         estimate D2E/DX2                !
 ! D85   D(48,20,21,22)         34.5088         estimate D2E/DX2                !
 ! D86   D(48,20,21,36)       -144.7187         estimate D2E/DX2                !
 ! D87   D(20,21,22,23)         35.1486         estimate D2E/DX2                !
 ! D88   D(20,21,22,27)       -145.2113         estimate D2E/DX2                !
 ! D89   D(36,21,22,23)       -145.6113         estimate D2E/DX2                !
 ! D90   D(36,21,22,27)         34.0288         estimate D2E/DX2                !
 ! D91   D(21,22,23,24)        178.0824         estimate D2E/DX2                !
 ! D92   D(21,22,23,49)         -0.0674         estimate D2E/DX2                !
 ! D93   D(27,22,23,24)         -1.5567         estimate D2E/DX2                !
 ! D94   D(27,22,23,49)       -179.7065         estimate D2E/DX2                !
 ! D95   D(21,22,27,26)        179.9216         estimate D2E/DX2                !
 ! D96   D(21,22,27,52)          0.2808         estimate D2E/DX2                !
 ! D97   D(23,22,27,26)         -0.4245         estimate D2E/DX2                !
 ! D98   D(23,22,27,52)        179.9347         estimate D2E/DX2                !
 ! D99   D(22,23,24,25)          1.0353         estimate D2E/DX2                !
 ! D100  D(22,23,24,50)       -178.9436         estimate D2E/DX2                !
 ! D101  D(49,23,24,25)        179.1697         estimate D2E/DX2                !
 ! D102  D(49,23,24,50)         -0.8092         estimate D2E/DX2                !
 ! D103  D(23,24,25,26)          1.4396         estimate D2E/DX2                !
 ! D104  D(23,24,25,28)        178.8458         estimate D2E/DX2                !
 ! D105  D(50,24,25,26)       -178.5818         estimate D2E/DX2                !
 ! D106  D(50,24,25,28)         -1.1756         estimate D2E/DX2                !
 ! D107  D(24,25,26,27)         -3.456          estimate D2E/DX2                !
 ! D108  D(24,25,26,51)        179.1529         estimate D2E/DX2                !
 ! D109  D(28,25,26,27)        179.1131         estimate D2E/DX2                !
 ! D110  D(28,25,26,51)          1.722          estimate D2E/DX2                !
 ! D111  D(24,25,28,29)        -82.7931         estimate D2E/DX2                !
 ! D112  D(24,25,28,53)         39.7384         estimate D2E/DX2                !
 ! D113  D(24,25,28,54)        155.118          estimate D2E/DX2                !
 ! D114  D(26,25,28,29)         94.5271         estimate D2E/DX2                !
 ! D115  D(26,25,28,53)       -142.9413         estimate D2E/DX2                !
 ! D116  D(26,25,28,54)        -27.5617         estimate D2E/DX2                !
 ! D117  D(25,26,27,22)          3.0003         estimate D2E/DX2                !
 ! D118  D(25,26,27,52)       -177.3677         estimate D2E/DX2                !
 ! D119  D(51,26,27,22)       -179.5668         estimate D2E/DX2                !
 ! D120  D(51,26,27,52)          0.0652         estimate D2E/DX2                !
 ! D121  D(25,28,29,30)         74.7871         estimate D2E/DX2                !
 ! D122  D(25,28,29,35)        -64.3842         estimate D2E/DX2                !
 ! D123  D(53,28,29,30)        -48.5608         estimate D2E/DX2                !
 ! D124  D(53,28,29,35)        172.2678         estimate D2E/DX2                !
 ! D125  D(54,28,29,30)       -162.4216         estimate D2E/DX2                !
 ! D126  D(54,28,29,35)         58.407          estimate D2E/DX2                !
 ! D127  D(28,29,30,31)        -97.6866         estimate D2E/DX2                !
 ! D128  D(28,29,30,55)         31.9282         estimate D2E/DX2                !
 ! D129  D(28,29,30,56)        146.978          estimate D2E/DX2                !
 ! D130  D(35,29,30,31)         44.6642         estimate D2E/DX2                !
 ! D131  D(35,29,30,55)        174.279          estimate D2E/DX2                !
 ! D132  D(35,29,30,56)        -70.6711         estimate D2E/DX2                !
 ! D133  D(28,29,35,34)         97.2259         estimate D2E/DX2                !
 ! D134  D(28,29,35,64)       -143.7521         estimate D2E/DX2                !
 ! D135  D(28,29,35,65)        -26.6131         estimate D2E/DX2                !
 ! D136  D(30,29,35,34)        -45.3314         estimate D2E/DX2                !
 ! D137  D(30,29,35,64)         73.6905         estimate D2E/DX2                !
 ! D138  D(30,29,35,65)       -169.1704         estimate D2E/DX2                !
 ! D139  D(29,30,31,32)        -50.9531         estimate D2E/DX2                !
 ! D140  D(29,30,31,57)       -172.556          estimate D2E/DX2                !
 ! D141  D(29,30,31,58)         69.7316         estimate D2E/DX2                !
 ! D142  D(55,30,31,32)       -179.7657         estimate D2E/DX2                !
 ! D143  D(55,30,31,57)         58.6314         estimate D2E/DX2                !
 ! D144  D(55,30,31,58)        -59.081          estimate D2E/DX2                !
 ! D145  D(56,30,31,32)         65.2784         estimate D2E/DX2                !
 ! D146  D(56,30,31,57)        -56.3245         estimate D2E/DX2                !
 ! D147  D(56,30,31,58)       -174.0369         estimate D2E/DX2                !
 ! D148  D(30,31,32,33)        -81.0787         estimate D2E/DX2                !
 ! D149  D(30,31,32,34)         51.9111         estimate D2E/DX2                !
 ! D150  D(57,31,32,33)         39.6694         estimate D2E/DX2                !
 ! D151  D(57,31,32,34)        172.6592         estimate D2E/DX2                !
 ! D152  D(58,31,32,33)        157.2066         estimate D2E/DX2                !
 ! D153  D(58,31,32,34)        -69.8037         estimate D2E/DX2                !
 ! D154  D(31,32,33,59)         65.0937         estimate D2E/DX2                !
 ! D155  D(31,32,33,60)        -55.5418         estimate D2E/DX2                !
 ! D156  D(31,32,33,61)       -174.3434         estimate D2E/DX2                !
 ! D157  D(34,32,33,59)        -64.3485         estimate D2E/DX2                !
 ! D158  D(34,32,33,60)        175.016          estimate D2E/DX2                !
 ! D159  D(34,32,33,61)         56.2144         estimate D2E/DX2                !
 ! D160  D(31,32,34,35)        -51.9239         estimate D2E/DX2                !
 ! D161  D(31,32,34,62)       -179.0911         estimate D2E/DX2                !
 ! D162  D(31,32,34,63)         65.0816         estimate D2E/DX2                !
 ! D163  D(33,32,34,35)         81.4418         estimate D2E/DX2                !
 ! D164  D(33,32,34,62)        -45.7254         estimate D2E/DX2                !
 ! D165  D(33,32,34,63)       -161.5527         estimate D2E/DX2                !
 ! D166  D(32,34,35,29)         51.6893         estimate D2E/DX2                !
 ! D167  D(32,34,35,64)        -67.8807         estimate D2E/DX2                !
 ! D168  D(32,34,35,65)        176.2169         estimate D2E/DX2                !
 ! D169  D(62,34,35,29)        177.4854         estimate D2E/DX2                !
 ! D170  D(62,34,35,64)         57.9154         estimate D2E/DX2                !
 ! D171  D(62,34,35,65)        -57.9871         estimate D2E/DX2                !
 ! D172  D(63,34,35,29)        -65.3895         estimate D2E/DX2                !
 ! D173  D(63,34,35,64)        175.0405         estimate D2E/DX2                !
 ! D174  D(63,34,35,65)         59.1381         estimate D2E/DX2                !
 --------------------------------------------------------------------------------
 Trust Radius=3.00D-01 FncErr=1.00D-07 GrdErr=1.00D-06
 Number of steps in this run= 400 maximum allowed number of steps= 408.
 GradGradGradGradGradGradGradGradGradGradGradGradGradGradGradGradGradGrad

 Leave Link  103 at Wed Mar  4 06:32:57 2020, MaxMem= 2684354560 cpu:       0.1
 (Enter /opt/g09gh/gaussian/g09/l202.exe)
 Stoichiometry    C29H31N7O
 Framework group  C1[X(C29H31N7O)]
 Deg. of freedom   198
 Full point group                 C1      NOp   1
 Largest Abelian subgroup         C1      NOp   1
 Largest concise Abelian subgroup C1      NOp   1
                         Standard orientation:                         
 ---------------------------------------------------------------------
 Center     Atomic      Atomic             Coordinates (Angstroms)
 Number     Number       Type             X           Y           Z
 ---------------------------------------------------------------------
      1          6           0        0.411405    4.521425   -0.240573
      2          6           0       -0.980042    4.434430   -0.091454
      3          6           0       -1.597651    3.173008    0.021272
      4          6           0       -0.720738    2.060291    0.022584
      5          7           0        0.608982    2.121640   -0.110611
      6          6           0        1.158418    3.337514   -0.254256
      7          6           0       -3.091263    2.976488    0.109391
      8          6           0       -4.049258    3.998678    0.200349
      9          6           0       -5.383281    3.577215    0.243682
     10          7           0       -5.775343    2.307553    0.179078
     11          6           0       -4.788231    1.393696    0.070403
     12          7           0       -3.486172    1.689825    0.049613
     13          7           0       -5.200971    0.072802   -0.029202
     14          6           0       -4.493616   -1.184062   -0.087315
     15          6           0       -5.197254   -2.398919    0.173676
     16          6           0       -4.462864   -3.594868    0.098859
     17          6           0       -3.096656   -3.656495   -0.200194
     18          6           0       -2.420526   -2.457056   -0.445885
     19          6           0       -3.129437   -1.246814   -0.397462
     20          7           0       -1.024621   -2.332907   -0.721098
     21          6           0       -0.019634   -3.264487   -0.664584
     22          6           0        1.312351   -2.805380   -0.106958
     23          6           0        1.414512   -1.867737    0.934346
     24          6           0        2.665457   -1.506613    1.440679
     25          6           0        3.853341   -2.048203    0.915230
     26          6           0        3.735893   -2.946745   -0.163594
     27          6           0        2.488705   -3.345590   -0.649314
     28          6           0        5.227775   -1.638132    1.446915
     29          7           0        5.878905   -0.408884    0.963869
     30          6           0        5.386220    0.903450    1.438198
     31          6           0        4.407453    1.634721    0.487063
     32          7           0        4.872007    1.760610   -0.911277
     33          6           0        5.814339    2.849297   -1.196762
     34          6           0        5.269639    0.414203   -1.393697
     35          6           0        6.267755   -0.323095   -0.461453
     36          8           0       -0.170860   -4.410528   -1.054784
     37          6           0       -6.675678   -2.452495    0.518451
     38          1           0        0.905677    5.481074   -0.360234
     39          1           0       -1.558194    5.354957   -0.108538
     40          1           0       -1.117005    1.059148    0.150515
     41          1           0        2.238603    3.358655   -0.386214
     42          1           0       -3.808071    5.053460    0.248335
     43          1           0       -6.187056    4.308369    0.326846
     44          1           0       -6.206737    0.027411    0.038869
     45          1           0       -4.968048   -4.541136    0.289064
     46          1           0       -2.565520   -4.600665   -0.236001
     47          1           0       -2.615218   -0.321303   -0.599114
     48          1           0       -0.703195   -1.394945   -0.920790
     49          1           0        0.508780   -1.447501    1.363925
     50          1           0        2.711004   -0.789756    2.260219
     51          1           0        4.629452   -3.380597   -0.611969
     52          1           0        2.406146   -4.071596   -1.454121
     53          1           0        5.157374   -1.543658    2.540517
     54          1           0        5.927574   -2.460945    1.239029
     55          1           0        5.015850    0.832255    2.421125
     56          1           0        6.664822    1.857732    1.508073
     57          1           0        4.177777    2.972111    1.036194
     58          1           0        3.172734    0.936420    0.460759
     59          1           0        6.765684    2.694828   -0.674909
     60          1           0        5.390411    3.809310   -0.880639
     61          1           0        6.008373    2.906858   -2.273990
     62          1           0        5.621351    0.480219   -2.389258
     63          1           0        3.980679   -0.442465   -1.417209
     64          1           0        7.588389    0.454179   -0.534153
     65          1           0        6.499897   -1.618424   -0.979228
     66          1           0       -7.294303   -2.097646   -0.317927
     67          1           0       -6.909036   -1.826468    1.391283
     68          1           0       -7.023626   -3.466495    0.759635
 ---------------------------------------------------------------------
 Rotational constants (GHZ):      0.1358826      0.0618315      0.0444454
 Leave Link  202 at Wed Mar  4 06:32:57 2020, MaxMem= 2684354560 cpu:       0.1
 (Enter /opt/g09gh/gaussian/g09/l301.exe)
 Standard basis: 6-31G(d) (6D, 7F)
 Ernie: Thresh=  0.10000D-02 Tol=  0.10000D-05 Strict=F.
 There are   617 symmetry adapted basis functions of A   symmetry.
 Integral buffers will be    131072 words long.
 Raffenetti 2 integral format.
 Two-electron integral symmetry is turned on.
   617 basis functions,  1160 primitive gaussians,   617 cartesian basis functions
   131 alpha electrons      131 beta electrons
       nuclear repulsion energy      3788.8185353325 Hartrees.
 IExCor= 4639 DFT=T Ex+Corr=wB97XD ExCW=0 ScaHFX=  1.000000
 ScaDFX=  1.000000  1.000000  1.000000  1.000000 ScalE2=  1.000000  1.000000
 IRadAn=      0 IRanWt=     -1 IRanGd=            0 ICorTp=0
  HFx wShort=  0.000000 wLong=  0.200000 cFull=  0.222036 cShort=  0.000000 cLong=  0.777964
  DFx wShort=  0.000000 wLong=  0.200000 cFull=  0.000000 cShort=  0.000000 cLong=  1.000000
 NAtoms=   68 NActive=   68 NUniq=   68 SFac= 7.50D-01 NAtFMM=   80 NAOKFM=F Big=T
 R6Disp: Dispersion energy =        -0.0594412025 Hartrees.
 Nuclear repulsion after empirical dispersion term =     3788.7590941300 Hartrees.
 Leave Link  301 at Wed Mar  4 06:32:57 2020, MaxMem= 2684354560 cpu:       0.4
 (Enter /opt/g09gh/gaussian/g09/l302.exe)
 NPDir=0 NMtPBC=     1 NCelOv=     1 NCel=       1 NClECP=     1 NCelD=      1
         NCelK=      1 NCelE2=     1 NClLst=     1 CellRange=     0.0.
 One-electron integrals computed using PRISM.
 NBasis=   617 RedAO= T  NBF=   617
 NBsUse=   617 1.00D-06 NBFU=   617
 Precomputing XC quadrature grid using
 IXCGrd= 2 IRadAn=           0 IRanWt=          -1 IRanGd=           0 AccXCQ= 1.00D-10.
 NRdTot=    4375 NPtTot=      558940 NUsed=      590462 NTot=      590494
 NSgBfM=   605   606   606   606   606 NAtAll=    68    68.
 Leave Link  302 at Wed Mar  4 06:33:00 2020, MaxMem= 2684354560 cpu:      16.8
 (Enter /opt/g09gh/gaussian/g09/l303.exe)
 DipDrv:  MaxL=1.
 Leave Link  303 at Wed Mar  4 06:33:00 2020, MaxMem= 2684354560 cpu:       1.2
 (Enter /opt/g09gh/gaussian/g09/l401.exe)
 Harris functional with IExCor= 4639 diagonalized for initial guess.
 ExpMin= 1.61D-01 ExpMax= 5.48D+03 ExpMxC= 8.25D+02 IAcc=1 IRadAn=         1 AccDes= 0.00D+00
 HarFok:  IExCor= 4639 AccDes= 0.00D+00 IRadAn=         1 IDoV= 1
 ScaDFX=  1.000000  1.000000  1.000000  1.000000
 FoFCou: FMM=F IPFlag=           0 FMFlag=      100000 FMFlg1=           1
         NFxFlg=           0 DoJE=T BraDBF=F KetDBF=T FulRan=T
         Omega=  0.000000  0.000000  1.000000  0.000000  0.000000 ICntrl=     500 IOpCl=  0
         NMat0=    1 NMatS0=    1 NMatT0=    0 NMatD0=    1 NMtDS0=    0 NMtDT0=    0
         I1Cent=           4 NGrid=           0.
 Petite list used in FoFCou.
 Harris En= -1512.35463405826    
 Initial guess orbital symmetries:
       Occupied  (A) (A) (A) (A) (A) (A) (A) (A) (A) (A) (A) (A)
                 (A) (A) (A) (A) (A) (A) (A) (A) (A) (A) (A) (A)
                 (A) (A) (A) (A) (A) (A) (A) (A) (A) (A) (A) (A)
                 (A) (A) (A) (A) (A) (A) (A) (A) (A) (A) (A) (A)
                 (A) (A) (A) (A) (A) (A) (A) (A) (A) (A) (A) (A)
                 (A) (A) (A) (A) (A) (A) (A) (A) (A) (A) (A) (A)
                 (A) (A) (A) (A) (A) (A) (A) (A) (A) (A) (A) (A)
                 (A) (A) (A) (A) (A) (A) (A) (A) (A) (A) (A) (A)
                 (A) (A) (A) (A) (A) (A) (A) (A) (A) (A) (A) (A)
                 (A) (A) (A) (A) (A) (A) (A) (A) (A) (A) (A) (A)
                 (A) (A) (A) (A) (A) (A) (A) (A) (A) (A) (A)
       Virtual   (A) (A) (A) (A) (A) (A) (A) (A) (A) (A) (A) (A)
                 (A) (A) (A) (A) (A) (A) (A) (A) (A) (A) (A) (A)
                 (A) (A) (A) (A) (A) (A) (A) (A) (A) (A) (A) (A)
                 (A) (A) (A) (A) (A) (A) (A) (A) (A) (A) (A) (A)
                 (A) (A) (A) (A) (A) (A) (A) (A) (A) (A) (A) (A)
                 (A) (A) (A) (A) (A) (A) (A) (A) (A) (A) (A) (A)
                 (A) (A) (A) (A) (A) (A) (A) (A) (A) (A) (A) (A)
                 (A) (A) (A) (A) (A) (A) (A) (A) (A) (A) (A) (A)
                 (A) (A) (A) (A) (A) (A) (A) (A) (A) (A) (A) (A)
                 (A) (A) (A) (A) (A) (A) (A) (A) (A) (A) (A) (A)
                 (A) (A) (A) (A) (A) (A) (A) (A) (A) (A) (A) (A)
                 (A) (A) (A) (A) (A) (A) (A) (A) (A) (A) (A) (A)
                 (A) (A) (A) (A) (A) (A) (A) (A) (A) (A) (A) (A)
                 (A) (A) (A) (A) (A) (A) (A) (A) (A) (A) (A) (A)
                 (A) (A) (A) (A) (A) (A) (A) (A) (A) (A) (A) (A)
                 (A) (A) (A) (A) (A) (A) (A) (A) (A) (A) (A) (A)
                 (A) (A) (A) (A) (A) (A) (A) (A) (A) (A) (A) (A)
                 (A) (A) (A) (A) (A) (A) (A) (A) (A) (A) (A) (A)
                 (A) (A) (A) (A) (A) (A) (A) (A) (A) (A) (A) (A)
                 (A) (A) (A) (A) (A) (A) (A) (A) (A) (A) (A) (A)
                 (A) (A) (A) (A) (A) (A) (A) (A) (A) (A) (A) (A)
                 (A) (A) (A) (A) (A) (A) (A) (A) (A) (A) (A) (A)
                 (A) (A) (A) (A) (A) (A) (A) (A) (A) (A) (A) (A)
                 (A) (A) (A) (A) (A) (A) (A) (A) (A) (A) (A) (A)
                 (A) (A) (A) (A) (A) (A) (A) (A) (A) (A) (A) (A)
                 (A) (A) (A) (A) (A) (A) (A) (A) (A) (A) (A) (A)
                 (A) (A) (A) (A) (A) (A) (A) (A) (A) (A) (A) (A)
                 (A) (A) (A) (A) (A) (A) (A) (A) (A) (A) (A) (A)
                 (A) (A) (A) (A) (A) (A) (A) (A) (A) (A) (A) (A)
                 (A) (A) (A) (A) (A) (A) (A) (A) (A) (A) (A) (A)
                 (A) (A) (A) (A) (A) (A) (A) (A) (A) (A) (A) (A)
                 (A) (A) (A) (A) (A) (A) (A) (A) (A) (A) (A) (A)
                 (A) (A) (A) (A) (A) (A) (A) (A) (A) (A) (A) (A)
                 (A) (A) (A) (A) (A) (A) (A) (A) (A) (A) (A) (A)
                 (A) (A) (A) (A) (A) (A) (A) (A) (A) (A) (A) (A)
                 (A) (A) (A) (A) (A) (A) (A) (A) (A) (A) (A) (A)
                 (A) (A) (A) (A) (A) (A) (A) (A) (A) (A) (A) (A)
                 (A) (A) (A) (A) (A) (A) (A) (A) (A) (A) (A) (A)
                 (A) (A) (A) (A) (A) (A) (A) (A) (A) (A) (A) (A)
                 (A) (A) (A) (A) (A) (A) (A) (A) (A) (A) (A) (A)
                 (A) (A) (A) (A) (A) (A)
 The electronic state of the initial guess is 1-A.
 Leave Link  401 at Wed Mar  4 06:33:07 2020, MaxMem= 2684354560 cpu:      40.4
 (Enter /opt/g09gh/gaussian/g09/l502.exe)
 Closed shell SCF:
 Requested convergence on RMS density matrix=1.00D-08 within 128 cycles.
 Requested convergence on MAX density matrix=1.00D-06.
 Requested convergence on             energy=1.00D-06.
 No special actions if energy rises.
 Using DIIS extrapolation, IDIIS=  1040.
 Integral symmetry usage will be decided dynamically.
       589837 words used for storage of precomputed grid.
 IEnd=     1758417 IEndB=     1758417 NGot=  2684354560 MDV=  2682994090
 LenX=  2682994090 LenY=  2682612784
 Fock matrices will be formed incrementally for  20 cycles.
 Integral accuracy reduced to 1.0D-05 until final iterations.

 Cycle   1  Pass 0  IDiag  1:
 FoFJK:  IHMeth= 1 ICntrl=     0 DoSepK=T KAlg= 1 I1Cent= 0 FoldK=F
 FoFCou: FMM=T IPFlag=           0 FMFlag=      100000 FMFlg1=           1
         NFxFlg=           0 DoJE=T BraDBF=F KetDBF=F FulRan=T
         Omega=  0.000000  0.000000  1.000000  0.000000  0.000000 ICntrl=     500 IOpCl=  0
         NMat0=    1 NMatS0=    1 NMatT0=    0 NMatD0=    1 NMtDS0=    0 NMtDT0=    0
         I1Cent=           0 NGrid=           0.
 Symmetry not used in FoFCou.
 FMM levels:  10  Number of levels for PrismC:   9
 E= -1581.07889048348    
 DIIS: error= 5.37D-02 at cycle   1 NSaved=   1.
 NSaved= 1 IEnMin= 1 EnMin= -1581.07889048348     IErMin= 1 ErrMin= 5.37D-02
 ErrMax= 5.37D-02 EMaxC= 1.00D-01 BMatC= 1.47D+00 BMatP= 1.47D+00
 IDIUse=3 WtCom= 4.63D-01 WtEn= 5.37D-01
 Coeff-Com:  0.100D+01
 Coeff-En:   0.100D+01
 Coeff:      0.100D+01
 Gap=     0.285 Goal=   None    Shift=    0.000
 GapD=    0.285 DampG=1.000 DampE=0.500 DampFc=0.5000 IDamp=-1.
 Damping current iteration by 5.00D-01
 RMSDP=1.90D-03 MaxDP=8.87D-02              OVMax= 1.62D-01

 Cycle   2  Pass 0  IDiag  1:
 RMSU=  6.72D-04    CP:  1.00D+00
 FoFJK:  IHMeth= 1 ICntrl=     0 DoSepK=T KAlg= 1 I1Cent= 0 FoldK=F
 E= -1581.25830153200     Delta-E=       -0.179411048513 Rises=F Damp=T
 DIIS: error= 2.72D-02 at cycle   2 NSaved=   2.
 NSaved= 2 IEnMin= 2 EnMin= -1581.25830153200     IErMin= 2 ErrMin= 2.72D-02
 ErrMax= 2.72D-02 EMaxC= 1.00D-01 BMatC= 3.22D-01 BMatP= 1.47D+00
 IDIUse=3 WtCom= 7.28D-01 WtEn= 2.72D-01
 Coeff-Com: -0.645D+00 0.165D+01
 Coeff-En:   0.000D+00 0.100D+01
 Coeff:     -0.470D+00 0.147D+01
 Gap=     0.276 Goal=   None    Shift=    0.000
 RMSDP=8.81D-04 MaxDP=3.83D-02 DE=-1.79D-01 OVMax= 1.20D-01

 Cycle   3  Pass 0  IDiag  1:
 RMSU=  5.74D-04    CP:  1.00D+00  1.36D+00
 FoFJK:  IHMeth= 1 ICntrl=     0 DoSepK=T KAlg= 1 I1Cent= 0 FoldK=F
 E= -1581.38927658911     Delta-E=       -0.130975057111 Rises=F Damp=F
 DIIS: error= 7.75D-03 at cycle   3 NSaved=   3.
 NSaved= 3 IEnMin= 3 EnMin= -1581.38927658911     IErMin= 3 ErrMin= 7.75D-03
 ErrMax= 7.75D-03 EMaxC= 1.00D-01 BMatC= 6.40D-02 BMatP= 3.22D-01
 IDIUse=3 WtCom= 9.22D-01 WtEn= 7.75D-02
 Coeff-Com: -0.364D+00 0.751D+00 0.613D+00
 Coeff-En:   0.000D+00 0.000D+00 0.100D+01
 Coeff:     -0.335D+00 0.693D+00 0.643D+00
 Gap=     0.273 Goal=   None    Shift=    0.000
 RMSDP=4.83D-04 MaxDP=3.27D-02 DE=-1.31D-01 OVMax= 5.99D-02

 Cycle   4  Pass 0  IDiag  1:
 RMSU=  1.43D-04    CP:  1.00D+00  1.66D+00  5.93D-01
 FoFJK:  IHMeth= 1 ICntrl=     0 DoSepK=T KAlg= 1 I1Cent= 0 FoldK=F
 E= -1581.44701198716     Delta-E=       -0.057735398055 Rises=F Damp=F
 DIIS: error= 1.78D-03 at cycle   4 NSaved=   4.
 NSaved= 4 IEnMin= 4 EnMin= -1581.44701198716     IErMin= 4 ErrMin= 1.78D-03
 ErrMax= 1.78D-03 EMaxC= 1.00D-01 BMatC= 3.45D-03 BMatP= 6.40D-02
 IDIUse=3 WtCom= 9.82D-01 WtEn= 1.78D-02
 Coeff-Com: -0.161D+00 0.328D+00 0.342D+00 0.491D+00
 Coeff-En:   0.000D+00 0.000D+00 0.000D+00 0.100D+01
 Coeff:     -0.158D+00 0.322D+00 0.335D+00 0.500D+00
 Gap=     0.264 Goal=   None    Shift=    0.000
 RMSDP=9.95D-05 MaxDP=7.08D-03 DE=-5.77D-02 OVMax= 9.70D-03

 Cycle   5  Pass 0  IDiag  1:
 RMSU=  4.43D-05    CP:  1.00D+00  1.64D+00  6.58D-01  7.34D-01
 FoFJK:  IHMeth= 1 ICntrl=     0 DoSepK=T KAlg= 1 I1Cent= 0 FoldK=F
 E= -1581.45010790796     Delta-E=       -0.003095920792 Rises=F Damp=F
 DIIS: error= 3.60D-04 at cycle   5 NSaved=   5.
 NSaved= 5 IEnMin= 5 EnMin= -1581.45010790796     IErMin= 5 ErrMin= 3.60D-04
 ErrMax= 3.60D-04 EMaxC= 1.00D-01 BMatC= 7.98D-05 BMatP= 3.45D-03
 IDIUse=3 WtCom= 9.96D-01 WtEn= 3.60D-03
 Coeff-Com: -0.115D-01 0.224D-01 0.456D-01 0.147D+00 0.797D+00
 Coeff-En:   0.000D+00 0.000D+00 0.000D+00 0.000D+00 0.100D+01
 Coeff:     -0.114D-01 0.223D-01 0.454D-01 0.146D+00 0.798D+00
 Gap=     0.263 Goal=   None    Shift=    0.000
 RMSDP=2.44D-05 MaxDP=2.40D-03 DE=-3.10D-03 OVMax= 2.98D-03

 Cycle   6  Pass 0  IDiag  1:
 RMSU=  1.29D-05    CP:  1.00D+00  1.65D+00  6.65D-01  8.04D-01  1.01D+00
 FoFJK:  IHMeth= 1 ICntrl=     0 DoSepK=T KAlg= 1 I1Cent= 0 FoldK=F
 E= -1581.45019235538     Delta-E=       -0.000084447423 Rises=F Damp=F
 DIIS: error= 2.16D-04 at cycle   6 NSaved=   6.
 NSaved= 6 IEnMin= 6 EnMin= -1581.45019235538     IErMin= 6 ErrMin= 2.16D-04
 ErrMax= 2.16D-04 EMaxC= 1.00D-01 BMatC= 2.77D-05 BMatP= 7.98D-05
 IDIUse=3 WtCom= 9.98D-01 WtEn= 2.16D-03
 Coeff-Com:  0.239D-01-0.494D-01-0.378D-01-0.187D-01 0.414D+00 0.668D+00
 Coeff-En:   0.000D+00 0.000D+00 0.000D+00 0.000D+00 0.000D+00 0.100D+01
 Coeff:      0.238D-01-0.493D-01-0.377D-01-0.187D-01 0.413D+00 0.669D+00
 Gap=     0.264 Goal=   None    Shift=    0.000
 RMSDP=1.31D-05 MaxDP=7.82D-04 DE=-8.44D-05 OVMax= 1.65D-03

 Cycle   7  Pass 0  IDiag  1:
 RMSU=  5.80D-06    CP:  1.00D+00  1.65D+00  6.69D-01  8.30D-01  1.13D+00
                    CP:  8.92D-01
 FoFJK:  IHMeth= 1 ICntrl=     0 DoSepK=T KAlg= 1 I1Cent= 0 FoldK=F
 E= -1581.45022310714     Delta-E=       -0.000030751762 Rises=F Damp=F
 DIIS: error= 4.50D-05 at cycle   7 NSaved=   7.
 NSaved= 7 IEnMin= 7 EnMin= -1581.45022310714     IErMin= 7 ErrMin= 4.50D-05
 ErrMax= 4.50D-05 EMaxC= 1.00D-01 BMatC= 1.72D-06 BMatP= 2.77D-05
 IDIUse=1 WtCom= 1.00D+00 WtEn= 0.00D+00
 Coeff-Com:  0.948D-02-0.194D-01-0.169D-01-0.206D-01 0.670D-01 0.233D+00
 Coeff-Com:  0.747D+00
 Coeff:      0.948D-02-0.194D-01-0.169D-01-0.206D-01 0.670D-01 0.233D+00
 Coeff:      0.747D+00
 Gap=     0.264 Goal=   None    Shift=    0.000
 RMSDP=4.10D-06 MaxDP=2.74D-04 DE=-3.08D-05 OVMax= 6.51D-04

 Initial convergence to 1.0D-05 achieved.  Increase integral accuracy.
 Cycle   8  Pass 1  IDiag  1:
 FoFJK:  IHMeth= 1 ICntrl=     0 DoSepK=T KAlg= 1 I1Cent= 0 FoldK=F
 E= -1581.44828004581     Delta-E=        0.001943061330 Rises=F Damp=F
 DIIS: error= 6.98D-05 at cycle   1 NSaved=   1.
 NSaved= 1 IEnMin= 1 EnMin= -1581.44828004581     IErMin= 1 ErrMin= 6.98D-05
 ErrMax= 6.98D-05 EMaxC= 1.00D-01 BMatC= 1.42D-05 BMatP= 1.42D-05
 IDIUse=1 WtCom= 1.00D+00 WtEn= 0.00D+00
 Coeff-Com:  0.100D+01
 Coeff:      0.100D+01
 Gap=     0.264 Goal=   None    Shift=    0.000
 RMSDP=4.10D-06 MaxDP=2.74D-04 DE= 1.94D-03 OVMax= 4.07D-04

 Cycle   9  Pass 1  IDiag  1:
 RMSU=  1.84D-05    CP:  1.00D+00
 FoFJK:  IHMeth= 1 ICntrl=     0 DoSepK=T KAlg= 1 I1Cent= 0 FoldK=F
 E= -1581.44829204850     Delta-E=       -0.000012002693 Rises=F Damp=F
 DIIS: error= 2.41D-05 at cycle   2 NSaved=   2.
 NSaved= 2 IEnMin= 2 EnMin= -1581.44829204850     IErMin= 2 ErrMin= 2.41D-05
 ErrMax= 2.41D-05 EMaxC= 1.00D-01 BMatC= 8.41D-07 BMatP= 1.42D-05
 IDIUse=1 WtCom= 1.00D+00 WtEn= 0.00D+00
 Coeff-Com:  0.294D-01 0.971D+00
 Coeff:      0.294D-01 0.971D+00
 Gap=     0.264 Goal=   None    Shift=    0.000
 RMSDP=3.31D-06 MaxDP=2.19D-04 DE=-1.20D-05 OVMax= 3.43D-04

 Cycle  10  Pass 1  IDiag  1:
 RMSU=  2.18D-06    CP:  1.00D+00  1.05D+00
 FoFJK:  IHMeth= 1 ICntrl=     0 DoSepK=T KAlg= 1 I1Cent= 0 FoldK=F
 E= -1581.44829211434     Delta-E=       -0.000000065837 Rises=F Damp=F
 DIIS: error= 3.18D-05 at cycle   3 NSaved=   3.
 NSaved= 3 IEnMin= 3 EnMin= -1581.44829211434     IErMin= 2 ErrMin= 2.41D-05
 ErrMax= 3.18D-05 EMaxC= 1.00D-01 BMatC= 1.06D-06 BMatP= 8.41D-07
 IDIUse=1 WtCom= 1.00D+00 WtEn= 0.00D+00
 Coeff-Com: -0.430D-01 0.549D+00 0.494D+00
 Coeff:     -0.430D-01 0.549D+00 0.494D+00
 Gap=     0.264 Goal=   None    Shift=    0.000
 RMSDP=1.68D-06 MaxDP=1.43D-04 DE=-6.58D-08 OVMax= 1.68D-04

 Cycle  11  Pass 1  IDiag  1:
 RMSU=  7.13D-07    CP:  1.00D+00  1.06D+00  5.76D-01
 FoFJK:  IHMeth= 1 ICntrl=     0 DoSepK=T KAlg= 1 I1Cent= 0 FoldK=F
 E= -1581.44829303504     Delta-E=       -0.000000920701 Rises=F Damp=F
 DIIS: error= 8.07D-06 at cycle   4 NSaved=   4.
 NSaved= 4 IEnMin= 4 EnMin= -1581.44829303504     IErMin= 4 ErrMin= 8.07D-06
 ErrMax= 8.07D-06 EMaxC= 1.00D-01 BMatC= 2.24D-08 BMatP= 8.41D-07
 IDIUse=1 WtCom= 1.00D+00 WtEn= 0.00D+00
 Coeff-Com: -0.160D-01 0.105D+00 0.152D+00 0.758D+00
 Coeff:     -0.160D-01 0.105D+00 0.152D+00 0.758D+00
 Gap=     0.264 Goal=   None    Shift=    0.000
 RMSDP=3.71D-07 MaxDP=4.14D-05 DE=-9.21D-07 OVMax= 4.32D-05

 Cycle  12  Pass 1  IDiag  1:
 RMSU=  2.34D-07    CP:  1.00D+00  1.06D+00  6.23D-01  1.07D+00
 FoFJK:  IHMeth= 1 ICntrl=     0 DoSepK=T KAlg= 1 I1Cent= 0 FoldK=F
 E= -1581.44829305915     Delta-E=       -0.000000024107 Rises=F Damp=F
 DIIS: error= 3.36D-06 at cycle   5 NSaved=   5.
 NSaved= 5 IEnMin= 5 EnMin= -1581.44829305915     IErMin= 5 ErrMin= 3.36D-06
 ErrMax= 3.36D-06 EMaxC= 1.00D-01 BMatC= 6.67D-09 BMatP= 2.24D-08
 IDIUse=1 WtCom= 1.00D+00 WtEn= 0.00D+00
 Coeff-Com:  0.453D-04-0.428D-01-0.129D-01 0.361D+00 0.695D+00
 Coeff:      0.453D-04-0.428D-01-0.129D-01 0.361D+00 0.695D+00
 Gap=     0.264 Goal=   None    Shift=    0.000
 RMSDP=2.10D-07 MaxDP=1.51D-05 DE=-2.41D-08 OVMax= 2.70D-05

 Cycle  13  Pass 1  IDiag  1:
 RMSU=  9.93D-08    CP:  1.00D+00  1.06D+00  6.43D-01  1.21D+00  9.06D-01
 FoFJK:  IHMeth= 1 ICntrl=     0 DoSepK=T KAlg= 1 I1Cent= 0 FoldK=F
 E= -1581.44829306807     Delta-E=       -0.000000008924 Rises=F Damp=F
 DIIS: error= 1.31D-06 at cycle   6 NSaved=   6.
 NSaved= 6 IEnMin= 6 EnMin= -1581.44829306807     IErMin= 6 ErrMin= 1.31D-06
 ErrMax= 1.31D-06 EMaxC= 1.00D-01 BMatC= 6.44D-10 BMatP= 6.67D-09
 IDIUse=1 WtCom= 1.00D+00 WtEn= 0.00D+00
 Coeff-Com:  0.217D-02-0.284D-01-0.263D-01 0.143D-01 0.234D+00 0.804D+00
 Coeff:      0.217D-02-0.284D-01-0.263D-01 0.143D-01 0.234D+00 0.804D+00
 Gap=     0.264 Goal=   None    Shift=    0.000
 RMSDP=9.56D-08 MaxDP=5.25D-06 DE=-8.92D-09 OVMax= 1.57D-05

 Cycle  14  Pass 1  IDiag  1:
 RMSU=  3.89D-08    CP:  1.00D+00  1.06D+00  6.48D-01  1.27D+00  1.06D+00
                    CP:  1.09D+00
 FoFJK:  IHMeth= 1 ICntrl=     0 DoSepK=T KAlg= 1 I1Cent= 0 FoldK=F
 E= -1581.44829306947     Delta-E=       -0.000000001396 Rises=F Damp=F
 DIIS: error= 3.79D-07 at cycle   7 NSaved=   7.
 NSaved= 7 IEnMin= 7 EnMin= -1581.44829306947     IErMin= 7 ErrMin= 3.79D-07
 ErrMax= 3.79D-07 EMaxC= 1.00D-01 BMatC= 1.39D-10 BMatP= 6.44D-10
 IDIUse=1 WtCom= 1.00D+00 WtEn= 0.00D+00
 Coeff-Com:  0.847D-03-0.357D-02-0.880D-02-0.639D-01-0.329D-01 0.323D+00
 Coeff-Com:  0.785D+00
 Coeff:      0.847D-03-0.357D-02-0.880D-02-0.639D-01-0.329D-01 0.323D+00
 Coeff:      0.785D+00
 Gap=     0.264 Goal=   None    Shift=    0.000
 RMSDP=4.73D-08 MaxDP=1.85D-06 DE=-1.40D-09 OVMax= 7.73D-06

 Cycle  15  Pass 1  IDiag  1:
 RMSU=  1.63D-08    CP:  1.00D+00  1.06D+00  6.51D-01  1.29D+00  1.11D+00
                    CP:  1.29D+00  1.06D+00
 FoFJK:  IHMeth= 1 ICntrl=     0 DoSepK=T KAlg= 1 I1Cent= 0 FoldK=F
 E= -1581.44829306982     Delta-E=       -0.000000000351 Rises=F Damp=F
 DIIS: error= 2.20D-07 at cycle   8 NSaved=   8.
 NSaved= 8 IEnMin= 8 EnMin= -1581.44829306982     IErMin= 8 ErrMin= 2.20D-07
 ErrMax= 2.20D-07 EMaxC= 1.00D-01 BMatC= 2.10D-11 BMatP= 1.39D-10
 IDIUse=1 WtCom= 1.00D+00 WtEn= 0.00D+00
 Coeff-Com: -0.912D-04 0.395D-02 0.175D-02-0.244D-01-0.523D-01-0.343D-01
 Coeff-Com:  0.272D+00 0.833D+00
 Coeff:     -0.912D-04 0.395D-02 0.175D-02-0.244D-01-0.523D-01-0.343D-01
 Coeff:      0.272D+00 0.833D+00
 Gap=     0.264 Goal=   None    Shift=    0.000
 RMSDP=2.03D-08 MaxDP=9.67D-07 DE=-3.51D-10 OVMax= 3.80D-06

 Cycle  16  Pass 1  IDiag  1:
 RMSU=  6.83D-09    CP:  1.00D+00  1.06D+00  6.52D-01  1.30D+00  1.13D+00
                    CP:  1.35D+00  1.26D+00  1.09D+00
 FoFJK:  IHMeth= 1 ICntrl=     0 DoSepK=T KAlg= 1 I1Cent= 0 FoldK=F
 E= -1581.44829306986     Delta-E=       -0.000000000036 Rises=F Damp=F
 DIIS: error= 5.99D-08 at cycle   9 NSaved=   9.
 NSaved= 9 IEnMin= 9 EnMin= -1581.44829306986     IErMin= 9 ErrMin= 5.99D-08
 ErrMax= 5.99D-08 EMaxC= 1.00D-01 BMatC= 3.67D-12 BMatP= 2.10D-11
 IDIUse=1 WtCom= 1.00D+00 WtEn= 0.00D+00
 Coeff-Com: -0.177D-03 0.210D-02 0.221D-02 0.171D-02-0.150D-01-0.712D-01
 Coeff-Com: -0.350D-01 0.303D+00 0.813D+00
 Coeff:     -0.177D-03 0.210D-02 0.221D-02 0.171D-02-0.150D-01-0.712D-01
 Coeff:     -0.350D-01 0.303D+00 0.813D+00
 Gap=     0.264 Goal=   None    Shift=    0.000
 RMSDP=8.28D-09 MaxDP=4.68D-07 DE=-3.64D-11 OVMax= 1.34D-06

 SCF Done:  E(RwB97XD) =  -1581.44829307     A.U. after   16 cycles
             Convg  =    0.8284D-08             -V/T =  2.0111
 KE= 1.564072597823D+03 PE=-1.124572483077D+04 EE= 4.311444845743D+03
 Leave Link  502 at Wed Mar  4 06:39:25 2020, MaxMem= 2684354560 cpu:    2267.8
 (Enter /opt/g09gh/gaussian/g09/l601.exe)
 Copying SCF densities to generalized density rwf, IOpCl= 0 IROHF=0.

 **********************************************************************

            Population analysis using the SCF density.

 **********************************************************************

 Orbital symmetries:
       Occupied  (A) (A) (A) (A) (A) (A) (A) (A) (A) (A) (A) (A)
                 (A) (A) (A) (A) (A) (A) (A) (A) (A) (A) (A) (A)
                 (A) (A) (A) (A) (A) (A) (A) (A) (A) (A) (A) (A)
                 (A) (A) (A) (A) (A) (A) (A) (A) (A) (A) (A) (A)
                 (A) (A) (A) (A) (A) (A) (A) (A) (A) (A) (A) (A)
                 (A) (A) (A) (A) (A) (A) (A) (A) (A) (A) (A) (A)
                 (A) (A) (A) (A) (A) (A) (A) (A) (A) (A) (A) (A)
                 (A) (A) (A) (A) (A) (A) (A) (A) (A) (A) (A) (A)
                 (A) (A) (A) (A) (A) (A) (A) (A) (A) (A) (A) (A)
                 (A) (A) (A) (A) (A) (A) (A) (A) (A) (A) (A) (A)
                 (A) (A) (A) (A) (A) (A) (A) (A) (A) (A) (A)
       Virtual   (A) (A) (A) (A) (A) (A) (A) (A) (A) (A) (A) (A)
                 (A) (A) (A) (A) (A) (A) (A) (A) (A) (A) (A) (A)
                 (A) (A) (A) (A) (A) (A) (A) (A) (A) (A) (A) (A)
                 (A) (A) (A) (A) (A) (A) (A) (A) (A) (A) (A) (A)
                 (A) (A) (A) (A) (A) (A) (A) (A) (A) (A) (A) (A)
                 (A) (A) (A) (A) (A) (A) (A) (A) (A) (A) (A) (A)
                 (A) (A) (A) (A) (A) (A) (A) (A) (A) (A) (A) (A)
                 (A) (A) (A) (A) (A) (A) (A) (A) (A) (A) (A) (A)
                 (A) (A) (A) (A) (A) (A) (A) (A) (A) (A) (A) (A)
                 (A) (A) (A) (A) (A) (A) (A) (A) (A) (A) (A) (A)
                 (A) (A) (A) (A) (A) (A) (A) (A) (A) (A) (A) (A)
                 (A) (A) (A) (A) (A) (A) (A) (A) (A) (A) (A) (A)
                 (A) (A) (A) (A) (A) (A) (A) (A) (A) (A) (A) (A)
                 (A) (A) (A) (A) (A) (A) (A) (A) (A) (A) (A) (A)
                 (A) (A) (A) (A) (A) (A) (A) (A) (A) (A) (A) (A)
                 (A) (A) (A) (A) (A) (A) (A) (A) (A) (A) (A) (A)
                 (A) (A) (A) (A) (A) (A) (A) (A) (A) (A) (A) (A)
                 (A) (A) (A) (A) (A) (A) (A) (A) (A) (A) (A) (A)
                 (A) (A) (A) (A) (A) (A) (A) (A) (A) (A) (A) (A)
                 (A) (A) (A) (A) (A) (A) (A) (A) (A) (A) (A) (A)
                 (A) (A) (A) (A) (A) (A) (A) (A) (A) (A) (A) (A)
                 (A) (A) (A) (A) (A) (A) (A) (A) (A) (A) (A) (A)
                 (A) (A) (A) (A) (A) (A) (A) (A) (A) (A) (A) (A)
                 (A) (A) (A) (A) (A) (A) (A) (A) (A) (A) (A) (A)
                 (A) (A) (A) (A) (A) (A) (A) (A) (A) (A) (A) (A)
                 (A) (A) (A) (A) (A) (A) (A) (A) (A) (A) (A) (A)
                 (A) (A) (A) (A) (A) (A) (A) (A) (A) (A) (A) (A)
                 (A) (A) (A) (A) (A) (A) (A) (A) (A) (A) (A) (A)
                 (A) (A) (A) (A) (A) (A) (A) (A) (A) (A) (A) (A)
                 (A) (A) (A) (A) (A) (A) (A) (A) (A) (A) (A) (A)
                 (A) (A) (A) (A) (A) (A) (A) (A) (A) (A) (A) (A)
                 (A) (A) (A) (A) (A) (A) (A) (A) (A) (A) (A) (A)
                 (A) (A) (A) (A) (A) (A) (A) (A) (A) (A) (A) (A)
                 (A) (A) (A) (A) (A) (A) (A) (A) (A) (A) (A) (A)
                 (A) (A) (A) (A) (A) (A) (A) (A) (A) (A) (A) (A)
                 (A) (A) (A) (A) (A) (A) (A) (A) (A) (A) (A) (A)
                 (A) (A) (A) (A) (A) (A) (A) (A) (A) (A) (A) (A)
                 (A) (A) (A) (A) (A) (A) (A) (A) (A) (A) (A) (A)
                 (A) (A) (A) (A) (A) (A) (A) (A) (A) (A) (A) (A)
                 (A) (A) (A) (A) (A) (A) (A) (A) (A) (A) (A) (A)
                 (A) (A) (A) (A) (A) (A)
 The electronic state is 1-A.
 Alpha  occ. eigenvalues --  -19.24259 -14.49346 -14.48281 -14.47084 -14.45980
 Alpha  occ. eigenvalues --  -14.45925 -14.45680 -14.45568 -10.41897 -10.40795
 Alpha  occ. eigenvalues --  -10.39031 -10.37998 -10.37899 -10.36526 -10.36262
 Alpha  occ. eigenvalues --  -10.35784 -10.35705 -10.35038 -10.34636 -10.34462
 Alpha  occ. eigenvalues --  -10.34256 -10.33877 -10.33724 -10.32349 -10.32017
 Alpha  occ. eigenvalues --  -10.32012 -10.31780 -10.31750 -10.31484 -10.31215
 Alpha  occ. eigenvalues --  -10.31121 -10.31076 -10.31001 -10.30252 -10.30191
 Alpha  occ. eigenvalues --  -10.29475 -10.29197  -1.14041  -1.11387  -1.05025
 Alpha  occ. eigenvalues --   -1.03902  -1.03614  -1.02972  -1.00177  -0.99915
 Alpha  occ. eigenvalues --   -0.96157  -0.94440  -0.92056  -0.89083  -0.88028
 Alpha  occ. eigenvalues --   -0.86744  -0.86361  -0.84965  -0.83765  -0.83557
 Alpha  occ. eigenvalues --   -0.82153  -0.79545  -0.78109  -0.77563  -0.75787
 Alpha  occ. eigenvalues --   -0.73095  -0.73014  -0.72190  -0.71967  -0.70532
 Alpha  occ. eigenvalues --   -0.70213  -0.69418  -0.68015  -0.66233  -0.64464
 Alpha  occ. eigenvalues --   -0.62990  -0.62463  -0.61335  -0.60487  -0.59666
 Alpha  occ. eigenvalues --   -0.58320  -0.58098  -0.56688  -0.56587  -0.56026
 Alpha  occ. eigenvalues --   -0.55674  -0.55500  -0.54627  -0.54443  -0.54229
 Alpha  occ. eigenvalues --   -0.53429  -0.53266  -0.52600  -0.52380  -0.51512
 Alpha  occ. eigenvalues --   -0.51476  -0.51130  -0.51025  -0.50791  -0.50062
 Alpha  occ. eigenvalues --   -0.49878  -0.49841  -0.49664  -0.49210  -0.47990
 Alpha  occ. eigenvalues --   -0.47284  -0.46489  -0.46375  -0.45795  -0.45428
 Alpha  occ. eigenvalues --   -0.44945  -0.44543  -0.44136  -0.43900  -0.43880
 Alpha  occ. eigenvalues --   -0.43229  -0.43133  -0.42164  -0.41316  -0.40736
 Alpha  occ. eigenvalues --   -0.39939  -0.38167  -0.37706  -0.36951  -0.35588
 Alpha  occ. eigenvalues --   -0.34924  -0.34711  -0.34123  -0.33357  -0.32973
 Alpha  occ. eigenvalues --   -0.32854  -0.32335  -0.31650  -0.29210  -0.27246
 Alpha  occ. eigenvalues --   -0.26681
 Alpha virt. eigenvalues --   -0.00292   0.02395   0.03320   0.04810   0.05757
 Alpha virt. eigenvalues --    0.07366   0.07465   0.07791   0.09759   0.09937
 Alpha virt. eigenvalues --    0.10798   0.11670   0.12407   0.14095   0.14807
 Alpha virt. eigenvalues --    0.16266   0.16516   0.17440   0.17981   0.18858
 Alpha virt. eigenvalues --    0.19294   0.19855   0.20175   0.20513   0.21321
 Alpha virt. eigenvalues --    0.21775   0.22598   0.22928   0.23142   0.23792
 Alpha virt. eigenvalues --    0.23920   0.24396   0.24638   0.25066   0.25394
 Alpha virt. eigenvalues --    0.25782   0.25898   0.26200   0.26361   0.27096
 Alpha virt. eigenvalues --    0.27444   0.27729   0.27868   0.28332   0.28748
 Alpha virt. eigenvalues --    0.29273   0.29676   0.29970   0.30490   0.30934
 Alpha virt. eigenvalues --    0.31226   0.31737   0.32501   0.32938   0.33332
 Alpha virt. eigenvalues --    0.34132   0.35360   0.35644   0.36805   0.37431
 Alpha virt. eigenvalues --    0.37707   0.38219   0.39003   0.39309   0.39461
 Alpha virt. eigenvalues --    0.39967   0.41008   0.41136   0.41302   0.41863
 Alpha virt. eigenvalues --    0.43693   0.45114   0.45919   0.46013   0.47274
 Alpha virt. eigenvalues --    0.48100   0.49355   0.51268   0.52417   0.53655
 Alpha virt. eigenvalues --    0.54935   0.56044   0.56734   0.57471   0.58108
 Alpha virt. eigenvalues --    0.58486   0.59096   0.59580   0.59750   0.59946
 Alpha virt. eigenvalues --    0.60502   0.61040   0.61444   0.61728   0.62035
 Alpha virt. eigenvalues --    0.62222   0.62362   0.63168   0.63594   0.63952
 Alpha virt. eigenvalues --    0.64062   0.64732   0.64980   0.65373   0.65414
 Alpha virt. eigenvalues --    0.65661   0.66054   0.66187   0.66531   0.66904
 Alpha virt. eigenvalues --    0.67063   0.67139   0.67568   0.67874   0.68254
 Alpha virt. eigenvalues --    0.68666   0.69015   0.69134   0.69490   0.70157
 Alpha virt. eigenvalues --    0.70652   0.70946   0.71095   0.71362   0.72124
 Alpha virt. eigenvalues --    0.72479   0.72590   0.72894   0.73205   0.73992
 Alpha virt. eigenvalues --    0.74434   0.74849   0.75658   0.76049   0.76565
 Alpha virt. eigenvalues --    0.77273   0.77861   0.78523   0.79568   0.80348
 Alpha virt. eigenvalues --    0.80600   0.81125   0.81421   0.81973   0.82407
 Alpha virt. eigenvalues --    0.83559   0.83830   0.83920   0.84708   0.84973
 Alpha virt. eigenvalues --    0.85741   0.86341   0.86987   0.87261   0.88061
 Alpha virt. eigenvalues --    0.88303   0.88835   0.89702   0.90110   0.90321
 Alpha virt. eigenvalues --    0.90851   0.91267   0.91323   0.92192   0.92607
 Alpha virt. eigenvalues --    0.93081   0.93181   0.93608   0.93982   0.94387
 Alpha virt. eigenvalues --    0.94545   0.94928   0.95248   0.95574   0.95911
 Alpha virt. eigenvalues --    0.97234   0.97657   0.97891   0.98356   0.98727
 Alpha virt. eigenvalues --    0.99002   0.99251   0.99503   1.00482   1.00702
 Alpha virt. eigenvalues --    1.01527   1.01625   1.02442   1.02708   1.03412
 Alpha virt. eigenvalues --    1.04208   1.04442   1.04877   1.05271   1.05949
 Alpha virt. eigenvalues --    1.06437   1.06762   1.07084   1.07477   1.08119
[...]
                 (A) (A) (A) (A) (A) (A) (A) (A) (A) (A) (A) (A)
                 (A) (A) (A) (A) (A) (A) (A) (A) (A) (A) (A) (A)
                 (A) (A) (A) (A) (A) (A) (A) (A) (A) (A) (A) (A)
                 (A) (A) (A) (A) (A) (A) (A) (A) (A) (A) (A) (A)
                 (A) (A) (A) (A) (A) (A) (A) (A) (A) (A) (A) (A)
                 (A) (A) (A) (A) (A) (A) (A) (A) (A) (A) (A) (A)
                 (A) (A) (A) (A) (A) (A) (A) (A) (A) (A) (A) (A)
                 (A) (A) (A) (A) (A) (A) (A) (A) (A) (A) (A) (A)
                 (A) (A) (A) (A) (A) (A) (A) (A) (A) (A) (A) (A)
                 (A) (A) (A) (A) (A) (A) (A) (A) (A) (A) (A) (A)
                 (A) (A) (A) (A) (A) (A) (A) (A) (A) (A) (A) (A)
                 (A) (A) (A) (A) (A) (A) (A) (A) (A) (A) (A) (A)
                 (A) (A) (A) (A) (A) (A) (A) (A) (A) (A) (A) (A)
                 (A) (A) (A) (A) (A) (A) (A) (A) (A) (A) (A) (A)
                 (A) (A) (A) (A) (A) (A) (A) (A) (A) (A) (A) (A)
                 (A) (A) (A) (A) (A) (A) (A) (A) (A) (A) (A) (A)
                 (A) (A) (A) (A) (A) (A) (A) (A) (A) (A) (A) (A)
                 (A) (A) (A) (A) (A) (A) (A) (A) (A) (A) (A) (A)
                 (A) (A) (A) (A) (A) (A) (A) (A) (A) (A) (A) (A)
                 (A) (A) (A) (A) (A) (A) (A) (A) (A) (A) (A) (A)
                 (A) (A) (A) (A) (A) (A) (A) (A) (A) (A) (A) (A)
                 (A) (A) (A) (A) (A) (A) (A) (A) (A) (A) (A) (A)
                 (A) (A) (A) (A) (A) (A) (A) (A) (A) (A) (A) (A)
                 (A) (A) (A) (A) (A) (A) (A) (A) (A) (A) (A) (A)
                 (A) (A) (A) (A) (A) (A) (A) (A) (A) (A) (A) (A)
                 (A) (A) (A) (A) (A) (A) (A) (A) (A) (A) (A) (A)
                 (A) (A) (A) (A) (A) (A) (A) (A) (A) (A) (A) (A)
                 (A) (A) (A) (A) (A) (A) (A) (A) (A) (A) (A) (A)
                 (A) (A) (A) (A) (A) (A) (A) (A) (A) (A) (A) (A)
                 (A) (A) (A) (A) (A) (A) (A) (A) (A) (A) (A) (A)
                 (A) (A) (A) (A) (A) (A) (A) (A) (A) (A) (A) (A)
                 (A) (A) (A) (A) (A) (A) (A) (A) (A) (A) (A) (A)
                 (A) (A) (A) (A) (A) (A)
 The electronic state is 1-A.
 Alpha  occ. eigenvalues --  -19.23439 -14.48957 -14.48413 -14.45696 -14.45306
 Alpha  occ. eigenvalues --  -14.45283 -14.44072 -14.43761 -10.41337 -10.40168
 Alpha  occ. eigenvalues --  -10.37024 -10.35927 -10.34427 -10.34093 -10.33843
 Alpha  occ. eigenvalues --  -10.33246 -10.33075 -10.32612 -10.32547 -10.31641
 Alpha  occ. eigenvalues --  -10.31535 -10.31534 -10.31380 -10.31358 -10.31175
 Alpha  occ. eigenvalues --  -10.31100 -10.31079 -10.30977 -10.30899 -10.30535
 Alpha  occ. eigenvalues --  -10.30517 -10.30422 -10.30192 -10.29882 -10.29377
 Alpha  occ. eigenvalues --  -10.28474 -10.28225  -1.13535  -1.11888  -1.05035
 Alpha  occ. eigenvalues --   -1.04270  -1.04169  -1.03481  -1.00233  -1.00021
 Alpha  occ. eigenvalues --   -0.96308  -0.94450  -0.92158  -0.89073  -0.88021
 Alpha  occ. eigenvalues --   -0.86546  -0.86190  -0.85710  -0.84872  -0.83493
 Alpha  occ. eigenvalues --   -0.82249  -0.79660  -0.78061  -0.77428  -0.75826
 Alpha  occ. eigenvalues --   -0.73657  -0.73018  -0.72929  -0.71937  -0.70978
 Alpha  occ. eigenvalues --   -0.70536  -0.69380  -0.67994  -0.66279  -0.64706
 Alpha  occ. eigenvalues --   -0.63941  -0.62946  -0.62083  -0.60956  -0.59904
 Alpha  occ. eigenvalues --   -0.58438  -0.58088  -0.56889  -0.56754  -0.55899
 Alpha  occ. eigenvalues --   -0.55558  -0.55290  -0.55081  -0.54583  -0.54202
 Alpha  occ. eigenvalues --   -0.54125  -0.53404  -0.53273  -0.52832  -0.52123
 Alpha  occ. eigenvalues --   -0.51545  -0.51212  -0.50995  -0.50807  -0.50494
 Alpha  occ. eigenvalues --   -0.50080  -0.49651  -0.49400  -0.49021  -0.48472
 Alpha  occ. eigenvalues --   -0.47175  -0.47138  -0.46694  -0.46433  -0.45875
 Alpha  occ. eigenvalues --   -0.45491  -0.45099  -0.45020  -0.44169  -0.43780
 Alpha  occ. eigenvalues --   -0.43216  -0.42751  -0.42379  -0.41901  -0.41351
 Alpha  occ. eigenvalues --   -0.41265  -0.40999  -0.39475  -0.37757  -0.36776
 Alpha  occ. eigenvalues --   -0.34866  -0.34520  -0.33645  -0.33346  -0.33144
 Alpha  occ. eigenvalues --   -0.32628  -0.32083  -0.31101  -0.28976  -0.26852
 Alpha  occ. eigenvalues --   -0.25471
 Alpha virt. eigenvalues --    0.00706   0.03320   0.04155   0.04874   0.06186
 Alpha virt. eigenvalues --    0.07862   0.08494   0.10720   0.14458   0.15122
 Alpha virt. eigenvalues --    0.15434   0.16871   0.16911   0.18199   0.19021
 Alpha virt. eigenvalues --    0.19208   0.19813   0.20011   0.20625   0.21079
 Alpha virt. eigenvalues --    0.21664   0.22152   0.22542   0.22950   0.23335
 Alpha virt. eigenvalues --    0.23395   0.23878   0.24062   0.24586   0.24942
 Alpha virt. eigenvalues --    0.25036   0.25384   0.25783   0.26315   0.26472
 Alpha virt. eigenvalues --    0.26892   0.27356   0.28002   0.28303   0.28539
 Alpha virt. eigenvalues --    0.28805   0.28958   0.29313   0.29844   0.30145
 Alpha virt. eigenvalues --    0.31250   0.31445   0.31858   0.32307   0.32589
 Alpha virt. eigenvalues --    0.32905   0.33417   0.33675   0.34275   0.34668
 Alpha virt. eigenvalues --    0.35033   0.35793   0.36796   0.37657   0.38067
 Alpha virt. eigenvalues --    0.38287   0.39053   0.39475   0.40235   0.40602
 Alpha virt. eigenvalues --    0.41249   0.42064   0.42242   0.42595   0.42828
 Alpha virt. eigenvalues --    0.44744   0.44811   0.46327   0.47362   0.47628
 Alpha virt. eigenvalues --    0.48591   0.49830   0.50895   0.53210   0.54437
 Alpha virt. eigenvalues --    0.56132   0.56765   0.57720   0.58081   0.58446
 Alpha virt. eigenvalues --    0.59529   0.59781   0.60144   0.60422   0.60590
 Alpha virt. eigenvalues --    0.61059   0.61557   0.61902   0.62541   0.62979
 Alpha virt. eigenvalues --    0.63064   0.63615   0.63878   0.64382   0.64526
 Alpha virt. eigenvalues --    0.65121   0.65472   0.65715   0.65832   0.66210
 Alpha virt. eigenvalues --    0.66440   0.66757   0.66922   0.67138   0.67489
 Alpha virt. eigenvalues --    0.67934   0.68581   0.69030   0.69140   0.69522
 Alpha virt. eigenvalues --    0.69866   0.70081   0.70702   0.70897   0.71418
 Alpha virt. eigenvalues --    0.71586   0.72201   0.72381   0.72851   0.72887
 Alpha virt. eigenvalues --    0.73547   0.74065   0.74590   0.74852   0.75509
 Alpha virt. eigenvalues --    0.75732   0.75912   0.76673   0.77436   0.78448
 Alpha virt. eigenvalues --    0.78480   0.78980   0.80384   0.80710   0.81516
 Alpha virt. eigenvalues --    0.82647   0.83091   0.83229   0.83559   0.84701
 Alpha virt. eigenvalues --    0.85249   0.85366   0.86251   0.87612   0.88061
 Alpha virt. eigenvalues --    0.88670   0.89243   0.89366   0.89887   0.90652
 Alpha virt. eigenvalues --    0.90852   0.90996   0.91407   0.91950   0.92444
 Alpha virt. eigenvalues --    0.92815   0.93020   0.93161   0.93689   0.93904
 Alpha virt. eigenvalues --    0.94192   0.94462   0.94591   0.94871   0.95168
 Alpha virt. eigenvalues --    0.95635   0.96416   0.96817   0.97292   0.97844
 Alpha virt. eigenvalues --    0.98172   0.98606   0.98803   0.99540   0.99676
 Alpha virt. eigenvalues --    0.99992   1.00412   1.00971   1.01504   1.01995
 Alpha virt. eigenvalues --    1.02258   1.02563   1.03132   1.04296   1.05179
 Alpha virt. eigenvalues --    1.05485   1.05991   1.06131   1.06397   1.06835
 Alpha virt. eigenvalues --    1.07621   1.07833   1.08436   1.08941   1.09132
 Alpha virt. eigenvalues --    1.09240   1.10182   1.10954   1.11258   1.12097
 Alpha virt. eigenvalues --    1.12523   1.13056   1.13448   1.14630   1.14981
 Alpha virt. eigenvalues --    1.16561   1.16899   1.17504   1.18387   1.19823
 Alpha virt. eigenvalues --    1.20444   1.21276   1.22341   1.22544   1.23559
 Alpha virt. eigenvalues --    1.24606   1.25495   1.26966   1.27367   1.28076
 Alpha virt. eigenvalues --    1.29237   1.30227   1.30657   1.31890   1.32046
 Alpha virt. eigenvalues --    1.33334   1.33909   1.34600   1.35303   1.36358
 Alpha virt. eigenvalues --    1.36923   1.37160   1.38230   1.38616   1.39637
 Alpha virt. eigenvalues --    1.40996   1.41436   1.43049   1.44150   1.44352
 Alpha virt. eigenvalues --    1.45917   1.46919   1.47537   1.49028   1.49534
 Alpha virt. eigenvalues --    1.49653   1.50242   1.50534   1.51248   1.51764
 Alpha virt. eigenvalues --    1.53069   1.53592   1.54072   1.54652   1.54803
 Alpha virt. eigenvalues --    1.55451   1.56094   1.56708   1.57182   1.57525
 Alpha virt. eigenvalues --    1.57872   1.58290   1.58847   1.59551   1.59788
 Alpha virt. eigenvalues --    1.60106   1.61558   1.61681   1.62448   1.63735
 Alpha virt. eigenvalues --    1.64201   1.65184   1.66081   1.66614   1.67738
 Alpha virt. eigenvalues --    1.69140   1.69986   1.72255   1.74779   1.76765
 Alpha virt. eigenvalues --    1.79338   1.79839   1.81498   1.81919   1.83580
 Alpha virt. eigenvalues --    1.84814   1.85209   1.86989   1.87283   1.88178
 Alpha virt. eigenvalues --    1.88696   1.89109   1.89958   1.90656   1.91371
 Alpha virt. eigenvalues --    1.91704   1.92542   1.93082   1.93707   1.94209
 Alpha virt. eigenvalues --    1.94417   1.95268   1.95907   1.96917   1.98453
 Alpha virt. eigenvalues --    1.98607   1.99750   2.00144   2.00311   2.00609
 Alpha virt. eigenvalues --    2.01402   2.02424   2.02804   2.03203   2.04462
 Alpha virt. eigenvalues --    2.05238   2.06559   2.06816   2.07576   2.08059
 Alpha virt. eigenvalues --    2.08149   2.09034   2.09198   2.10120   2.11607
 Alpha virt. eigenvalues --    2.11925   2.12660   2.13726   2.13989   2.14855
 Alpha virt. eigenvalues --    2.15501   2.16998   2.17045   2.19560   2.20636
 Alpha virt. eigenvalues --    2.20862   2.21625   2.22312   2.22399   2.22648
 Alpha virt. eigenvalues --    2.23514   2.23708   2.24032   2.24682   2.25364
 Alpha virt. eigenvalues --    2.25694   2.26640   2.26845   2.27016   2.27186
 Alpha virt. eigenvalues --    2.28863   2.29653   2.30256   2.31785   2.33162
 Alpha virt. eigenvalues --    2.34751   2.35580   2.36109   2.36228   2.36938
 Alpha virt. eigenvalues --    2.38155   2.38538   2.38898   2.39693   2.40306
 Alpha virt. eigenvalues --    2.40520   2.41264   2.42073   2.42757   2.43266
 Alpha virt. eigenvalues --    2.44063   2.44098   2.45167   2.45226   2.45935
 Alpha virt. eigenvalues --    2.46616   2.47404   2.48574   2.49492   2.50014
 Alpha virt. eigenvalues --    2.50443   2.50567   2.52402   2.53923   2.56340
 Alpha virt. eigenvalues --    2.57296   2.60171   2.60373   2.62162   2.62978
 Alpha virt. eigenvalues --    2.64888   2.65541   2.66621   2.67887   2.68715
 Alpha virt. eigenvalues --    2.69571   2.70574   2.71448   2.72163   2.73315
 Alpha virt. eigenvalues --    2.73994   2.74618   2.75532   2.76515   2.77343
 Alpha virt. eigenvalues --    2.77691   2.78102   2.79380   2.80297   2.82492
 Alpha virt. eigenvalues --    2.82929   2.83512   2.83731   2.84737   2.85662
 Alpha virt. eigenvalues --    2.86317   2.86676   2.87298   2.88203   2.88607
 Alpha virt. eigenvalues --    2.89797   2.91705   2.92472   2.93878   2.94800
 Alpha virt. eigenvalues --    2.95187   2.96197   2.97773   3.00683   3.03894
 Alpha virt. eigenvalues --    3.04618   3.07374   3.09387   3.10656   3.12196
 Alpha virt. eigenvalues --    3.19435   3.26897   3.29212   3.39228   3.41807
 Alpha virt. eigenvalues --    3.45907   3.53361   3.56841   3.57733   4.12238
 Alpha virt. eigenvalues --    4.14279   4.15910   4.18186   4.18843   4.19144
 Alpha virt. eigenvalues --    4.20669   4.21188   4.22211   4.23262   4.25519
 Alpha virt. eigenvalues --    4.26524   4.27790   4.29092   4.31344   4.32659
 Alpha virt. eigenvalues --    4.34117   4.34701   4.37296   4.39924   4.40741
 Alpha virt. eigenvalues --    4.41516   4.44687   4.45997   4.48550   4.49661
 Alpha virt. eigenvalues --    4.50793   4.52738   4.57555   4.60086   4.62702
 Alpha virt. eigenvalues --    4.64575   4.67284   4.68799   4.79576   4.84564
 Alpha virt. eigenvalues --    4.89809
          Condensed to atoms (all electrons):
 Mulliken atomic charges:
              1
     1  C   -0.199496
     2  C   -0.155054
     3  C    0.036340
     4  C    0.012724
     5  N   -0.444136
     6  C    0.017237
     7  C    0.283237
     8  C   -0.257137
     9  C    0.048414
    10  N   -0.495662
    11  C    0.713286
    12  N   -0.560485
    13  N   -0.805989
    14  C    0.285067
    15  C    0.120375
    16  C   -0.241654
    17  C   -0.189254
    18  C    0.360195
    19  C   -0.264082
    20  N   -0.767580
    21  C    0.587523
    22  C    0.012566
    23  C   -0.196496
    24  C   -0.213036
    25  C    0.155458
    26  C   -0.224196
    27  C   -0.176492
    28  C   -0.266306
    29  N   -0.382408
    30  C   -0.182647
    31  C   -0.188997
    32  N   -0.397956
    33  C   -0.351828
    34  C   -0.181911
    35  C   -0.186221
    36  O   -0.512192
    37  C   -0.608186
    38  H    0.179100
    39  H    0.181734
    40  H    0.181287
    41  H    0.219811
    42  H    0.181318
    43  H    0.187576
    44  H    0.368458
    45  H    0.159551
    46  H    0.211378
    47  H    0.204559
    48  H    0.365223
    49  H    0.175791
    50  H    0.165871
    51  H    0.164412
    52  H    0.197155
    53  H    0.172215
    54  H    0.169411
    55  H    0.155283
    56  H    0.158113
    57  H    0.152029
    58  H    0.188214
    59  H    0.144407
    60  H    0.164073
    61  H    0.167977
    62  H    0.154412
    63  H    0.179126
    64  H    0.158942
    65  H    0.158671
    66  H    0.182257
    67  H    0.178641
    68  H    0.189978
 Sum of Mulliken atomic charges =   0.00000
 Mulliken charges with hydrogens summed into heavy atoms:
              1
     1  C   -0.020395
     2  C    0.026680
     3  C    0.036340
     4  C    0.194011
     5  N   -0.444136
     6  C    0.237048
     7  C    0.283237
     8  C   -0.075819
     9  C    0.235991
    10  N   -0.495662
    11  C    0.713286
    12  N   -0.560485
    13  N   -0.437531
    14  C    0.285067
    15  C    0.120375
    16  C   -0.082103
    17  C    0.022124
    18  C    0.360195
    19  C   -0.059523
    20  N   -0.402357
    21  C    0.587523
    22  C    0.012566
    23  C   -0.020705
    24  C   -0.047165
    25  C    0.155458
    26  C   -0.059783
    27  C    0.020662
    28  C    0.075320
    29  N   -0.382408
    30  C    0.130749
    31  C    0.151246
    32  N   -0.397956
    33  C    0.124630
    34  C    0.151627
    35  C    0.131392
    36  O   -0.512192
    37  C   -0.057311
 Sum of Mulliken charges with hydrogens summed into heavy atoms =   0.00000
 Electronic spatial extent (au):  <R**2>=          21982.8889
 Charge=              0.0000 electrons
 Dipole moment (field-independent basis, Debye):
    X=              0.5681    Y=              5.6429    Z=              0.0942  Tot=              5.6722
 Quadrupole moment (field-independent basis, Debye-Ang):
   XX=           -192.4539   YY=           -209.0487   ZZ=           -212.4545
   XY=             -1.8658   XZ=             -2.2623   YZ=             -4.4445
 Traceless Quadrupole moment (field-independent basis, Debye-Ang):
   XX=             12.1985   YY=             -4.3964   ZZ=             -7.8021
   XY=             -1.8658   XZ=             -2.2623   YZ=             -4.4445
 Octapole moment (field-independent basis, Debye-Ang**2):
  XXX=            -68.1349  YYY=            195.4446  ZZZ=              1.2593  XYY=            -35.7851
  XXY=            -15.2775  XXZ=            -29.3892  XZZ=             39.9708  YZZ=              2.1904
  YYZ=            -22.1732  XYZ=              2.2252
 Hexadecapole moment (field-independent basis, Debye-Ang**3):
 XXXX=         -19769.2338 YYYY=          -8602.3495 ZZZZ=           -874.8749 XXXY=            321.4087
 XXXZ=            -79.9317 YYYX=           -152.9618 YYYZ=            -96.7545 ZZZX=             -0.8297
 ZZZY=             -0.9960 XXYY=          -4334.4804 XXZZ=          -3472.0994 YYZZ=          -1631.7921
 XXYZ=             68.4786 YYXZ=            -36.1525 ZZXY=             -7.4037
 N-N= 3.869678005087D+03 E-N=-1.141139784596D+04  KE= 1.567152508409D+03
 No NMR shielding tensors so no spin-rotation constants.
 Leave Link  601 at Wed Mar  4 10:23:19 2020, MaxMem= 2684354560 cpu:       3.5
 (Enter /opt/g09gh/gaussian/g09/l9999.exe)
 1\1\GINC-NODE35\FOpt\RwB97XD\6-31G(d)\C29H31N7O1\BDW2292\04-Mar-2020\0
 \\#P opt=(,maxcycle=400) wB97XD/6-31G* MaxDisk=100GB\\MOLECULE0 Rotata
 ble Bond Optimization on node37.bme.utexas.edu\\0,1\C,-0.652370507,3.5
 828389115,2.64078484\C,0.7139125212,3.6964483808,2.4129902585\C,1.2722
 235011,3.0268564661,1.3258622307\C,0.4015286631,2.3112749663,0.4944979
 568\N,-0.9060835545,2.1896370864,0.7021700655\C,-1.4172542719,2.802139
 9641,1.7782899375\C,2.7319999486,2.9702764538,1.076841949\C,3.62387935
 97,3.9906586406,1.3949839355\C,4.9668607892,3.7368697742,1.120022685\N
 ,5.4127809193,2.5998904177,0.6007496652\C,4.4654124571,1.680108998,0.3
 291170615\N,3.1570779336,1.8285139406,0.5295532996\N,4.9385321454,0.50
 17637672,-0.1831266154\C,4.2684567137,-0.7039963872,-0.4619765893\C,5.
 0454738751,-1.8572285685,-0.695999325\C,4.3740664093,-3.0476885918,-0.
 9590620829\C,2.9853434289,-3.15173676,-0.9997399365\C,2.2394217038,-1.
 9977668306,-0.7761376655\C,2.881328199,-0.7873477518,-0.5182886021\N,0
 .8337384503,-1.9333006674,-0.8101446118\C,-0.080003464,-2.9543945509,-
 0.8401078009\C,-1.50488768,-2.4767622358,-0.8831900628\C,-1.8881021881
 ,-1.3227664929,-1.5729196073\C,-3.2219254989,-0.9387132932,-1.60919433
 56\C,-4.199678087,-1.6762236265,-0.939387571\C,-3.8082020657,-2.833039
 2878,-0.261250115\C,-2.4794583678,-3.239595271,-0.2418131648\C,-5.6584
 791909,-1.2431959603,-0.9565895198\N,-6.0754693198,-0.1957555171,-0.04
 24098449\C,-5.7897735592,1.1901261295,-0.3897295494\C,-4.5251265903,1.
 7593129993,0.2730784781\N,-4.4965741746,1.5390367625,1.7196753504\C,-5
 .411078311,2.3890712654,2.4643947196\C,-4.6566995668,0.1114786393,1.99
 65259172\C,-5.9386145202,-0.4716070062,1.3812858231\O,0.2085774671,-4.
 1394760718,-0.8238493578\C,6.5518103594,-1.8103165843,-0.6518483216\H,
 -1.1174459563,4.0682954825,3.4924157435\H,1.3438799231,4.2598558637,3.
 096279808\H,0.8007777978,1.8155642425,-0.3871907078\H,-2.4777144103,2.
 6239688547,1.9569136455\H,3.3011216767,4.937762063,1.8100011664\H,5.72
 33955716,4.4897914063,1.3317460999\H,5.9447416101,0.494372978,-0.25659
 59947\H,4.963481839,-3.944227116,-1.1342932795\H,2.4958740644,-4.09679
 39833,-1.1884551845\H,2.2984888999,0.0994466286,-0.3249109466\H,0.4525
 126622,-1.0130027057,-0.6430697812\H,-1.1536720546,-0.7414537459,-2.12
 37112642\H,-3.5083846845,-0.0567188375,-2.177100323\H,-4.559142458,-3.
 4333910405,0.2475051821\H,-2.1803670762,-4.1526408913,0.2630618489\H,-
 5.9192610864,-0.9134197279,-1.9693641276\H,-6.2788251349,-2.1250588139
 ,-0.7486671052\H,-5.7139532896,1.2737094766,-1.4795148189\H,-6.6534496
 469,1.8023476484,-0.0879241137\H,-4.4527860296,2.836844046,0.080507908
 8\H,-3.624406134,1.2933644356,-0.141516903\H,-6.4813111105,2.249698434
 1,2.2373141653\H,-5.163670985,3.4380564204,2.2655034844\H,-5.272174709
 8,2.2066981717,3.5356266847\H,-4.6550523094,-0.0414873668,3.0825452959
 \H,-3.7809006716,-0.4047540499,1.5853685099\H,-6.8129302435,-0.0534057
 276,1.9027254882\H,-5.9696921357,-1.5556058947,1.5361918541\H,6.923877
 092,-1.4711115728,0.3237676839\H,6.9678262283,-1.1410601895,-1.4171928
 386\H,6.9734188345,-2.8023335971,-0.8323256752\\Version=EM64L-G09RevA.
 02\State=1-A\HF=-1581.763812\RMSD=4.839e-09\RMSF=3.772e-06\Dipole=-0.2
 585329,2.0487201,0.8461922\Quadrupole=8.7933588,-5.8797841,-2.9135747,
 2.5966134,-1.6393141,3.056496\PG=C01 [X(C29H31N7O1)]\\@


 A true friend is someone who is there for
 you when he'd rather be anywhere else.
                               -- Len Wein
 Job cpu time:  0 days 22 hours 57 minutes 24.3 seconds.
 File lengths (MBytes):  RWF=    244 Int=      0 D2E=      0 Chk=     25 Scr=      1
 Normal termination of Gaussian 09 at Wed Mar  4 10:23:20 2020.
