 Entering Gaussian System, Link 0=g09
 Input=MOLECULE0-opt-22-21-20-18-140.com
 Output=MOLECULE0-opt-22-21-20-18-140.log
 Initial command:
 /opt/g09gh/gaussian/g09/l1.exe /scratch/bdw2292/Gau-MOLECULE0/Gau-76929.inp -scrdir=/scratch/bdw2292/Gau-MOLECULE0/
 Entering Link 1 = /opt/g09gh/gaussian/g09/l1.exe PID=     76930.
  
 Copyright (c) 1988,1990,1992,1993,1995,1998,2003,2009, Gaussian, Inc.
                  All Rights Reserved.
  
 This is part of the Gaussian(R) 09 program.  It is based on
 the Gaussian(R) 03 system (copyright 2003, Gaussian, Inc.),
 the Gaussian(R) 98 system (copyright 1998, Gaussian, Inc.),
 the Gaussian(R) 94 system (copyright 1995, Gaussian, Inc.),
 the Gaussian 92(TM) system (copyright 1992, Gaussian, Inc.),
 the Gaussian 90(TM) system (copyright 1990, Gaussian, Inc.),
 the Gaussian 88(TM) system (copyright 1988, Gaussian, Inc.),
 the Gaussian 86(TM) system (copyright 1986, Carnegie Mellon
 University), and the Gaussian 82(TM) system (copyright 1983,
 Carnegie Mellon University). Gaussian is a federally registered
 trademark of Gaussian, Inc.
  
 This software contains proprietary and confidential information,
 including trade secrets, belonging to Gaussian, Inc.
  
 This software is provided under written license and may be
 used, copied, transmitted, or stored only in accord with that
 written license.
  
 The following legend is applicable only to US Government
 contracts under FAR:
  
                    RESTRICTED RIGHTS LEGEND
  
 Use, reproduction and disclosure by the US Government is
 subject to restrictions as set forth in subparagraphs (a)
 and (c) of the Commercial Computer Software - Restricted
 Rights clause in FAR 52.227-19.
  
 Gaussian, Inc.
 340 Quinnipiac St., Bldg. 40, Wallingford CT 06492
  
  
 ---------------------------------------------------------------
 Warning -- This program may not be used in any manner that
 competes with the business of Gaussian, Inc. or will provide
 assistance to any competitor of Gaussian, Inc.  The licensee
 of this program is prohibited from giving any competitor of
 Gaussian, Inc. access to this program.  By using this program,
 the user acknowledges that Gaussian, Inc. is engaged in the
 business of creating and licensing software in the field of
 computational chemistry and represents and warrants to the
 licensee that it is not a competitor of Gaussian, Inc. and that
 it will not use this program in any manner prohibited above.
 ---------------------------------------------------------------
  

 Cite this work as:
 Gaussian 09, Revision A.02,
 M. J. Frisch, G. W. Trucks, H. B. Schlegel, G. E. Scuseria, 
 M. A. Robb, J. R. Cheeseman, G. Scalmani, V. Barone, B. Mennucci, 
 G. A. Petersson, H. Nakatsuji, M. Caricato, X. Li, H. P. Hratchian, 
 A. F. Izmaylov, J. Bloino, G. Zheng, J. L. Sonnenberg, M. Hada, 
 M. Ehara, K. Toyota, R. Fukuda, J. Hasegawa, M. Ishida, T. Nakajima, 
 Y. Honda, O. Kitao, H. Nakai, T. Vreven, J. A. Montgomery, Jr., 
 J. E. Peralta, F. Ogliaro, M. Bearpark, J. J. Heyd, E. Brothers, 
 K. N. Kudin, V. N. Staroverov, R. Kobayashi, J. Normand, 
 K. Raghavachari, A. Rendell, J. C. Burant, S. S. Iyengar, J. Tomasi, 
 M. Cossi, N. Rega, J. M. Millam, M. Klene, J. E. Knox, J. B. Cross, 
 V. Bakken, C. Adamo, J. Jaramillo, R. Gomperts, R. E. Stratmann, 
 O. Yazyev, A. J. Austin, R. Cammi, C. Pomelli, J. W. Ochterski, 
 R. L. Martin, K. Morokuma, V. G. Zakrzewski, G. A. Voth, 
 P. Salvador, J. J. Dannenberg, S. Dapprich, A. D. Daniels, 
 O. Farkas, J. B. Foresman, J. V. Ortiz, J. Cioslowski, 
 and D. J. Fox, Gaussian, Inc., Wallingford CT, 2009.
 
 ******************************************
 Gaussian 09:  EM64L-G09RevA.02 11-Jun-2009
                 4-Mar-2020 
 ******************************************
 %RWF=/scratch/bdw2292/Gau-MOLECULE0/,100GB
 %Nosave
 %Chk=MOLECULE0-opt-22-21-20-18-140.chk
 %Mem=20GB
 %Nproc=6
 Will use up to    6 processors via shared memory.
 --------------------------------------------------
 #P opt=(,maxcycle=400) wB97XD/6-31G* MaxDisk=100GB
 --------------------------------------------------
 1/6=400,14=-1,18=20,19=15,26=3,38=1/1,3;
 2/9=110,12=2,17=6,18=5,40=1/2;
 3/5=1,6=6,7=1,11=2,16=1,25=1,30=1,71=1,74=-58/1,2,3;
 4//1;
 5/5=2,38=5/2;
 6/7=2,8=2,9=2,10=2,28=1/1;
 7//1,2,3,16;
 1/6=400,14=-1,18=20,19=15/3(2);
 2/9=110/2;
 99//99;
 2/9=110/2;
 3/5=1,6=6,7=1,11=2,16=1,25=1,30=1,71=1,74=-58/1,2,3;
 4/5=5,16=3/1;
 5/5=2,38=5/2;
 7//1,2,3,16;
 1/6=400,14=-1,18=20,19=15/3(-5);
 2/9=110/2;
 6/7=2,8=2,9=2,10=2,19=2,28=1/1;
 99/9=1/99;
 Leave Link    1 at Wed Mar  4 06:35:30 2020, MaxMem= 2684354560 cpu:       0.4
 (Enter /opt/g09gh/gaussian/g09/l101.exe)
 --------------------------------------------------------------
 MOLECULE0 Rotatable Bond Optimization on node37.bme.utexas.edu
 --------------------------------------------------------------
 Symbolic Z-matrix:
 Charge =  0 Multiplicity = 1
 C                     3.52441   2.46374  -4.78128 
 C                     4.38201   2.49292  -3.6732 
 C                     4.19811   1.58167  -2.61341 
 C                     3.13039   0.6643   -2.77187 
 N                     2.30112   0.62036  -3.82201 
 C                     2.49966   1.51152  -4.80455 
 C                     5.06257   1.55718  -1.37652 
 C                     6.17367   2.38578  -1.15006 
 C                     6.83394   2.19749   0.06829 
 N                     6.46706   1.31547   0.99266 
 C                     5.37971   0.57136   0.69855 
 N                     4.68458   0.66452  -0.43906 
 N                     5.00502  -0.32916   1.68403 
 C                     3.98754  -1.3461    1.77737 
 C                     4.09605  -2.34528   2.79264 
 C                     3.08329  -3.31676   2.84854 
 C                     1.9945   -3.35923   1.97109 
 C                     1.89545  -2.36731   0.98911 
 C                     2.89318  -1.38206   0.90366 
 N                     0.85123  -2.27523   0.01636 
 C                    -0.15463  -3.16112  -0.27938 
 C                    -1.52668  -2.59259  -0.58164 
 C                    -1.73368  -1.37864  -1.25699 
 C                    -3.02775  -0.90387  -1.47954 
 C                    -4.15812  -1.62019  -1.04413 
 C                    -3.9377   -2.84226  -0.38058 
 C                    -2.64705  -3.33095  -0.1651 
 C                    -5.56801  -1.05849  -1.23245 
 N                    -6.08816  -0.09284  -0.24713 
 C                    -5.58003   1.29742  -0.26978 
 C                    -4.40046   1.56758   0.69963 
 N                    -4.67184   1.17797   2.1029 
 C                    -5.43401   2.13289   2.91656 
 C                    -5.13422  -0.23129   2.12985 
 C                    -6.29543  -0.54281   1.14901 
 O                     0.02533  -4.36727  -0.28762 
 C                     5.24116  -2.41132   3.78909 
 H                     3.64454   3.16126  -5.60504 
 H                     5.17096   3.2406   -3.65616 
 H                     2.94678  -0.08944  -2.01426 
 H                     1.8106    1.45336  -5.64563 
 H                     6.53304   3.12684  -1.85327 
 H                     7.71072   2.79513   0.31612 
 H                     5.66427  -0.28074   2.44635 
 H                     3.1392   -4.10172   3.60196 
 H                     1.25308  -4.14705   2.0347 
 H                     2.82734  -0.61523   0.14794 
 H                     0.90828  -1.47004  -0.58995 
 H                    -0.88165  -0.80643  -1.61374 
 H                    -3.15309   0.04776  -1.99608 
 H                    -4.78326  -3.42542  -0.01635 
 H                    -2.48683  -4.27709   0.34559 
 H                    -5.62112  -0.57488  -2.21863 
 H                    -6.27744  -1.89834  -1.25489 
 H                    -5.37504   1.60578  -1.25539 
 H                    -6.75378   2.21321   0.2427 
 H                    -4.13236   3.04392   0.66267 
 H                    -3.45254   1.03331   0.36243 
 H                    -6.45642   2.24509   2.53843 
 H                    -4.94344   3.11287   2.90785 
 H                    -5.47879   1.79035   3.95684 
 H                    -5.38244  -0.51472   3.15526 
 H                    -3.95897  -1.07806   1.70353 
 H                    -7.53449   0.25455   1.70706 
 H                    -6.57492  -1.63815   1.17295 
 H                     5.25617  -1.52731   4.44226 
 H                     6.21432  -2.4645    3.28073 
 H                     5.18606  -3.28811   4.44903 
 
 NAtoms=     68 NQM=     68 NQMF=      0 NMic=      0 NMicF=      0 NTot=     68.
                    Isotopes and Nuclear Properties:
 (Nuclear quadrupole moments (NQMom) in fm**2, nuclear magnetic moments (NMagM)
  in nuclear magnetons)

  Atom         1           2           3           4           5           6           7           8           9          10
 IAtWgt=          12          12          12          12          14          12          12          12          12          14
 AtmWgt=  12.0000000  12.0000000  12.0000000  12.0000000  14.0030740  12.0000000  12.0000000  12.0000000  12.0000000  14.0030740
 NucSpn=           0           0           0           0           2           0           0           0           0           2
 AtZEff=   0.0000000   0.0000000   0.0000000   0.0000000   0.0000000   0.0000000   0.0000000   0.0000000   0.0000000   0.0000000
 NQMom=    0.0000000   0.0000000   0.0000000   0.0000000   2.0440000   0.0000000   0.0000000   0.0000000   0.0000000   2.0440000
 NMagM=    0.0000000   0.0000000   0.0000000   0.0000000   0.4037610   0.0000000   0.0000000   0.0000000   0.0000000   0.4037610

  Atom        11          12          13          14          15          16          17          18          19          20
 IAtWgt=          12          14          14          12          12          12          12          12          12          14
 AtmWgt=  12.0000000  14.0030740  14.0030740  12.0000000  12.0000000  12.0000000  12.0000000  12.0000000  12.0000000  14.0030740
 NucSpn=           0           2           2           0           0           0           0           0           0           2
 AtZEff=   0.0000000   0.0000000   0.0000000   0.0000000   0.0000000   0.0000000   0.0000000   0.0000000   0.0000000   0.0000000
 NQMom=    0.0000000   2.0440000   2.0440000   0.0000000   0.0000000   0.0000000   0.0000000   0.0000000   0.0000000   2.0440000
 NMagM=    0.0000000   0.4037610   0.4037610   0.0000000   0.0000000   0.0000000   0.0000000   0.0000000   0.0000000   0.4037610

  Atom        21          22          23          24          25          26          27          28          29          30
 IAtWgt=          12          12          12          12          12          12          12          12          14          12
 AtmWgt=  12.0000000  12.0000000  12.0000000  12.0000000  12.0000000  12.0000000  12.0000000  12.0000000  14.0030740  12.0000000
 NucSpn=           0           0           0           0           0           0           0           0           2           0
 AtZEff=   0.0000000   0.0000000   0.0000000   0.0000000   0.0000000   0.0000000   0.0000000   0.0000000   0.0000000   0.0000000
 NQMom=    0.0000000   0.0000000   0.0000000   0.0000000   0.0000000   0.0000000   0.0000000   0.0000000   2.0440000   0.0000000
 NMagM=    0.0000000   0.0000000   0.0000000   0.0000000   0.0000000   0.0000000   0.0000000   0.0000000   0.4037610   0.0000000

  Atom        31          32          33          34          35          36          37          38          39          40
 IAtWgt=          12          14          12          12          12          16          12           1           1           1
 AtmWgt=  12.0000000  14.0030740  12.0000000  12.0000000  12.0000000  15.9949146  12.0000000   1.0078250   1.0078250   1.0078250
 NucSpn=           0           2           0           0           0           0           0           1           1           1
 AtZEff=   0.0000000   0.0000000   0.0000000   0.0000000   0.0000000   0.0000000   0.0000000   0.0000000   0.0000000   0.0000000
 NQMom=    0.0000000   2.0440000   0.0000000   0.0000000   0.0000000   0.0000000   0.0000000   0.0000000   0.0000000   0.0000000
 NMagM=    0.0000000   0.4037610   0.0000000   0.0000000   0.0000000   0.0000000   0.0000000   2.7928460   2.7928460   2.7928460

  Atom        41          42          43          44          45          46          47          48          49          50
 IAtWgt=           1           1           1           1           1           1           1           1           1           1
 AtmWgt=   1.0078250   1.0078250   1.0078250   1.0078250   1.0078250   1.0078250   1.0078250   1.0078250   1.0078250   1.0078250
 NucSpn=           1           1           1           1           1           1           1           1           1           1
 AtZEff=   0.0000000   0.0000000   0.0000000   0.0000000   0.0000000   0.0000000   0.0000000   0.0000000   0.0000000   0.0000000
 NQMom=    0.0000000   0.0000000   0.0000000   0.0000000   0.0000000   0.0000000   0.0000000   0.0000000   0.0000000   0.0000000
 NMagM=    2.7928460   2.7928460   2.7928460   2.7928460   2.7928460   2.7928460   2.7928460   2.7928460   2.7928460   2.7928460

  Atom        51          52          53          54          55          56          57          58          59          60
 IAtWgt=           1           1           1           1           1           1           1           1           1           1
 AtmWgt=   1.0078250   1.0078250   1.0078250   1.0078250   1.0078250   1.0078250   1.0078250   1.0078250   1.0078250   1.0078250
 NucSpn=           1           1           1           1           1           1           1           1           1           1
 AtZEff=   0.0000000   0.0000000   0.0000000   0.0000000   0.0000000   0.0000000   0.0000000   0.0000000   0.0000000   0.0000000
 NQMom=    0.0000000   0.0000000   0.0000000   0.0000000   0.0000000   0.0000000   0.0000000   0.0000000   0.0000000   0.0000000
 NMagM=    2.7928460   2.7928460   2.7928460   2.7928460   2.7928460   2.7928460   2.7928460   2.7928460   2.7928460   2.7928460

  Atom        61          62          63          64          65          66          67          68
 IAtWgt=           1           1           1           1           1           1           1           1
 AtmWgt=   1.0078250   1.0078250   1.0078250   1.0078250   1.0078250   1.0078250   1.0078250   1.0078250
 NucSpn=           1           1           1           1           1           1           1           1
 AtZEff=   0.0000000   0.0000000   0.0000000   0.0000000   0.0000000   0.0000000   0.0000000   0.0000000
 NQMom=    0.0000000   0.0000000   0.0000000   0.0000000   0.0000000   0.0000000   0.0000000   0.0000000
 NMagM=    2.7928460   2.7928460   2.7928460   2.7928460   2.7928460   2.7928460   2.7928460   2.7928460
 Leave Link  101 at Wed Mar  4 06:35:31 2020, MaxMem= 2684354560 cpu:       0.8
 (Enter /opt/g09gh/gaussian/g09/l103.exe)

 GradGradGradGradGradGradGradGradGradGradGradGradGradGradGradGradGradGrad
 Berny optimization.
 Initialization pass.
                           ----------------------------
                           !    Initial Parameters    !
                           ! (Angstroms and Degrees)  !
 --------------------------                            --------------------------
 ! Name  Definition              Value          Derivative Info.                !
 --------------------------------------------------------------------------------
 ! R1    R(1,2)                  1.4015         estimate D2E/DX2                !
 ! R2    R(1,6)                  1.3991         estimate D2E/DX2                !
 ! R3    R(1,38)                 1.0861         estimate D2E/DX2                !
 ! R4    R(2,3)                  1.4097         estimate D2E/DX2                !
 ! R5    R(2,39)                 1.0871         estimate D2E/DX2                !
 ! R6    R(3,4)                  1.4166         estimate D2E/DX2                !
 ! R7    R(3,7)                  1.5092         estimate D2E/DX2                !
 ! R8    R(4,5)                  1.3388         estimate D2E/DX2                !
 ! R9    R(4,40)                 1.0843         estimate D2E/DX2                !
 ! R10   R(5,6)                  1.3413         estimate D2E/DX2                !
 ! R11   R(6,41)                 1.0889         estimate D2E/DX2                !
 ! R12   R(7,8)                  1.4044         estimate D2E/DX2                !
 ! R13   R(7,12)                 1.3485         estimate D2E/DX2                !
 ! R14   R(8,9)                  1.3985         estimate D2E/DX2                !
 ! R15   R(8,42)                 1.083          estimate D2E/DX2                !
 ! R16   R(9,10)                 1.3293         estimate D2E/DX2                !
 ! R17   R(9,43)                 1.0897         estimate D2E/DX2                !
 ! R18   R(10,11)                1.35           estimate D2E/DX2                !
 ! R19   R(11,12)                1.3364         estimate D2E/DX2                !
 ! R20   R(11,13)                1.3865         estimate D2E/DX2                !
 ! R21   R(13,14)                1.4416         estimate D2E/DX2                !
 ! R22   R(13,44)                1.009          estimate D2E/DX2                !
 ! R23   R(14,15)                1.4286         estimate D2E/DX2                !
 ! R24   R(14,19)                1.4008         estimate D2E/DX2                !
 ! R25   R(15,16)                1.4045         estimate D2E/DX2                !
 ! R26   R(15,37)                1.5194         estimate D2E/DX2                !
 ! R27   R(16,17)                1.399          estimate D2E/DX2                !
 ! R28   R(16,45)                1.0895         estimate D2E/DX2                !
 ! R29   R(17,18)                1.3993         estimate D2E/DX2                !
 ! R30   R(17,46)                1.0837         estimate D2E/DX2                !
 ! R31   R(18,19)                1.4048         estimate D2E/DX2                !
 ! R32   R(18,20)                1.4301         estimate D2E/DX2                !
 ! R33   R(19,47)                1.0786         estimate D2E/DX2                !
 ! R34   R(20,21)                1.3726         estimate D2E/DX2                !
 ! R35   R(20,48)                1.0095         estimate D2E/DX2                !
 ! R36   R(21,22)                1.5156         estimate D2E/DX2                !
 ! R37   R(21,36)                1.2195         estimate D2E/DX2                !
 ! R38   R(22,23)                1.4045         estimate D2E/DX2                !
 ! R39   R(22,27)                1.405          estimate D2E/DX2                !
 ! R40   R(23,24)                1.3963         estimate D2E/DX2                !
 ! R41   R(23,49)                1.0866         estimate D2E/DX2                !
 ! R42   R(24,25)                1.4073         estimate D2E/DX2                !
 ! R43   R(24,50)                1.09           estimate D2E/DX2                !
 ! R44   R(25,26)                1.408          estimate D2E/DX2                !
 ! R45   R(25,28)                1.5293         estimate D2E/DX2                !
 ! R46   R(26,27)                1.3968         estimate D2E/DX2                !
 ! R47   R(26,51)                1.0898         estimate D2E/DX2                !
 ! R48   R(27,52)                1.087          estimate D2E/DX2                !
 ! R49   R(28,29)                1.4744         estimate D2E/DX2                !
 ! R50   R(28,53)                1.0997         estimate D2E/DX2                !
 ! R51   R(28,54)                1.0996         estimate D2E/DX2                !
 ! R52   R(29,30)                1.4804         estimate D2E/DX2                !
 ! R53   R(29,35)                1.4814         estimate D2E/DX2                !
 ! R54   R(30,31)                1.5505         estimate D2E/DX2                !
 ! R55   R(30,55)                1.0529         estimate D2E/DX2                !
 ! R56   R(30,56)                1.5745         estimate D2E/DX2                !
 ! R57   R(31,32)                1.4814         estimate D2E/DX2                !
 ! R58   R(31,57)                1.5009         estimate D2E/DX2                !
 ! R59   R(31,58)                1.1392         estimate D2E/DX2                !
 ! R60   R(32,33)                1.4679         estimate D2E/DX2                !
 ! R61   R(32,34)                1.4834         estimate D2E/DX2                !
 ! R62   R(33,59)                1.0959         estimate D2E/DX2                !
 ! R63   R(33,60)                1.0959         estimate D2E/DX2                !
 ! R64   R(33,61)                1.0961         estimate D2E/DX2                !
 ! R65   R(34,35)                1.5516         estimate D2E/DX2                !
 ! R66   R(34,62)                1.0924         estimate D2E/DX2                !
 ! R67   R(34,63)                1.51           estimate D2E/DX2                !
 ! R68   R(35,64)                1.5756         estimate D2E/DX2                !
 ! R69   R(35,65)                1.1307         estimate D2E/DX2                !
 ! R70   R(37,66)                1.0992         estimate D2E/DX2                !
 ! R71   R(37,67)                1.0992         estimate D2E/DX2                !
 ! R72   R(37,68)                1.0988         estimate D2E/DX2                !
 ! A1    A(2,1,6)              118.3933         estimate D2E/DX2                !
 ! A2    A(2,1,38)             121.2405         estimate D2E/DX2                !
 ! A3    A(6,1,38)             120.3661         estimate D2E/DX2                !
 ! A4    A(1,2,3)              120.0722         estimate D2E/DX2                !
 ! A5    A(1,2,39)             118.0867         estimate D2E/DX2                !
 ! A6    A(3,2,39)             121.8355         estimate D2E/DX2                !
 ! A7    A(2,3,4)              115.6482         estimate D2E/DX2                !
 ! A8    A(2,3,7)              123.4954         estimate D2E/DX2                !
 ! A9    A(4,3,7)              120.8564         estimate D2E/DX2                !
 ! A10   A(3,4,5)              125.1597         estimate D2E/DX2                !
 ! A11   A(3,4,40)             119.9756         estimate D2E/DX2                !
 ! A12   A(5,4,40)             114.8555         estimate D2E/DX2                !
 ! A13   A(4,5,6)              117.4588         estimate D2E/DX2                !
 ! A14   A(1,6,5)              123.2609         estimate D2E/DX2                !
 ! A15   A(1,6,41)             120.8452         estimate D2E/DX2                !
 ! A16   A(5,6,41)             115.893          estimate D2E/DX2                !
 ! A17   A(3,7,8)              125.1509         estimate D2E/DX2                !
 ! A18   A(3,7,12)             114.8292         estimate D2E/DX2                !
 ! A19   A(8,7,12)             120.0134         estimate D2E/DX2                !
 ! A20   A(7,8,9)              115.7575         estimate D2E/DX2                !
 ! A21   A(7,8,42)             124.1629         estimate D2E/DX2                !
 ! A22   A(9,8,42)             120.0765         estimate D2E/DX2                !
 ! A23   A(8,9,10)             124.3915         estimate D2E/DX2                !
 ! A24   A(8,9,43)             120.2777         estimate D2E/DX2                !
 ! A25   A(10,9,43)            115.3306         estimate D2E/DX2                !
 ! A26   A(9,10,11)            115.8828         estimate D2E/DX2                !
 ! A27   A(10,11,12)           124.469          estimate D2E/DX2                !
 ! A28   A(10,11,13)           114.8852         estimate D2E/DX2                !
 ! A29   A(12,11,13)           120.6454         estimate D2E/DX2                !
 ! A30   A(7,12,11)            119.4788         estimate D2E/DX2                !
 ! A31   A(11,13,14)           134.0206         estimate D2E/DX2                !
 ! A32   A(11,13,44)           109.2234         estimate D2E/DX2                !
 ! A33   A(14,13,44)           116.4928         estimate D2E/DX2                !
 ! A34   A(13,14,15)           119.0645         estimate D2E/DX2                !
 ! A35   A(13,14,19)           121.9464         estimate D2E/DX2                !
 ! A36   A(15,14,19)           118.989          estimate D2E/DX2                !
 ! A37   A(14,15,16)           117.2125         estimate D2E/DX2                !
 ! A38   A(14,15,37)           123.6227         estimate D2E/DX2                !
 ! A39   A(16,15,37)           119.1628         estimate D2E/DX2                !
 ! A40   A(15,16,17)           123.8646         estimate D2E/DX2                !
 ! A41   A(15,16,45)           119.2672         estimate D2E/DX2                !
 ! A42   A(17,16,45)           116.8603         estimate D2E/DX2                !
 ! A43   A(16,17,18)           118.2764         estimate D2E/DX2                !
 ! A44   A(16,17,46)           121.178          estimate D2E/DX2                !
 ! A45   A(18,17,46)           120.5376         estimate D2E/DX2                !
 ! A46   A(17,18,19)           119.3131         estimate D2E/DX2                !
 ! A47   A(17,18,20)           125.0776         estimate D2E/DX2                !
 ! A48   A(19,18,20)           115.598          estimate D2E/DX2                !
 ! A49   A(14,19,18)           122.3381         estimate D2E/DX2                !
 ! A50   A(14,19,47)           117.8021         estimate D2E/DX2                !
 ! A51   A(18,19,47)           119.859          estimate D2E/DX2                !
 ! A52   A(18,20,21)           129.7984         estimate D2E/DX2                !
 ! A53   A(18,20,48)           114.747          estimate D2E/DX2                !
 ! A54   A(21,20,48)           115.263          estimate D2E/DX2                !
 ! A55   A(20,21,22)           117.6628         estimate D2E/DX2                !
 ! A56   A(20,21,36)           122.1171         estimate D2E/DX2                !
 ! A57   A(22,21,36)           120.2142         estimate D2E/DX2                !
 ! A58   A(21,22,23)           123.6103         estimate D2E/DX2                !
 ! A59   A(21,22,27)           117.7517         estimate D2E/DX2                !
 ! A60   A(23,22,27)           118.6372         estimate D2E/DX2                !
 ! A61   A(22,23,24)           120.4735         estimate D2E/DX2                !
 ! A62   A(22,23,49)           119.8327         estimate D2E/DX2                !
 ! A63   A(24,23,49)           119.6931         estimate D2E/DX2                !
 ! A64   A(23,24,25)           121.47           estimate D2E/DX2                !
 ! A65   A(23,24,50)           118.6179         estimate D2E/DX2                !
 ! A66   A(25,24,50)           119.9103         estimate D2E/DX2                !
 ! A67   A(24,25,26)           117.508          estimate D2E/DX2                !
 ! A68   A(24,25,28)           121.0282         estimate D2E/DX2                !
 ! A69   A(26,25,28)           121.4104         estimate D2E/DX2                !
 ! A70   A(25,26,27)           121.4017         estimate D2E/DX2                !
 ! A71   A(25,26,51)           120.0327         estimate D2E/DX2                !
 ! A72   A(27,26,51)           118.5643         estimate D2E/DX2                !
 ! A73   A(22,27,26)           120.4803         estimate D2E/DX2                !
 ! A74   A(22,27,52)           118.6311         estimate D2E/DX2                !
 ! A75   A(26,27,52)           120.8758         estimate D2E/DX2                !
 ! A76   A(25,28,29)           118.9146         estimate D2E/DX2                !
 ! A77   A(25,28,53)           108.4504         estimate D2E/DX2                !
 ! A78   A(25,28,54)           108.4678         estimate D2E/DX2                !
 ! A79   A(29,28,53)           107.1127         estimate D2E/DX2                !
 ! A80   A(29,28,54)           106.6342         estimate D2E/DX2                !
 ! A81   A(53,28,54)           106.6438         estimate D2E/DX2                !
 ! A82   A(28,29,30)           118.9307         estimate D2E/DX2                !
 ! A83   A(28,29,35)           118.7007         estimate D2E/DX2                !
 ! A84   A(30,29,35)           110.3461         estimate D2E/DX2                !
 ! A85   A(29,30,31)           114.5315         estimate D2E/DX2                !
 ! A86   A(29,30,55)           110.8669         estimate D2E/DX2                !
 ! A87   A(29,30,56)           106.5812         estimate D2E/DX2                !
 ! A88   A(31,30,55)           112.7137         estimate D2E/DX2                !
 ! A89   A(31,30,56)           105.2056         estimate D2E/DX2                !
 ! A90   A(55,30,56)           106.2295         estimate D2E/DX2                !
 ! A91   A(30,31,32)           114.0191         estimate D2E/DX2                !
 ! A92   A(30,31,57)           106.9703         estimate D2E/DX2                !
 ! A93   A(30,31,58)           111.4844         estimate D2E/DX2                !
 ! A94   A(32,31,57)           108.3446         estimate D2E/DX2                !
 ! A95   A(32,31,58)           108.0278         estimate D2E/DX2                !
 ! A96   A(57,31,58)           107.7822         estimate D2E/DX2                !
 ! A97   A(31,32,33)           116.6842         estimate D2E/DX2                !
 ! A98   A(31,32,34)           108.915          estimate D2E/DX2                !
 ! A99   A(33,32,34)           116.493          estimate D2E/DX2                !
 ! A100  A(32,33,59)           111.0852         estimate D2E/DX2                !
 ! A101  A(32,33,60)           110.1738         estimate D2E/DX2                !
 ! A102  A(32,33,61)           110.1188         estimate D2E/DX2                !
 ! A103  A(59,33,60)           108.8652         estimate D2E/DX2                !
 ! A104  A(59,33,61)           108.7443         estimate D2E/DX2                !
 ! A105  A(60,33,61)           107.7739         estimate D2E/DX2                !
 ! A106  A(32,34,35)           114.3631         estimate D2E/DX2                !
 ! A107  A(32,34,62)           109.5331         estimate D2E/DX2                !
 ! A108  A(32,34,63)           106.5594         estimate D2E/DX2                !
 ! A109  A(35,34,62)           111.7915         estimate D2E/DX2                !
 ! A110  A(35,34,63)           106.9434         estimate D2E/DX2                !
 ! A111  A(62,34,63)           107.2402         estimate D2E/DX2                !
 ! A112  A(29,35,34)           115.4714         estimate D2E/DX2                !
 ! A113  A(29,35,64)           106.865          estimate D2E/DX2                !
 ! A114  A(29,35,65)           110.413          estimate D2E/DX2                !
 ! A115  A(34,35,64)           105.2503         estimate D2E/DX2                !
 ! A116  A(34,35,65)           111.4747         estimate D2E/DX2                !
 ! A117  A(64,35,65)           106.76           estimate D2E/DX2                !
 ! A118  A(15,37,66)           111.4093         estimate D2E/DX2                !
 ! A119  A(15,37,67)           111.4711         estimate D2E/DX2                !
 ! A120  A(15,37,68)           113.0032         estimate D2E/DX2                !
 ! A121  A(66,37,67)           107.5548         estimate D2E/DX2                !
 ! A122  A(66,37,68)           106.5909         estimate D2E/DX2                !
 ! A123  A(67,37,68)           106.4721         estimate D2E/DX2                !
 ! D1    D(6,1,2,3)             -0.3033         estimate D2E/DX2                !
 ! D2    D(6,1,2,39)          -179.4606         estimate D2E/DX2                !
 ! D3    D(38,1,2,3)           179.5762         estimate D2E/DX2                !
 ! D4    D(38,1,2,39)            0.4188         estimate D2E/DX2                !
 ! D5    D(2,1,6,5)             -0.3493         estimate D2E/DX2                !
 ! D6    D(2,1,6,41)          -180.0            estimate D2E/DX2                !
 ! D7    D(38,1,6,5)           179.7702         estimate D2E/DX2                !
 ! D8    D(38,1,6,41)            0.1195         estimate D2E/DX2                !
 ! D9    D(1,2,3,4)              0.8548         estimate D2E/DX2                !
 ! D10   D(1,2,3,7)           -179.1181         estimate D2E/DX2                !
 ! D11   D(39,2,3,4)           179.9797         estimate D2E/DX2                !
 ! D12   D(39,2,3,7)             0.0068         estimate D2E/DX2                !
 ! D13   D(2,3,4,5)             -0.8841         estimate D2E/DX2                !
 ! D14   D(2,3,4,40)           177.9488         estimate D2E/DX2                !
 ! D15   D(7,3,4,5)            179.0896         estimate D2E/DX2                !
 ! D16   D(7,3,4,40)            -2.0775         estimate D2E/DX2                !
 ! D17   D(2,3,7,8)             -2.7141         estimate D2E/DX2                !
 ! D18   D(2,3,7,12)           176.3543         estimate D2E/DX2                !
 ! D19   D(4,3,7,8)            177.3143         estimate D2E/DX2                !
 ! D20   D(4,3,7,12)            -3.6173         estimate D2E/DX2                !
 ! D21   D(3,4,5,6)              0.2839         estimate D2E/DX2                !
 ! D22   D(40,4,5,6)          -178.602          estimate D2E/DX2                !
 ! D23   D(4,5,6,1)              0.3645         estimate D2E/DX2                !
 ! D24   D(4,5,6,41)          -179.9688         estimate D2E/DX2                !
 ! D25   D(3,7,8,9)            179.906          estimate D2E/DX2                !
 ! D26   D(3,7,8,42)            -0.7304         estimate D2E/DX2                !
 ! D27   D(12,7,8,9)             0.8824         estimate D2E/DX2                !
 ! D28   D(12,7,8,42)         -179.754          estimate D2E/DX2                !
 ! D29   D(3,7,12,11)         -179.5259         estimate D2E/DX2                !
 ! D30   D(8,7,12,11)           -0.4056         estimate D2E/DX2                !
 ! D31   D(7,8,9,10)            -0.6796         estimate D2E/DX2                !
 ! D32   D(7,8,9,43)           179.469          estimate D2E/DX2                !
 ! D33   D(42,8,9,10)          179.9289         estimate D2E/DX2                !
 ! D34   D(42,8,9,43)            0.0775         estimate D2E/DX2                !
 ! D35   D(8,9,10,11)           -0.0266         estimate D2E/DX2                !
 ! D36   D(43,9,10,11)         179.8314         estimate D2E/DX2                !
 ! D37   D(9,10,11,12)           0.5902         estimate D2E/DX2                !
 ! D38   D(9,10,11,13)        -179.1889         estimate D2E/DX2                !
 ! D39   D(10,11,12,7)          -0.377          estimate D2E/DX2                !
 ! D40   D(13,11,12,7)         179.3901         estimate D2E/DX2                !
 ! D41   D(10,11,13,14)       -176.0648         estimate D2E/DX2                !
 ! D42   D(10,11,13,44)         -2.3706         estimate D2E/DX2                !
 ! D43   D(12,11,13,14)          4.1469         estimate D2E/DX2                !
 ! D44   D(12,11,13,44)        177.8411         estimate D2E/DX2                !
 ! D45   D(11,13,14,15)        163.0526         estimate D2E/DX2                !
 ! D46   D(11,13,14,19)        -17.0987         estimate D2E/DX2                !
 ! D47   D(44,13,14,15)        -10.2931         estimate D2E/DX2                !
 ! D48   D(44,13,14,19)        169.5557         estimate D2E/DX2                !
 ! D49   D(13,14,15,16)        179.98           estimate D2E/DX2                !
 ! D50   D(13,14,15,37)         -0.538          estimate D2E/DX2                !
 ! D51   D(19,14,15,16)          0.1267         estimate D2E/DX2                !
 ! D52   D(19,14,15,37)        179.6086         estimate D2E/DX2                !
 ! D53   D(13,14,19,18)       -179.8505         estimate D2E/DX2                !
 ! D54   D(13,14,19,47)         -0.1879         estimate D2E/DX2                !
 ! D55   D(15,14,19,18)         -0.0016         estimate D2E/DX2                !
 ! D56   D(15,14,19,47)        179.661          estimate D2E/DX2                !
 ! D57   D(14,15,16,17)          0.3107         estimate D2E/DX2                !
 ! D58   D(14,15,16,45)        179.2544         estimate D2E/DX2                !
 ! D59   D(37,15,16,17)       -179.1953         estimate D2E/DX2                !
 ! D60   D(37,15,16,45)         -0.2516         estimate D2E/DX2                !
 ! D61   D(14,15,37,66)         63.8827         estimate D2E/DX2                !
 ! D62   D(14,15,37,67)        -56.2729         estimate D2E/DX2                !
 ! D63   D(14,15,37,68)       -176.1406         estimate D2E/DX2                !
 ! D64   D(16,15,37,66)       -116.6449         estimate D2E/DX2                !
 ! D65   D(16,15,37,67)        123.1995         estimate D2E/DX2                !
 ! D66   D(16,15,37,68)          3.3318         estimate D2E/DX2                !
 ! D67   D(15,16,17,18)         -0.856          estimate D2E/DX2                !
 ! D68   D(15,16,17,46)        178.116          estimate D2E/DX2                !
 ! D69   D(45,16,17,18)       -179.8231         estimate D2E/DX2                !
 ! D70   D(45,16,17,46)         -0.8511         estimate D2E/DX2                !
 ! D71   D(16,17,18,19)          0.9457         estimate D2E/DX2                !
 ! D72   D(16,17,18,20)        179.6642         estimate D2E/DX2                !
 ! D73   D(46,17,18,19)       -178.0331         estimate D2E/DX2                !
 ! D74   D(46,17,18,20)          0.6853         estimate D2E/DX2                !
 ! D75   D(17,18,19,14)         -0.5496         estimate D2E/DX2                !
 ! D76   D(17,18,19,47)        179.7946         estimate D2E/DX2                !
 ! D77   D(20,18,19,14)       -179.3866         estimate D2E/DX2                !
 ! D78   D(20,18,19,47)          0.9576         estimate D2E/DX2                !
 ! D79   D(17,18,20,21)         -8.2252         estimate D2E/DX2                !
 ! D80   D(17,18,20,48)        177.1098         estimate D2E/DX2                !
 ! D81   D(19,18,20,21)        170.5357         estimate D2E/DX2                !
 ! D82   D(19,18,20,48)         -4.1292         estimate D2E/DX2                !
 ! D83   D(18,20,21,22)        140.3118         estimate D2E/DX2                !
 ! D84   D(18,20,21,36)        -38.7986         estimate D2E/DX2                !
 ! D85   D(48,20,21,22)        -45.0458         estimate D2E/DX2                !
 ! D86   D(48,20,21,36)        135.8438         estimate D2E/DX2                !
 ! D87   D(20,21,22,23)         35.1355         estimate D2E/DX2                !
 ! D88   D(20,21,22,27)       -145.1838         estimate D2E/DX2                !
 ! D89   D(36,21,22,23)       -145.7364         estimate D2E/DX2                !
 ! D90   D(36,21,22,27)         33.9443         estimate D2E/DX2                !
 ! D91   D(21,22,23,24)       -178.8262         estimate D2E/DX2                !
 ! D92   D(21,22,23,49)          1.4842         estimate D2E/DX2                !
 ! D93   D(27,22,23,24)          1.4958         estimate D2E/DX2                !
 ! D94   D(27,22,23,49)       -178.1938         estimate D2E/DX2                !
 ! D95   D(21,22,27,26)        178.1903         estimate D2E/DX2                !
 ! D96   D(21,22,27,52)         -0.5192         estimate D2E/DX2                !
 ! D97   D(23,22,27,26)         -2.1126         estimate D2E/DX2                !
 ! D98   D(23,22,27,52)        179.1779         estimate D2E/DX2                !
 ! D99   D(22,23,24,25)         -0.2507         estimate D2E/DX2                !
 ! D100  D(22,23,24,50)        179.2622         estimate D2E/DX2                !
 ! D101  D(49,23,24,25)        179.4394         estimate D2E/DX2                !
 ! D102  D(49,23,24,50)         -1.0477         estimate D2E/DX2                !
 ! D103  D(23,24,25,26)         -0.3936         estimate D2E/DX2                !
 ! D104  D(23,24,25,28)        176.9859         estimate D2E/DX2                !
 ! D105  D(50,24,25,26)       -179.9003         estimate D2E/DX2                !
 ! D106  D(50,24,25,28)         -2.5207         estimate D2E/DX2                !
 ! D107  D(24,25,26,27)         -0.2318         estimate D2E/DX2                !
 ! D108  D(24,25,26,51)        179.3338         estimate D2E/DX2                !
 ! D109  D(28,25,26,27)       -177.6007         estimate D2E/DX2                !
 ! D110  D(28,25,26,51)          1.9649         estimate D2E/DX2                !
 ! D111  D(24,25,28,29)        -82.919          estimate D2E/DX2                !
 ! D112  D(24,25,28,53)         39.6735         estimate D2E/DX2                !
 ! D113  D(24,25,28,54)        155.1257         estimate D2E/DX2                !
 ! D114  D(26,25,28,29)         94.3576         estimate D2E/DX2                !
 ! D115  D(26,25,28,53)       -143.0499         estimate D2E/DX2                !
 ! D116  D(26,25,28,54)        -27.5977         estimate D2E/DX2                !
 ! D117  D(25,26,27,22)          1.5062         estimate D2E/DX2                !
 ! D118  D(25,26,27,52)       -179.8136         estimate D2E/DX2                !
 ! D119  D(51,26,27,22)       -178.0656         estimate D2E/DX2                !
 ! D120  D(51,26,27,52)          0.6146         estimate D2E/DX2                !
 ! D121  D(25,28,29,30)         74.5939         estimate D2E/DX2                !
 ! D122  D(25,28,29,35)        -64.4778         estimate D2E/DX2                !
 ! D123  D(53,28,29,30)        -48.6611         estimate D2E/DX2                !
 ! D124  D(53,28,29,35)        172.2672         estimate D2E/DX2                !
 ! D125  D(54,28,29,30)       -162.5374         estimate D2E/DX2                !
 ! D126  D(54,28,29,35)         58.3909         estimate D2E/DX2                !
 ! D127  D(28,29,30,31)        -94.5166         estimate D2E/DX2                !
 ! D128  D(28,29,30,55)         34.4016         estimate D2E/DX2                !
 ! D129  D(28,29,30,56)        149.5893         estimate D2E/DX2                !
 ! D130  D(35,29,30,31)         47.6866         estimate D2E/DX2                !
 ! D131  D(35,29,30,55)        176.6047         estimate D2E/DX2                !
 ! D132  D(35,29,30,56)        -68.2076         estimate D2E/DX2                !
 ! D133  D(28,29,35,34)         96.0448         estimate D2E/DX2                !
 ! D134  D(28,29,35,64)       -147.2845         estimate D2E/DX2                !
 ! D135  D(28,29,35,65)        -31.5416         estimate D2E/DX2                !
 ! D136  D(30,29,35,34)        -46.2564         estimate D2E/DX2                !
 ! D137  D(30,29,35,64)         70.4143         estimate D2E/DX2                !
 ! D138  D(30,29,35,65)       -173.8428         estimate D2E/DX2                !
 ! D139  D(29,30,31,32)        -53.5782         estimate D2E/DX2                !
 ! D140  D(29,30,31,57)       -173.3301         estimate D2E/DX2                !
 ! D141  D(29,30,31,58)         69.0724         estimate D2E/DX2                !
 ! D142  D(55,30,31,32)        178.4335         estimate D2E/DX2                !
 ! D143  D(55,30,31,57)         58.6816         estimate D2E/DX2                !
 ! D144  D(55,30,31,58)        -58.9159         estimate D2E/DX2                !
 ! D145  D(56,30,31,32)         63.1088         estimate D2E/DX2                !
 ! D146  D(56,30,31,57)        -56.6431         estimate D2E/DX2                !
 ! D147  D(56,30,31,58)       -174.2406         estimate D2E/DX2                !
 ! D148  D(30,31,32,33)        -81.6946         estimate D2E/DX2                !
 ! D149  D(30,31,32,34)         52.7314         estimate D2E/DX2                !
 ! D150  D(57,31,32,33)         37.2797         estimate D2E/DX2                !
 ! D151  D(57,31,32,34)        171.7058         estimate D2E/DX2                !
 ! D152  D(58,31,32,33)        153.7848         estimate D2E/DX2                !
 ! D153  D(58,31,32,34)        -71.7891         estimate D2E/DX2                !
 ! D154  D(31,32,33,59)         65.5979         estimate D2E/DX2                !
 ! D155  D(31,32,33,60)        -55.123          estimate D2E/DX2                !
 ! D156  D(31,32,33,61)       -173.8696         estimate D2E/DX2                !
 ! D157  D(34,32,33,59)        -65.389          estimate D2E/DX2                !
 ! D158  D(34,32,33,60)        173.8901         estimate D2E/DX2                !
 ! D159  D(34,32,33,61)         55.1435         estimate D2E/DX2                !
 ! D160  D(31,32,34,35)        -50.9743         estimate D2E/DX2                !
 ! D161  D(31,32,34,62)       -177.3488         estimate D2E/DX2                !
 ! D162  D(31,32,34,63)         66.9567         estimate D2E/DX2                !
 ! D163  D(33,32,34,35)         83.5492         estimate D2E/DX2                !
 ! D164  D(33,32,34,62)        -42.8253         estimate D2E/DX2                !
 ! D165  D(33,32,34,63)       -158.5198         estimate D2E/DX2                !
 ! D166  D(32,34,35,29)         50.1758         estimate D2E/DX2                !
 ! D167  D(32,34,35,64)        -67.4022         estimate D2E/DX2                !
 ! D168  D(32,34,35,65)        177.2292         estimate D2E/DX2                !
 ! D169  D(62,34,35,29)        175.3686         estimate D2E/DX2                !
 ! D170  D(62,34,35,64)         57.7906         estimate D2E/DX2                !
 ! D171  D(62,34,35,65)        -57.578          estimate D2E/DX2                !
 ! D172  D(63,34,35,29)        -67.5361         estimate D2E/DX2                !
 ! D173  D(63,34,35,64)        174.8858         estimate D2E/DX2                !
 ! D174  D(63,34,35,65)         59.5172         estimate D2E/DX2                !
 --------------------------------------------------------------------------------
 Trust Radius=3.00D-01 FncErr=1.00D-07 GrdErr=1.00D-06
 Number of steps in this run= 400 maximum allowed number of steps= 408.
 GradGradGradGradGradGradGradGradGradGradGradGradGradGradGradGradGradGrad

 Leave Link  103 at Wed Mar  4 06:35:31 2020, MaxMem= 2684354560 cpu:       0.1
 (Enter /opt/g09gh/gaussian/g09/l202.exe)
 Stoichiometry    C29H31N7O
 Framework group  C1[X(C29H31N7O)]
 Deg. of freedom   198
 Full point group                 C1      NOp   1
 Largest Abelian subgroup         C1      NOp   1
 Largest concise Abelian subgroup C1      NOp   1
                         Standard orientation:                         
 ---------------------------------------------------------------------
 Center     Atomic      Atomic             Coordinates (Angstroms)
 Number     Number       Type             X           Y           Z
 ---------------------------------------------------------------------
      1          6           0        3.669547    5.057872   -0.901129
      2          6           0        4.434687    4.134950   -0.175198
      3          6           0        4.084562    2.769393   -0.178481
      4          6           0        2.954212    2.428100   -0.961115
      5          7           0        2.211219    3.294276   -1.661195
      6          6           0        2.567852    4.586700   -1.623372
      7          6           0        4.841320    1.713671    0.589998
      8          6           0        6.001235    1.941268    1.348419
      9          6           0        6.541929    0.818843    1.983710
     10          7           0        6.023690   -0.403496    1.918021
     11          6           0        4.900425   -0.528467    1.179639
     12          7           0        4.310026    0.475914    0.524893
     13          7           0        4.367847   -1.808013    1.139627
     14          6           0        3.258151   -2.409906    0.443604
     15          6           0        3.193892   -3.833264    0.339515
     16          6           0        2.096002   -4.378179   -0.346271
     17          6           0        1.081689   -3.610711   -0.928800
     18          6           0        1.152017   -2.218363   -0.808815
     19          6           0        2.238601   -1.640429   -0.131462
     20          7           0        0.201788   -1.297665   -1.351499
     21          6           0       -0.853307   -1.522213   -2.200246
     22          6           0       -2.139493   -0.763886   -1.939934
     23          6           0       -2.180775    0.551852   -1.450287
     24          6           0       -3.404441    1.180274   -1.210992
     25          6           0       -4.626354    0.526003   -1.454476
     26          6           0       -4.571549   -0.787625   -1.958183
     27          6           0       -3.351966   -1.419226   -2.212597
     28          6           0       -5.959854    1.198215   -1.124825
     29          7           0       -6.467588    1.134724    0.257942
     30          6           0       -5.835311    1.983866    1.292691
     31          6           0       -4.717607    1.282139    2.106598
     32          7           0       -5.134791    0.002021    2.724559
     33          6           0       -5.869983    0.090596    3.992032
     34          6           0       -5.723728   -0.868067    1.677352
     35          6           0       -6.826038   -0.186433    0.824243
     36          8           0       -0.783383   -2.312165   -3.126714
     37          6           0        4.244734   -4.767259    0.915655
     38          1           0        3.918065    6.115109   -0.906395
     39          1           0        5.284261    4.507725    0.391376
     40          1           0        2.642877    1.392445   -1.040439
     41          1           0        1.945992    5.268667   -2.201141
     42          1           0        6.481522    2.906542    1.450337
     43          1           0        7.446604    0.910003    2.584218
     44          1           0        4.965549   -2.433041    1.659428
     45          1           0        2.019943   -5.459411   -0.456184
     46          1           0        0.269187   -4.076022   -1.474455
     47          1           0        2.303350   -0.567910   -0.036665
     48          1           0        0.380023   -0.328356   -1.132744
     49          1           0       -1.254525    1.087365   -1.260699
     50          1           0       -3.401170    2.197526   -0.819438
     51          1           0       -5.492963   -1.336611   -2.151352
     52          1           0       -3.319650   -2.432705   -2.604362
     53          1           0       -5.889683    2.261795   -1.395246
     54          1           0       -6.738428    0.760814   -1.766428
     55          1           0       -5.524876    2.903547    0.884828
     56          1           0       -6.958468    2.324635    2.342168
     57          1           0       -4.314653    2.226154    3.201717
     58          1           0       -3.798081    1.080750    1.465034
     59          1           0       -6.844403    0.571407    3.849817
     60          1           0       -5.293454    0.667795    4.723844
     61          1           0       -6.028875   -0.911617    4.406576
     62          1           0       -6.078006   -1.796684    2.130745
     63          1           0       -4.599728   -1.229909    0.736251
     64          1           0       -8.028410    0.051588    1.814249
     65          1           0       -7.204714   -0.874549    0.010870
     66          1           0        4.287445   -4.695824    2.011735
     67          1           0        5.246670   -4.533117    0.528849
     68          1           0        4.057646   -5.823395    0.677133
 ---------------------------------------------------------------------
 Rotational constants (GHZ):      0.1230523      0.0484472      0.0423510
 Leave Link  202 at Wed Mar  4 06:35:31 2020, MaxMem= 2684354560 cpu:       0.1
 (Enter /opt/g09gh/gaussian/g09/l301.exe)
 Standard basis: 6-31G(d) (6D, 7F)
 Ernie: Thresh=  0.10000D-02 Tol=  0.10000D-05 Strict=F.
 There are   617 symmetry adapted basis functions of A   symmetry.
 Integral buffers will be    131072 words long.
 Raffenetti 2 integral format.
 Two-electron integral symmetry is turned on.
   617 basis functions,  1160 primitive gaussians,   617 cartesian basis functions
   131 alpha electrons      131 beta electrons
       nuclear repulsion energy      3670.7858852278 Hartrees.
 IExCor= 4639 DFT=T Ex+Corr=wB97XD ExCW=0 ScaHFX=  1.000000
 ScaDFX=  1.000000  1.000000  1.000000  1.000000 ScalE2=  1.000000  1.000000
 IRadAn=      0 IRanWt=     -1 IRanGd=            0 ICorTp=0
  HFx wShort=  0.000000 wLong=  0.200000 cFull=  0.222036 cShort=  0.000000 cLong=  0.777964
  DFx wShort=  0.000000 wLong=  0.200000 cFull=  0.000000 cShort=  0.000000 cLong=  1.000000
 NAtoms=   68 NActive=   68 NUniq=   68 SFac= 7.50D-01 NAtFMM=   80 NAOKFM=F Big=T
 R6Disp: Dispersion energy =        -0.0560068403 Hartrees.
 Nuclear repulsion after empirical dispersion term =     3670.7298783875 Hartrees.
 Leave Link  301 at Wed Mar  4 06:35:31 2020, MaxMem= 2684354560 cpu:       0.7
 (Enter /opt/g09gh/gaussian/g09/l302.exe)
 NPDir=0 NMtPBC=     1 NCelOv=     1 NCel=       1 NClECP=     1 NCelD=      1
         NCelK=      1 NCelE2=     1 NClLst=     1 CellRange=     0.0.
 One-electron integrals computed using PRISM.
 NBasis=   617 RedAO= T  NBF=   617
 NBsUse=   617 1.00D-06 NBFU=   617
 Precomputing XC quadrature grid using
 IXCGrd= 2 IRadAn=           0 IRanWt=          -1 IRanGd=           0 AccXCQ= 1.00D-10.
 NRdTot=    4381 NPtTot=      560254 NUsed=      591818 NTot=      591850
 NSgBfM=   595   595   598   599   599 NAtAll=    68    68.
 Leave Link  302 at Wed Mar  4 06:35:34 2020, MaxMem= 2684354560 cpu:      19.7
 (Enter /opt/g09gh/gaussian/g09/l303.exe)
 DipDrv:  MaxL=1.
 Leave Link  303 at Wed Mar  4 06:35:35 2020, MaxMem= 2684354560 cpu:       1.1
 (Enter /opt/g09gh/gaussian/g09/l401.exe)
 Harris functional with IExCor= 4639 diagonalized for initial guess.
 ExpMin= 1.61D-01 ExpMax= 5.48D+03 ExpMxC= 8.25D+02 IAcc=1 IRadAn=         1 AccDes= 0.00D+00
 HarFok:  IExCor= 4639 AccDes= 0.00D+00 IRadAn=         1 IDoV= 1
 ScaDFX=  1.000000  1.000000  1.000000  1.000000
 FoFCou: FMM=F IPFlag=           0 FMFlag=      100000 FMFlg1=           1
         NFxFlg=           0 DoJE=T BraDBF=F KetDBF=T FulRan=T
         Omega=  0.000000  0.000000  1.000000  0.000000  0.000000 ICntrl=     500 IOpCl=  0
         NMat0=    1 NMatS0=    1 NMatT0=    0 NMatD0=    1 NMtDS0=    0 NMtDT0=    0
         I1Cent=           4 NGrid=           0.
 Petite list used in FoFCou.
 Harris En= -1512.38167093022    
 Initial guess orbital symmetries:
       Occupied  (A) (A) (A) (A) (A) (A) (A) (A) (A) (A) (A) (A)
                 (A) (A) (A) (A) (A) (A) (A) (A) (A) (A) (A) (A)
                 (A) (A) (A) (A) (A) (A) (A) (A) (A) (A) (A) (A)
                 (A) (A) (A) (A) (A) (A) (A) (A) (A) (A) (A) (A)
                 (A) (A) (A) (A) (A) (A) (A) (A) (A) (A) (A) (A)
                 (A) (A) (A) (A) (A) (A) (A) (A) (A) (A) (A) (A)
                 (A) (A) (A) (A) (A) (A) (A) (A) (A) (A) (A) (A)
                 (A) (A) (A) (A) (A) (A) (A) (A) (A) (A) (A) (A)
                 (A) (A) (A) (A) (A) (A) (A) (A) (A) (A) (A) (A)
                 (A) (A) (A) (A) (A) (A) (A) (A) (A) (A) (A) (A)
                 (A) (A) (A) (A) (A) (A) (A) (A) (A) (A) (A)
       Virtual   (A) (A) (A) (A) (A) (A) (A) (A) (A) (A) (A) (A)
                 (A) (A) (A) (A) (A) (A) (A) (A) (A) (A) (A) (A)
                 (A) (A) (A) (A) (A) (A) (A) (A) (A) (A) (A) (A)
                 (A) (A) (A) (A) (A) (A) (A) (A) (A) (A) (A) (A)
                 (A) (A) (A) (A) (A) (A) (A) (A) (A) (A) (A) (A)
                 (A) (A) (A) (A) (A) (A) (A) (A) (A) (A) (A) (A)
                 (A) (A) (A) (A) (A) (A) (A) (A) (A) (A) (A) (A)
                 (A) (A) (A) (A) (A) (A) (A) (A) (A) (A) (A) (A)
                 (A) (A) (A) (A) (A) (A) (A) (A) (A) (A) (A) (A)
                 (A) (A) (A) (A) (A) (A) (A) (A) (A) (A) (A) (A)
                 (A) (A) (A) (A) (A) (A) (A) (A) (A) (A) (A) (A)
                 (A) (A) (A) (A) (A) (A) (A) (A) (A) (A) (A) (A)
                 (A) (A) (A) (A) (A) (A) (A) (A) (A) (A) (A) (A)
                 (A) (A) (A) (A) (A) (A) (A) (A) (A) (A) (A) (A)
                 (A) (A) (A) (A) (A) (A) (A) (A) (A) (A) (A) (A)
                 (A) (A) (A) (A) (A) (A) (A) (A) (A) (A) (A) (A)
                 (A) (A) (A) (A) (A) (A) (A) (A) (A) (A) (A) (A)
                 (A) (A) (A) (A) (A) (A) (A) (A) (A) (A) (A) (A)
                 (A) (A) (A) (A) (A) (A) (A) (A) (A) (A) (A) (A)
                 (A) (A) (A) (A) (A) (A) (A) (A) (A) (A) (A) (A)
                 (A) (A) (A) (A) (A) (A) (A) (A) (A) (A) (A) (A)
                 (A) (A) (A) (A) (A) (A) (A) (A) (A) (A) (A) (A)
                 (A) (A) (A) (A) (A) (A) (A) (A) (A) (A) (A) (A)
                 (A) (A) (A) (A) (A) (A) (A) (A) (A) (A) (A) (A)
                 (A) (A) (A) (A) (A) (A) (A) (A) (A) (A) (A) (A)
                 (A) (A) (A) (A) (A) (A) (A) (A) (A) (A) (A) (A)
                 (A) (A) (A) (A) (A) (A) (A) (A) (A) (A) (A) (A)
                 (A) (A) (A) (A) (A) (A) (A) (A) (A) (A) (A) (A)
                 (A) (A) (A) (A) (A) (A) (A) (A) (A) (A) (A) (A)
                 (A) (A) (A) (A) (A) (A) (A) (A) (A) (A) (A) (A)
                 (A) (A) (A) (A) (A) (A) (A) (A) (A) (A) (A) (A)
                 (A) (A) (A) (A) (A) (A) (A) (A) (A) (A) (A) (A)
                 (A) (A) (A) (A) (A) (A) (A) (A) (A) (A) (A) (A)
                 (A) (A) (A) (A) (A) (A) (A) (A) (A) (A) (A) (A)
                 (A) (A) (A) (A) (A) (A) (A) (A) (A) (A) (A) (A)
                 (A) (A) (A) (A) (A) (A) (A) (A) (A) (A) (A) (A)
                 (A) (A) (A) (A) (A) (A) (A) (A) (A) (A) (A) (A)
                 (A) (A) (A) (A) (A) (A) (A) (A) (A) (A) (A) (A)
                 (A) (A) (A) (A) (A) (A) (A) (A) (A) (A) (A) (A)
                 (A) (A) (A) (A) (A) (A) (A) (A) (A) (A) (A) (A)
                 (A) (A) (A) (A) (A) (A)
 The electronic state of the initial guess is 1-A.
 Leave Link  401 at Wed Mar  4 06:35:39 2020, MaxMem= 2684354560 cpu:      27.5
 (Enter /opt/g09gh/gaussian/g09/l502.exe)
 Closed shell SCF:
 Requested convergence on RMS density matrix=1.00D-08 within 128 cycles.
 Requested convergence on MAX density matrix=1.00D-06.
 Requested convergence on             energy=1.00D-06.
 No special actions if energy rises.
 Using DIIS extrapolation, IDIIS=  1040.
 Integral symmetry usage will be decided dynamically.
       591193 words used for storage of precomputed grid.
 IEnd=     1759773 IEndB=     1759773 NGot=  2684354560 MDV=  2682992734
 LenX=  2682992734 LenY=  2682611428
 Fock matrices will be formed incrementally for  20 cycles.
 Integral accuracy reduced to 1.0D-05 until final iterations.

 Cycle   1  Pass 0  IDiag  1:
 FoFJK:  IHMeth= 1 ICntrl=     0 DoSepK=T KAlg= 1 I1Cent= 0 FoldK=F
 FoFCou: FMM=T IPFlag=           0 FMFlag=      100000 FMFlg1=           1
         NFxFlg=           0 DoJE=T BraDBF=F KetDBF=F FulRan=T
         Omega=  0.000000  0.000000  1.000000  0.000000  0.000000 ICntrl=     500 IOpCl=  0
         NMat0=    1 NMatS0=    1 NMatT0=    0 NMatD0=    1 NMtDS0=    0 NMtDT0=    0
         I1Cent=           0 NGrid=           0.
 Symmetry not used in FoFCou.
 FMM levels:  10  Number of levels for PrismC:   9
 E= -1581.14256543507    
 DIIS: error= 7.12D-02 at cycle   1 NSaved=   1.
 NSaved= 1 IEnMin= 1 EnMin= -1581.14256543507     IErMin= 1 ErrMin= 7.12D-02
 ErrMax= 7.12D-02 EMaxC= 1.00D-01 BMatC= 1.46D+00 BMatP= 1.46D+00
 IDIUse=3 WtCom= 2.88D-01 WtEn= 7.12D-01
 Coeff-Com:  0.100D+01
 Coeff-En:   0.100D+01
 Coeff:      0.100D+01
 Gap=     0.270 Goal=   None    Shift=    0.000
 GapD=    0.270 DampG=1.000 DampE=0.500 DampFc=0.5000 IDamp=-1.
 Damping current iteration by 5.00D-01
 RMSDP=1.87D-03 MaxDP=8.97D-02              OVMax= 1.57D-01

 Cycle   2  Pass 0  IDiag  1:
 RMSU=  6.60D-04    CP:  1.00D+00
 FoFJK:  IHMeth= 1 ICntrl=     0 DoSepK=T KAlg= 1 I1Cent= 0 FoldK=F
 E= -1581.31939810302     Delta-E=       -0.176832667955 Rises=F Damp=T
 DIIS: error= 3.64D-02 at cycle   2 NSaved=   2.
 NSaved= 2 IEnMin= 2 EnMin= -1581.31939810302     IErMin= 2 ErrMin= 3.64D-02
 ErrMax= 3.64D-02 EMaxC= 1.00D-01 BMatC= 3.22D-01 BMatP= 1.46D+00
 IDIUse=3 WtCom= 6.36D-01 WtEn= 3.64D-01
 Coeff-Com: -0.655D+00 0.166D+01
 Coeff-En:   0.000D+00 0.100D+01
 Coeff:     -0.417D+00 0.142D+01
 Gap=     0.271 Goal=   None    Shift=    0.000
 RMSDP=8.58D-04 MaxDP=3.89D-02 DE=-1.77D-01 OVMax= 1.15D-01

 Cycle   3  Pass 0  IDiag  1:
 RMSU=  5.46D-04    CP:  1.00D+00  1.40D+00
 FoFJK:  IHMeth= 1 ICntrl=     0 DoSepK=T KAlg= 1 I1Cent= 0 FoldK=F
 E= -1581.46002716990     Delta-E=       -0.140629066879 Rises=F Damp=F
 DIIS: error= 5.19D-03 at cycle   3 NSaved=   3.
 NSaved= 3 IEnMin= 3 EnMin= -1581.46002716990     IErMin= 3 ErrMin= 5.19D-03
 ErrMax= 5.19D-03 EMaxC= 1.00D-01 BMatC= 5.04D-02 BMatP= 3.22D-01
 IDIUse=3 WtCom= 9.48D-01 WtEn= 5.19D-02
 Coeff-Com: -0.340D+00 0.704D+00 0.636D+00
 Coeff-En:   0.000D+00 0.000D+00 0.100D+01
 Coeff:     -0.322D+00 0.667D+00 0.655D+00
 Gap=     0.262 Goal=   None    Shift=    0.000
 RMSDP=4.20D-04 MaxDP=2.52D-02 DE=-1.41D-01 OVMax= 5.40D-02

 Cycle   4  Pass 0  IDiag  1:
 RMSU=  1.38D-04    CP:  1.00D+00  1.66D+00  6.36D-01
 FoFJK:  IHMeth= 1 ICntrl=     0 DoSepK=T KAlg= 1 I1Cent= 0 FoldK=F
 E= -1581.50520920439     Delta-E=       -0.045182034487 Rises=F Damp=F
 DIIS: error= 1.68D-03 at cycle   4 NSaved=   4.
 NSaved= 4 IEnMin= 4 EnMin= -1581.50520920439     IErMin= 4 ErrMin= 1.68D-03
 ErrMax= 1.68D-03 EMaxC= 1.00D-01 BMatC= 2.80D-03 BMatP= 5.04D-02
 IDIUse=3 WtCom= 9.83D-01 WtEn= 1.68D-02
 Coeff-Com: -0.152D+00 0.309D+00 0.343D+00 0.499D+00
 Coeff-En:   0.000D+00 0.000D+00 0.000D+00 0.100D+01
 Coeff:     -0.149D+00 0.304D+00 0.338D+00 0.507D+00
 Gap=     0.257 Goal=   None    Shift=    0.000
 RMSDP=9.02D-05 MaxDP=6.93D-03 DE=-4.52D-02 OVMax= 8.67D-03

 Cycle   5  Pass 0  IDiag  1:
 RMSU=  4.38D-05    CP:  1.00D+00  1.65D+00  6.89D-01  7.43D-01
 FoFJK:  IHMeth= 1 ICntrl=     0 DoSepK=T KAlg= 1 I1Cent= 0 FoldK=F
 E= -1581.50766285577     Delta-E=       -0.002453651379 Rises=F Damp=F
 DIIS: error= 3.18D-04 at cycle   5 NSaved=   5.
 NSaved= 5 IEnMin= 5 EnMin= -1581.50766285577     IErMin= 5 ErrMin= 3.18D-04
 ErrMax= 3.18D-04 EMaxC= 1.00D-01 BMatC= 8.03D-05 BMatP= 2.80D-03
 IDIUse=3 WtCom= 9.97D-01 WtEn= 3.18D-03
 Coeff-Com: -0.139D-01 0.275D-01 0.514D-01 0.153D+00 0.782D+00
 Coeff-En:   0.000D+00 0.000D+00 0.000D+00 0.000D+00 0.100D+01
 Coeff:     -0.139D-01 0.274D-01 0.512D-01 0.153D+00 0.782D+00
 Gap=     0.256 Goal=   None    Shift=    0.000
 RMSDP=2.35D-05 MaxDP=2.02D-03 DE=-2.45D-03 OVMax= 2.94D-03

 Cycle   6  Pass 0  IDiag  1:
 RMSU=  1.28D-05    CP:  1.00D+00  1.65D+00  6.97D-01  8.09D-01  1.01D+00
 FoFJK:  IHMeth= 1 ICntrl=     0 DoSepK=T KAlg= 1 I1Cent= 0 FoldK=F
 E= -1581.50774609154     Delta-E=       -0.000083235773 Rises=F Damp=F
 DIIS: error= 2.80D-04 at cycle   6 NSaved=   6.
 NSaved= 6 IEnMin= 6 EnMin= -1581.50774609154     IErMin= 6 ErrMin= 2.80D-04
 ErrMax= 2.80D-04 EMaxC= 1.00D-01 BMatC= 2.71D-05 BMatP= 8.03D-05
 IDIUse=3 WtCom= 9.97D-01 WtEn= 2.80D-03
 Coeff-Com:  0.226D-01-0.467D-01-0.383D-01-0.222D-01 0.405D+00 0.680D+00
 Coeff-En:   0.000D+00 0.000D+00 0.000D+00 0.000D+00 0.000D+00 0.100D+01
 Coeff:      0.225D-01-0.466D-01-0.382D-01-0.221D-01 0.403D+00 0.681D+00
 Gap=     0.256 Goal=   None    Shift=    0.000
 RMSDP=1.33D-05 MaxDP=8.57D-04 DE=-8.32D-05 OVMax= 1.59D-03

 Cycle   7  Pass 0  IDiag  1:
 RMSU=  5.76D-06    CP:  1.00D+00  1.66D+00  7.01D-01  8.36D-01  1.13D+00
                    CP:  9.09D-01
 FoFJK:  IHMeth= 1 ICntrl=     0 DoSepK=T KAlg= 1 I1Cent= 0 FoldK=F
 E= -1581.50777635811     Delta-E=       -0.000030266568 Rises=F Damp=F
 DIIS: error= 4.30D-05 at cycle   7 NSaved=   7.
 NSaved= 7 IEnMin= 7 EnMin= -1581.50777635811     IErMin= 7 ErrMin= 4.30D-05
 ErrMax= 4.30D-05 EMaxC= 1.00D-01 BMatC= 1.77D-06 BMatP= 2.71D-05
 IDIUse=1 WtCom= 1.00D+00 WtEn= 0.00D+00
 Coeff-Com:  0.946D-02-0.194D-01-0.178D-01-0.229D-01 0.684D-01 0.241D+00
 Coeff-Com:  0.741D+00
 Coeff:      0.946D-02-0.194D-01-0.178D-01-0.229D-01 0.684D-01 0.241D+00
 Coeff:      0.741D+00
 Gap=     0.256 Goal=   None    Shift=    0.000
 RMSDP=4.20D-06 MaxDP=2.09D-04 DE=-3.03D-05 OVMax= 6.58D-04

 Initial convergence to 1.0D-05 achieved.  Increase integral accuracy.
 Cycle   8  Pass 1  IDiag  1:
 FoFJK:  IHMeth= 1 ICntrl=     0 DoSepK=T KAlg= 1 I1Cent= 0 FoldK=F
 E= -1581.50553519991     Delta-E=        0.002241158197 Rises=F Damp=F
 DIIS: error= 9.82D-05 at cycle   1 NSaved=   1.
 NSaved= 1 IEnMin= 1 EnMin= -1581.50553519991     IErMin= 1 ErrMin= 9.82D-05
 ErrMax= 9.82D-05 EMaxC= 1.00D-01 BMatC= 1.22D-05 BMatP= 1.22D-05
 IDIUse=1 WtCom= 1.00D+00 WtEn= 0.00D+00
 Coeff-Com:  0.100D+01
 Coeff:      0.100D+01
 Gap=     0.256 Goal=   None    Shift=    0.000
 RMSDP=4.20D-06 MaxDP=2.09D-04 DE= 2.24D-03 OVMax= 3.95D-04

 Cycle   9  Pass 1  IDiag  1:
 RMSU=  1.66D-05    CP:  1.00D+00
 FoFJK:  IHMeth= 1 ICntrl=     0 DoSepK=T KAlg= 1 I1Cent= 0 FoldK=F
 E= -1581.50554456021     Delta-E=       -0.000009360298 Rises=F Damp=F
 DIIS: error= 2.69D-05 at cycle   2 NSaved=   2.
 NSaved= 2 IEnMin= 2 EnMin= -1581.50554456021     IErMin= 2 ErrMin= 2.69D-05
 ErrMax= 2.69D-05 EMaxC= 1.00D-01 BMatC= 8.13D-07 BMatP= 1.22D-05
 IDIUse=1 WtCom= 1.00D+00 WtEn= 0.00D+00
 Coeff-Com:  0.517D-01 0.948D+00
 Coeff:      0.517D-01 0.948D+00
 Gap=     0.256 Goal=   None    Shift=    0.000
 RMSDP=3.02D-06 MaxDP=2.06D-04 DE=-9.36D-06 OVMax= 3.28D-04

 Cycle  10  Pass 1  IDiag  1:
 RMSU=  2.02D-06    CP:  1.00D+00  1.04D+00
 FoFJK:  IHMeth= 1 ICntrl=     0 DoSepK=T KAlg= 1 I1Cent= 0 FoldK=F
 E= -1581.50554458123     Delta-E=       -0.000000021021 Rises=F Damp=F
 DIIS: error= 4.16D-05 at cycle   3 NSaved=   3.
 NSaved= 3 IEnMin= 3 EnMin= -1581.50554458123     IErMin= 2 ErrMin= 2.69D-05
 ErrMax= 4.16D-05 EMaxC= 1.00D-01 BMatC= 1.03D-06 BMatP= 8.13D-07
 IDIUse=1 WtCom= 1.00D+00 WtEn= 0.00D+00
 Coeff-Com: -0.382D-01 0.544D+00 0.494D+00
 Coeff:     -0.382D-01 0.544D+00 0.494D+00
 Gap=     0.256 Goal=   None    Shift=    0.000
 RMSDP=1.62D-06 MaxDP=1.40D-04 DE=-2.10D-08 OVMax= 1.51D-04

 Cycle  11  Pass 1  IDiag  1:
 RMSU=  6.62D-07    CP:  1.00D+00  1.05D+00  5.54D-01
 FoFJK:  IHMeth= 1 ICntrl=     0 DoSepK=T KAlg= 1 I1Cent= 0 FoldK=F
 E= -1581.50554543261     Delta-E=       -0.000000851382 Rises=F Damp=F
 DIIS: error= 6.30D-06 at cycle   4 NSaved=   4.
 NSaved= 4 IEnMin= 4 EnMin= -1581.50554543261     IErMin= 4 ErrMin= 6.30D-06
 ErrMax= 6.30D-06 EMaxC= 1.00D-01 BMatC= 2.13D-08 BMatP= 8.13D-07
 IDIUse=1 WtCom= 1.00D+00 WtEn= 0.00D+00
 Coeff-Com: -0.176D-01 0.140D+00 0.172D+00 0.706D+00
 Coeff:     -0.176D-01 0.140D+00 0.172D+00 0.706D+00
 Gap=     0.256 Goal=   None    Shift=    0.000
 RMSDP=3.31D-07 MaxDP=3.05D-05 DE=-8.51D-07 OVMax= 4.23D-05

 Cycle  12  Pass 1  IDiag  1:
 RMSU=  2.15D-07    CP:  1.00D+00  1.06D+00  5.96D-01  1.04D+00
 FoFJK:  IHMeth= 1 ICntrl=     0 DoSepK=T KAlg= 1 I1Cent= 0 FoldK=F
 E= -1581.50554545414     Delta-E=       -0.000000021524 Rises=F Damp=F
 DIIS: error= 3.20D-06 at cycle   5 NSaved=   5.
 NSaved= 5 IEnMin= 5 EnMin= -1581.50554545414     IErMin= 5 ErrMin= 3.20D-06
 ErrMax= 3.20D-06 EMaxC= 1.00D-01 BMatC= 4.84D-09 BMatP= 2.13D-08
 IDIUse=1 WtCom= 1.00D+00 WtEn= 0.00D+00
 Coeff-Com: -0.392D-03-0.368D-01-0.195D-01 0.306D+00 0.751D+00
 Coeff:     -0.392D-03-0.368D-01-0.195D-01 0.306D+00 0.751D+00
 Gap=     0.256 Goal=   None    Shift=    0.000
 RMSDP=1.96D-07 MaxDP=1.09D-05 DE=-2.15D-08 OVMax= 2.81D-05

 Cycle  13  Pass 1  IDiag  1:
 RMSU=  9.09D-08    CP:  1.00D+00  1.06D+00  6.13D-01  1.19D+00  9.64D-01
 FoFJK:  IHMeth= 1 ICntrl=     0 DoSepK=T KAlg= 1 I1Cent= 0 FoldK=F
 E= -1581.50554546084     Delta-E=       -0.000000006698 Rises=F Damp=F
 DIIS: error= 6.86D-07 at cycle   6 NSaved=   6.
 NSaved= 6 IEnMin= 6 EnMin= -1581.50554546084     IErMin= 6 ErrMin= 6.86D-07
 ErrMax= 6.86D-07 EMaxC= 1.00D-01 BMatC= 5.76D-10 BMatP= 4.84D-09
 IDIUse=1 WtCom= 1.00D+00 WtEn= 0.00D+00
 Coeff-Com:  0.198D-02-0.299D-01-0.299D-01 0.314D-01 0.285D+00 0.741D+00
 Coeff:      0.198D-02-0.299D-01-0.299D-01 0.314D-01 0.285D+00 0.741D+00
 Gap=     0.256 Goal=   None    Shift=    0.000
 RMSDP=8.19D-08 MaxDP=3.34D-06 DE=-6.70D-09 OVMax= 1.71D-05

 Cycle  14  Pass 1  IDiag  1:
 RMSU=  3.63D-08    CP:  1.00D+00  1.06D+00  6.15D-01  1.24D+00  1.10D+00
                    CP:  1.05D+00
 FoFJK:  IHMeth= 1 ICntrl=     0 DoSepK=T KAlg= 1 I1Cent= 0 FoldK=F
 E= -1581.50554546203     Delta-E=       -0.000000001194 Rises=F Damp=F
 DIIS: error= 2.88D-07 at cycle   7 NSaved=   7.
 NSaved= 7 IEnMin= 7 EnMin= -1581.50554546203     IErMin= 7 ErrMin= 2.88D-07
 ErrMax= 2.88D-07 EMaxC= 1.00D-01 BMatC= 1.12D-10 BMatP= 5.76D-10
 IDIUse=1 WtCom= 1.00D+00 WtEn= 0.00D+00
 Coeff-Com:  0.809D-03-0.338D-02-0.834D-02-0.576D-01-0.521D-01 0.284D+00
 Coeff-Com:  0.837D+00
 Coeff:      0.809D-03-0.338D-02-0.834D-02-0.576D-01-0.521D-01 0.284D+00
 Coeff:      0.837D+00
 Gap=     0.256 Goal=   None    Shift=    0.000
 RMSDP=4.60D-08 MaxDP=1.91D-06 DE=-1.19D-09 OVMax= 8.94D-06

 Cycle  15  Pass 1  IDiag  1:
 RMSU=  1.49D-08    CP:  1.00D+00  1.06D+00  6.18D-01  1.27D+00  1.15D+00
                    CP:  1.25D+00  1.09D+00
 FoFJK:  IHMeth= 1 ICntrl=     0 DoSepK=T KAlg= 1 I1Cent= 0 FoldK=F
 E= -1581.50554546226     Delta-E=       -0.000000000230 Rises=F Damp=F
 DIIS: error= 1.26D-07 at cycle   8 NSaved=   8.
 NSaved= 8 IEnMin= 8 EnMin= -1581.50554546226     IErMin= 8 ErrMin= 1.26D-07
 ErrMax= 1.26D-07 EMaxC= 1.00D-01 BMatC= 1.50D-11 BMatP= 1.12D-10
 IDIUse=1 WtCom= 1.00D+00 WtEn= 0.00D+00
 Coeff-Com: -0.130D-04 0.326D-02 0.161D-02-0.243D-01-0.565D-01-0.131D-01
 Coeff-Com:  0.281D+00 0.808D+00
 Coeff:     -0.130D-04 0.326D-02 0.161D-02-0.243D-01-0.565D-01-0.131D-01
 Coeff:      0.281D+00 0.808D+00
 Gap=     0.256 Goal=   None    Shift=    0.000
 RMSDP=1.68D-08 MaxDP=7.20D-07 DE=-2.30D-10 OVMax= 4.29D-06

 Cycle  16  Pass 1  IDiag  1:
 RMSU=  5.92D-09    CP:  1.00D+00  1.06D+00  6.18D-01  1.27D+00  1.17D+00
                    CP:  1.31D+00  1.27D+00  1.10D+00
 FoFJK:  IHMeth= 1 ICntrl=     0 DoSepK=T KAlg= 1 I1Cent= 0 FoldK=F
 E= -1581.50554546229     Delta-E=       -0.000000000034 Rises=F Damp=F
 DIIS: error= 4.50D-08 at cycle   9 NSaved=   9.
 NSaved= 9 IEnMin= 9 EnMin= -1581.50554546229     IErMin= 9 ErrMin= 4.50D-08
 ErrMax= 4.50D-08 EMaxC= 1.00D-01 BMatC= 3.04D-12 BMatP= 1.50D-11
 IDIUse=1 WtCom= 1.00D+00 WtEn= 0.00D+00
 Coeff-Com: -0.155D-03 0.189D-02 0.232D-02 0.134D-02-0.121D-01-0.618D-01
 Coeff-Com: -0.574D-01 0.301D+00 0.825D+00
 Coeff:     -0.155D-03 0.189D-02 0.232D-02 0.134D-02-0.121D-01-0.618D-01
 Coeff:     -0.574D-01 0.301D+00 0.825D+00
 Gap=     0.256 Goal=   None    Shift=    0.000
 RMSDP=7.48D-09 MaxDP=3.03D-07 DE=-3.37D-11 OVMax= 1.85D-06

 SCF Done:  E(RwB97XD) =  -1581.50554546     A.U. after   16 cycles
             Convg  =    0.7482D-08             -V/T =  2.0109
 KE= 1.564457825673D+03 PE=-1.100990672220D+04 EE= 4.193213472676D+03
 Leave Link  502 at Wed Mar  4 06:38:48 2020, MaxMem= 2684354560 cpu:    1132.9
 (Enter /opt/g09gh/gaussian/g09/l601.exe)
 Copying SCF densities to generalized density rwf, IOpCl= 0 IROHF=0.

 **********************************************************************

            Population analysis using the SCF density.

 **********************************************************************

 Orbital symmetries:
       Occupied  (A) (A) (A) (A) (A) (A) (A) (A) (A) (A) (A) (A)
                 (A) (A) (A) (A) (A) (A) (A) (A) (A) (A) (A) (A)
                 (A) (A) (A) (A) (A) (A) (A) (A) (A) (A) (A) (A)
                 (A) (A) (A) (A) (A) (A) (A) (A) (A) (A) (A) (A)
                 (A) (A) (A) (A) (A) (A) (A) (A) (A) (A) (A) (A)
                 (A) (A) (A) (A) (A) (A) (A) (A) (A) (A) (A) (A)
                 (A) (A) (A) (A) (A) (A) (A) (A) (A) (A) (A) (A)
                 (A) (A) (A) (A) (A) (A) (A) (A) (A) (A) (A) (A)
                 (A) (A) (A) (A) (A) (A) (A) (A) (A) (A) (A) (A)
                 (A) (A) (A) (A) (A) (A) (A) (A) (A) (A) (A) (A)
                 (A) (A) (A) (A) (A) (A) (A) (A) (A) (A) (A)
       Virtual   (A) (A) (A) (A) (A) (A) (A) (A) (A) (A) (A) (A)
                 (A) (A) (A) (A) (A) (A) (A) (A) (A) (A) (A) (A)
                 (A) (A) (A) (A) (A) (A) (A) (A) (A) (A) (A) (A)
                 (A) (A) (A) (A) (A) (A) (A) (A) (A) (A) (A) (A)
                 (A) (A) (A) (A) (A) (A) (A) (A) (A) (A) (A) (A)
                 (A) (A) (A) (A) (A) (A) (A) (A) (A) (A) (A) (A)
                 (A) (A) (A) (A) (A) (A) (A) (A) (A) (A) (A) (A)
                 (A) (A) (A) (A) (A) (A) (A) (A) (A) (A) (A) (A)
                 (A) (A) (A) (A) (A) (A) (A) (A) (A) (A) (A) (A)
                 (A) (A) (A) (A) (A) (A) (A) (A) (A) (A) (A) (A)
                 (A) (A) (A) (A) (A) (A) (A) (A) (A) (A) (A) (A)
                 (A) (A) (A) (A) (A) (A) (A) (A) (A) (A) (A) (A)
                 (A) (A) (A) (A) (A) (A) (A) (A) (A) (A) (A) (A)
                 (A) (A) (A) (A) (A) (A) (A) (A) (A) (A) (A) (A)
                 (A) (A) (A) (A) (A) (A) (A) (A) (A) (A) (A) (A)
                 (A) (A) (A) (A) (A) (A) (A) (A) (A) (A) (A) (A)
                 (A) (A) (A) (A) (A) (A) (A) (A) (A) (A) (A) (A)
                 (A) (A) (A) (A) (A) (A) (A) (A) (A) (A) (A) (A)
                 (A) (A) (A) (A) (A) (A) (A) (A) (A) (A) (A) (A)
                 (A) (A) (A) (A) (A) (A) (A) (A) (A) (A) (A) (A)
                 (A) (A) (A) (A) (A) (A) (A) (A) (A) (A) (A) (A)
                 (A) (A) (A) (A) (A) (A) (A) (A) (A) (A) (A) (A)
                 (A) (A) (A) (A) (A) (A) (A) (A) (A) (A) (A) (A)
                 (A) (A) (A) (A) (A) (A) (A) (A) (A) (A) (A) (A)
                 (A) (A) (A) (A) (A) (A) (A) (A) (A) (A) (A) (A)
                 (A) (A) (A) (A) (A) (A) (A) (A) (A) (A) (A) (A)
                 (A) (A) (A) (A) (A) (A) (A) (A) (A) (A) (A) (A)
                 (A) (A) (A) (A) (A) (A) (A) (A) (A) (A) (A) (A)
                 (A) (A) (A) (A) (A) (A) (A) (A) (A) (A) (A) (A)
                 (A) (A) (A) (A) (A) (A) (A) (A) (A) (A) (A) (A)
                 (A) (A) (A) (A) (A) (A) (A) (A) (A) (A) (A) (A)
                 (A) (A) (A) (A) (A) (A) (A) (A) (A) (A) (A) (A)
                 (A) (A) (A) (A) (A) (A) (A) (A) (A) (A) (A) (A)
                 (A) (A) (A) (A) (A) (A) (A) (A) (A) (A) (A) (A)
                 (A) (A) (A) (A) (A) (A) (A) (A) (A) (A) (A) (A)
                 (A) (A) (A) (A) (A) (A) (A) (A) (A) (A) (A) (A)
                 (A) (A) (A) (A) (A) (A) (A) (A) (A) (A) (A) (A)
                 (A) (A) (A) (A) (A) (A) (A) (A) (A) (A) (A) (A)
                 (A) (A) (A) (A) (A) (A) (A) (A) (A) (A) (A) (A)
                 (A) (A) (A) (A) (A) (A) (A) (A) (A) (A) (A) (A)
                 (A) (A) (A) (A) (A) (A)
 The electronic state is 1-A.
 Alpha  occ. eigenvalues --  -19.24713 -14.49323 -14.48231 -14.46631 -14.46125
 Alpha  occ. eigenvalues --  -14.45983 -14.45716 -14.44586 -10.41948 -10.41222
 Alpha  occ. eigenvalues --  -10.38085 -10.36686 -10.36261 -10.35789 -10.35771
 Alpha  occ. eigenvalues --  -10.35715 -10.35527 -10.35158 -10.34953 -10.34824
 Alpha  occ. eigenvalues --  -10.34333 -10.34076 -10.33926 -10.32636 -10.32224
 Alpha  occ. eigenvalues --  -10.32117 -10.32045 -10.31974 -10.31456 -10.31325
 Alpha  occ. eigenvalues --  -10.31264 -10.31175 -10.30900 -10.30235 -10.30214
 Alpha  occ. eigenvalues --  -10.29580 -10.29328  -1.14445  -1.11418  -1.05261
 Alpha  occ. eigenvalues --   -1.03658  -1.03493  -1.03026  -0.99953  -0.99517
 Alpha  occ. eigenvalues --   -0.96408  -0.94477  -0.92243  -0.89218  -0.88174
 Alpha  occ. eigenvalues --   -0.86947  -0.86406  -0.85329  -0.83819  -0.83807
 Alpha  occ. eigenvalues --   -0.82032  -0.79457  -0.77973  -0.77697  -0.75881
 Alpha  occ. eigenvalues --   -0.73216  -0.72976  -0.72259  -0.72046  -0.70926
 Alpha  occ. eigenvalues --   -0.70583  -0.69568  -0.68350  -0.66433  -0.64630
 Alpha  occ. eigenvalues --   -0.63273  -0.62646  -0.61530  -0.61158  -0.60209
 Alpha  occ. eigenvalues --   -0.58584  -0.58415  -0.56947  -0.56594  -0.56108
 Alpha  occ. eigenvalues --   -0.55844  -0.55692  -0.54573  -0.54400  -0.54169
 Alpha  occ. eigenvalues --   -0.53444  -0.52858  -0.52661  -0.52407  -0.52041
 Alpha  occ. eigenvalues --   -0.51518  -0.51218  -0.51166  -0.51045  -0.50534
 Alpha  occ. eigenvalues --   -0.50158  -0.49885  -0.49600  -0.49419  -0.48309
 Alpha  occ. eigenvalues --   -0.47420  -0.47032  -0.46465  -0.46282  -0.45941
 Alpha  occ. eigenvalues --   -0.45341  -0.44967  -0.44442  -0.43902  -0.43715
 Alpha  occ. eigenvalues --   -0.43644  -0.43034  -0.42544  -0.41400  -0.40419
 Alpha  occ. eigenvalues --   -0.40037  -0.38025  -0.37835  -0.37113  -0.35757
 Alpha  occ. eigenvalues --   -0.35249  -0.35011  -0.34502  -0.33442  -0.33364
 Alpha  occ. eigenvalues --   -0.33092  -0.32558  -0.31221  -0.29094  -0.27103
 Alpha  occ. eigenvalues --   -0.26072
 Alpha virt. eigenvalues --   -0.00446   0.02281   0.03241   0.04756   0.05591
 Alpha virt. eigenvalues --    0.07484   0.07719   0.08019   0.09801   0.10066
 Alpha virt. eigenvalues --    0.11525   0.12398   0.13570   0.13759   0.16061
 Alpha virt. eigenvalues --    0.16314   0.17124   0.18325   0.18849   0.19245
 Alpha virt. eigenvalues --    0.19758   0.20085   0.20566   0.21610   0.21857
 Alpha virt. eigenvalues --    0.22686   0.23162   0.23355   0.23459   0.23811
 Alpha virt. eigenvalues --    0.24079   0.24229   0.24750   0.25083   0.25308
 Alpha virt. eigenvalues --    0.25452   0.25868   0.26215   0.26425   0.27276
 Alpha virt. eigenvalues --    0.27705   0.27904   0.28232   0.28534   0.28618
 Alpha virt. eigenvalues --    0.29253   0.29536   0.29610   0.30732   0.31038
 Alpha virt. eigenvalues --    0.31392   0.32006   0.32477   0.33158   0.33852
 Alpha virt. eigenvalues --    0.34040   0.35204   0.35897   0.36122   0.37461
 Alpha virt. eigenvalues --    0.37914   0.38054   0.38776   0.39192   0.39644
 Alpha virt. eigenvalues --    0.39936   0.40450   0.40997   0.41341   0.42223
 Alpha virt. eigenvalues --    0.43392   0.45306   0.45735   0.46508   0.46862
 Alpha virt. eigenvalues --    0.48007   0.49626   0.51121   0.52312   0.53681
 Alpha virt. eigenvalues --    0.55361   0.56005   0.57382   0.57978   0.58166
 Alpha virt. eigenvalues --    0.58683   0.59231   0.59415   0.59566   0.59837
 Alpha virt. eigenvalues --    0.60124   0.60906   0.61042   0.61586   0.62080
 Alpha virt. eigenvalues --    0.62315   0.62867   0.63049   0.63762   0.63910
 Alpha virt. eigenvalues --    0.64292   0.64633   0.65016   0.65125   0.65200
 Alpha virt. eigenvalues --    0.65469   0.65881   0.66311   0.66586   0.66636
 Alpha virt. eigenvalues --    0.66862   0.67252   0.67518   0.68040   0.68280
 Alpha virt. eigenvalues --    0.68663   0.68998   0.69029   0.69947   0.70326
 Alpha virt. eigenvalues --    0.70376   0.70726   0.71117   0.71233   0.71378
 Alpha virt. eigenvalues --    0.72193   0.72478   0.72902   0.73007   0.73188
 Alpha virt. eigenvalues --    0.74087   0.74516   0.75837   0.76071   0.76538
 Alpha virt. eigenvalues --    0.77445   0.77548   0.77830   0.79159   0.80195
 Alpha virt. eigenvalues --    0.80825   0.81337   0.81563   0.81912   0.81981
 Alpha virt. eigenvalues --    0.83360   0.83828   0.84154   0.85265   0.85688
 Alpha virt. eigenvalues --    0.86584   0.87100   0.87651   0.87921   0.88475
 Alpha virt. eigenvalues --    0.89021   0.89373   0.90108   0.90376   0.90769
 Alpha virt. eigenvalues --    0.91448   0.91557   0.91911   0.92085   0.92840
 Alpha virt. eigenvalues --    0.93118   0.93645   0.93894   0.94033   0.94219
 Alpha virt. eigenvalues --    0.94586   0.94722   0.95033   0.95521   0.96496
 Alpha virt. eigenvalues --    0.96704   0.97220   0.97522   0.97969   0.98185
 Alpha virt. eigenvalues --    0.98557   0.99311   0.99674   0.99892   1.00596
 Alpha virt. eigenvalues --    1.00901   1.01304   1.01530   1.01919   1.02420
 Alpha virt. eigenvalues --    1.02655   1.03383   1.04198   1.04567   1.05489
 Alpha virt. eigenvalues --    1.06315   1.06573   1.06671   1.07523   1.07835
[...]
                 (A) (A) (A) (A) (A) (A) (A) (A) (A) (A) (A) (A)
                 (A) (A) (A) (A) (A) (A) (A) (A) (A) (A) (A) (A)
                 (A) (A) (A) (A) (A) (A) (A) (A) (A) (A) (A) (A)
                 (A) (A) (A) (A) (A) (A) (A) (A) (A) (A) (A) (A)
                 (A) (A) (A) (A) (A) (A) (A) (A) (A) (A) (A) (A)
                 (A) (A) (A) (A) (A) (A) (A) (A) (A) (A) (A) (A)
                 (A) (A) (A) (A) (A) (A) (A) (A) (A) (A) (A) (A)
                 (A) (A) (A) (A) (A) (A) (A) (A) (A) (A) (A) (A)
                 (A) (A) (A) (A) (A) (A) (A) (A) (A) (A) (A) (A)
                 (A) (A) (A) (A) (A) (A) (A) (A) (A) (A) (A) (A)
                 (A) (A) (A) (A) (A) (A) (A) (A) (A) (A) (A) (A)
                 (A) (A) (A) (A) (A) (A) (A) (A) (A) (A) (A) (A)
                 (A) (A) (A) (A) (A) (A) (A) (A) (A) (A) (A) (A)
                 (A) (A) (A) (A) (A) (A) (A) (A) (A) (A) (A) (A)
                 (A) (A) (A) (A) (A) (A) (A) (A) (A) (A) (A) (A)
                 (A) (A) (A) (A) (A) (A) (A) (A) (A) (A) (A) (A)
                 (A) (A) (A) (A) (A) (A) (A) (A) (A) (A) (A) (A)
                 (A) (A) (A) (A) (A) (A) (A) (A) (A) (A) (A) (A)
                 (A) (A) (A) (A) (A) (A) (A) (A) (A) (A) (A) (A)
                 (A) (A) (A) (A) (A) (A) (A) (A) (A) (A) (A) (A)
                 (A) (A) (A) (A) (A) (A) (A) (A) (A) (A) (A) (A)
                 (A) (A) (A) (A) (A) (A) (A) (A) (A) (A) (A) (A)
                 (A) (A) (A) (A) (A) (A) (A) (A) (A) (A) (A) (A)
                 (A) (A) (A) (A) (A) (A) (A) (A) (A) (A) (A) (A)
                 (A) (A) (A) (A) (A) (A) (A) (A) (A) (A) (A) (A)
                 (A) (A) (A) (A) (A) (A) (A) (A) (A) (A) (A) (A)
                 (A) (A) (A) (A) (A) (A) (A) (A) (A) (A) (A) (A)
                 (A) (A) (A) (A) (A) (A) (A) (A) (A) (A) (A) (A)
                 (A) (A) (A) (A) (A) (A) (A) (A) (A) (A) (A) (A)
                 (A) (A) (A) (A) (A) (A) (A) (A) (A) (A) (A) (A)
                 (A) (A) (A) (A) (A) (A) (A) (A) (A) (A) (A) (A)
                 (A) (A) (A) (A) (A) (A) (A) (A) (A) (A) (A) (A)
                 (A) (A) (A) (A) (A) (A)
 The electronic state is 1-A.
 Alpha  occ. eigenvalues --  -19.23411 -14.49282 -14.48321 -14.46751 -14.46096
 Alpha  occ. eigenvalues --  -14.45764 -14.43616 -14.43135 -10.41778 -10.40081
 Alpha  occ. eigenvalues --  -10.37615 -10.36338 -10.35325 -10.35084 -10.34623
 Alpha  occ. eigenvalues --  -10.34135 -10.34016 -10.33622 -10.32863 -10.32367
 Alpha  occ. eigenvalues --  -10.31861 -10.31492 -10.31178 -10.30935 -10.30708
 Alpha  occ. eigenvalues --  -10.30688 -10.30676 -10.30585 -10.30533 -10.30402
 Alpha  occ. eigenvalues --  -10.30377 -10.30219 -10.30021 -10.29974 -10.29575
 Alpha  occ. eigenvalues --  -10.28740 -10.28405  -1.13443  -1.12295  -1.06322
 Alpha  occ. eigenvalues --   -1.04565  -1.03829  -1.03634  -1.00715  -0.99558
 Alpha  occ. eigenvalues --   -0.96086  -0.94671  -0.93098  -0.89778  -0.88124
 Alpha  occ. eigenvalues --   -0.87389  -0.86228  -0.85399  -0.84541  -0.83783
 Alpha  occ. eigenvalues --   -0.81888  -0.79581  -0.78270  -0.77798  -0.76320
 Alpha  occ. eigenvalues --   -0.73881  -0.73301  -0.73025  -0.72621  -0.70870
 Alpha  occ. eigenvalues --   -0.70314  -0.69614  -0.68039  -0.66413  -0.65150
 Alpha  occ. eigenvalues --   -0.63656  -0.63409  -0.62228  -0.61762  -0.60211
 Alpha  occ. eigenvalues --   -0.58848  -0.58045  -0.57570  -0.56611  -0.56101
 Alpha  occ. eigenvalues --   -0.55817  -0.55236  -0.55134  -0.54965  -0.54255
 Alpha  occ. eigenvalues --   -0.53867  -0.53239  -0.53154  -0.52612  -0.52174
 Alpha  occ. eigenvalues --   -0.51912  -0.51510  -0.51370  -0.50999  -0.50575
 Alpha  occ. eigenvalues --   -0.50365  -0.50116  -0.49974  -0.49497  -0.48335
 Alpha  occ. eigenvalues --   -0.47217  -0.46906  -0.46619  -0.46319  -0.46211
 Alpha  occ. eigenvalues --   -0.45762  -0.45236  -0.44797  -0.44045  -0.43932
 Alpha  occ. eigenvalues --   -0.43328  -0.43016  -0.42141  -0.41766  -0.41439
 Alpha  occ. eigenvalues --   -0.40964  -0.40776  -0.39912  -0.38187  -0.37592
 Alpha  occ. eigenvalues --   -0.35821  -0.35293  -0.34002  -0.33446  -0.33373
 Alpha  occ. eigenvalues --   -0.32818  -0.31904  -0.30772  -0.29115  -0.27080
 Alpha  occ. eigenvalues --   -0.24996
 Alpha virt. eigenvalues --   -0.00292   0.02872   0.03586   0.04480   0.06434
 Alpha virt. eigenvalues --    0.07258   0.08204   0.10371   0.13887   0.14815
 Alpha virt. eigenvalues --    0.15728   0.16386   0.17252   0.17441   0.18252
 Alpha virt. eigenvalues --    0.19198   0.19759   0.20074   0.20199   0.20629
 Alpha virt. eigenvalues --    0.21234   0.21900   0.22615   0.22767   0.23135
 Alpha virt. eigenvalues --    0.23343   0.23537   0.24192   0.24362   0.24839
 Alpha virt. eigenvalues --    0.25118   0.25124   0.26082   0.26488   0.26551
 Alpha virt. eigenvalues --    0.27065   0.27431   0.27681   0.27997   0.28429
 Alpha virt. eigenvalues --    0.28564   0.28864   0.29436   0.29708   0.30282
 Alpha virt. eigenvalues --    0.31015   0.31165   0.31764   0.32125   0.32246
 Alpha virt. eigenvalues --    0.32892   0.33214   0.33675   0.33955   0.34428
 Alpha virt. eigenvalues --    0.35001   0.36035   0.36538   0.37755   0.38123
 Alpha virt. eigenvalues --    0.38652   0.38809   0.39299   0.40139   0.40740
 Alpha virt. eigenvalues --    0.41235   0.41465   0.42064   0.42207   0.42713
 Alpha virt. eigenvalues --    0.43814   0.45043   0.46208   0.47058   0.47330
 Alpha virt. eigenvalues --    0.48355   0.49428   0.51939   0.53014   0.54230
 Alpha virt. eigenvalues --    0.55739   0.56537   0.57256   0.57912   0.58309
 Alpha virt. eigenvalues --    0.59048   0.59372   0.59611   0.60511   0.60896
 Alpha virt. eigenvalues --    0.61370   0.61485   0.61680   0.62223   0.62698
 Alpha virt. eigenvalues --    0.63200   0.63355   0.63864   0.64090   0.64889
 Alpha virt. eigenvalues --    0.64931   0.65336   0.65507   0.65529   0.65821
 Alpha virt. eigenvalues --    0.66022   0.66272   0.66897   0.66982   0.67473
 Alpha virt. eigenvalues --    0.67616   0.67787   0.68308   0.68615   0.69045
 Alpha virt. eigenvalues --    0.69766   0.70018   0.70550   0.71043   0.71241
 Alpha virt. eigenvalues --    0.71764   0.72092   0.72268   0.72585   0.73056
 Alpha virt. eigenvalues --    0.73333   0.73461   0.74254   0.75226   0.75348
 Alpha virt. eigenvalues --    0.75594   0.75945   0.76256   0.76932   0.77677
 Alpha virt. eigenvalues --    0.77802   0.79112   0.80382   0.80456   0.81764
 Alpha virt. eigenvalues --    0.81971   0.82306   0.83130   0.83261   0.84196
 Alpha virt. eigenvalues --    0.84654   0.85718   0.86629   0.86887   0.87422
 Alpha virt. eigenvalues --    0.88279   0.89047   0.89673   0.90199   0.90738
 Alpha virt. eigenvalues --    0.90924   0.91157   0.91468   0.92209   0.92294
 Alpha virt. eigenvalues --    0.92392   0.92543   0.93563   0.93885   0.94046
 Alpha virt. eigenvalues --    0.94341   0.94529   0.94675   0.95250   0.95604
 Alpha virt. eigenvalues --    0.95949   0.96541   0.97599   0.98197   0.98360
 Alpha virt. eigenvalues --    0.98517   0.99008   0.99058   0.99701   0.99825
 Alpha virt. eigenvalues --    1.00451   1.00624   1.01373   1.01927   1.02023
 Alpha virt. eigenvalues --    1.02503   1.02652   1.03220   1.03675   1.04408
 Alpha virt. eigenvalues --    1.05624   1.05882   1.06646   1.06767   1.07381
 Alpha virt. eigenvalues --    1.07618   1.08220   1.08750   1.08901   1.09057
 Alpha virt. eigenvalues --    1.10207   1.10701   1.11028   1.11713   1.12090
 Alpha virt. eigenvalues --    1.12635   1.13093   1.13792   1.14262   1.15632
 Alpha virt. eigenvalues --    1.16462   1.16988   1.17693   1.18302   1.19274
 Alpha virt. eigenvalues --    1.20081   1.21179   1.21737   1.23134   1.23417
 Alpha virt. eigenvalues --    1.24742   1.25513   1.26099   1.26964   1.27425
 Alpha virt. eigenvalues --    1.29020   1.29352   1.29704   1.30412   1.30876
 Alpha virt. eigenvalues --    1.31927   1.33071   1.33762   1.33901   1.34766
 Alpha virt. eigenvalues --    1.35491   1.36944   1.37302   1.37889   1.38648
 Alpha virt. eigenvalues --    1.39298   1.42348   1.43372   1.43715   1.44585
 Alpha virt. eigenvalues --    1.46482   1.47301   1.47752   1.48441   1.48547
 Alpha virt. eigenvalues --    1.48647   1.49182   1.49468   1.50260   1.51636
 Alpha virt. eigenvalues --    1.51970   1.52736   1.53658   1.54082   1.54530
 Alpha virt. eigenvalues --    1.55183   1.55562   1.56281   1.56870   1.56981
 Alpha virt. eigenvalues --    1.57524   1.57807   1.58456   1.59180   1.59301
 Alpha virt. eigenvalues --    1.59659   1.60106   1.60823   1.61989   1.62519
 Alpha virt. eigenvalues --    1.63911   1.64944   1.65124   1.65691   1.67670
 Alpha virt. eigenvalues --    1.68408   1.69751   1.72013   1.75172   1.76232
 Alpha virt. eigenvalues --    1.78748   1.80596   1.81505   1.82526   1.84278
 Alpha virt. eigenvalues --    1.84719   1.85643   1.86430   1.86959   1.87887
 Alpha virt. eigenvalues --    1.87957   1.88947   1.89941   1.90639   1.90826
 Alpha virt. eigenvalues --    1.91216   1.92461   1.92803   1.93434   1.94263
 Alpha virt. eigenvalues --    1.94426   1.94936   1.95569   1.96615   1.97941
 Alpha virt. eigenvalues --    1.98717   1.99604   2.00124   2.00241   2.01198
 Alpha virt. eigenvalues --    2.01311   2.01499   2.01784   2.02573   2.03678
 Alpha virt. eigenvalues --    2.05537   2.06500   2.06636   2.07322   2.08212
 Alpha virt. eigenvalues --    2.08613   2.08852   2.09736   2.10841   2.11396
 Alpha virt. eigenvalues --    2.12242   2.12581   2.13555   2.14168   2.14817
 Alpha virt. eigenvalues --    2.15879   2.16188   2.17691   2.19550   2.20433
 Alpha virt. eigenvalues --    2.21105   2.21286   2.21688   2.22413   2.22785
 Alpha virt. eigenvalues --    2.22977   2.23633   2.23942   2.24603   2.25134
 Alpha virt. eigenvalues --    2.25945   2.26148   2.26369   2.26887   2.28050
 Alpha virt. eigenvalues --    2.28544   2.29387   2.29952   2.31590   2.32594
 Alpha virt. eigenvalues --    2.34100   2.34928   2.36377   2.37132   2.37172
 Alpha virt. eigenvalues --    2.37913   2.38059   2.38212   2.39477   2.39888
 Alpha virt. eigenvalues --    2.40253   2.40811   2.42122   2.42801   2.43234
 Alpha virt. eigenvalues --    2.43391   2.44334   2.44768   2.44890   2.46221
 Alpha virt. eigenvalues --    2.46453   2.47887   2.48103   2.49413   2.49811
 Alpha virt. eigenvalues --    2.50306   2.50934   2.52052   2.53873   2.56002
 Alpha virt. eigenvalues --    2.58454   2.59877   2.60857   2.62125   2.63398
 Alpha virt. eigenvalues --    2.64710   2.65082   2.65955   2.66089   2.67628
 Alpha virt. eigenvalues --    2.68706   2.70009   2.71802   2.72056   2.72667
 Alpha virt. eigenvalues --    2.74012   2.74385   2.75463   2.76174   2.76865
 Alpha virt. eigenvalues --    2.77169   2.78481   2.78951   2.80940   2.81730
 Alpha virt. eigenvalues --    2.82747   2.83150   2.83724   2.84482   2.85526
 Alpha virt. eigenvalues --    2.86031   2.86479   2.87316   2.88412   2.89257
 Alpha virt. eigenvalues --    2.89962   2.91945   2.92700   2.93387   2.94568
 Alpha virt. eigenvalues --    2.94833   2.96132   2.97875   3.01371   3.02993
 Alpha virt. eigenvalues --    3.04143   3.06696   3.09290   3.10085   3.12017
 Alpha virt. eigenvalues --    3.18948   3.26899   3.29152   3.39174   3.41513
 Alpha virt. eigenvalues --    3.45039   3.53456   3.56406   3.57589   4.12661
 Alpha virt. eigenvalues --    4.13540   4.15201   4.16852   4.18260   4.19134
 Alpha virt. eigenvalues --    4.19562   4.20448   4.21989   4.23543   4.25286
 Alpha virt. eigenvalues --    4.26035   4.27472   4.28699   4.30759   4.31718
 Alpha virt. eigenvalues --    4.33381   4.34589   4.36934   4.40132   4.40370
 Alpha virt. eigenvalues --    4.41611   4.44511   4.46128   4.49150   4.49438
 Alpha virt. eigenvalues --    4.49746   4.52846   4.57341   4.60739   4.61923
 Alpha virt. eigenvalues --    4.64161   4.67477   4.69412   4.79024   4.85076
 Alpha virt. eigenvalues --    4.89518
          Condensed to atoms (all electrons):
 Mulliken atomic charges:
              1
     1  C   -0.197846
     2  C   -0.154395
     3  C    0.035503
     4  C    0.009599
     5  N   -0.437535
     6  C    0.035740
     7  C    0.295151
     8  C   -0.254764
     9  C    0.049017
    10  N   -0.493031
    11  C    0.714342
    12  N   -0.568395
    13  N   -0.802024
    14  C    0.291459
    15  C    0.119859
    16  C   -0.240379
    17  C   -0.191297
    18  C    0.358156
    19  C   -0.269688
    20  N   -0.757980
    21  C    0.585743
    22  C    0.015191
    23  C   -0.205345
    24  C   -0.217907
    25  C    0.155956
    26  C   -0.223077
    27  C   -0.178378
    28  C   -0.263558
    29  N   -0.382208
    30  C   -0.183899
    31  C   -0.181780
    32  N   -0.385718
    33  C   -0.349277
    34  C   -0.182639
    35  C   -0.186529
    36  O   -0.513284
    37  C   -0.607387
    38  H    0.186141
    39  H    0.186727
    40  H    0.198121
    41  H    0.179045
    42  H    0.180747
    43  H    0.189491
    44  H    0.369212
    45  H    0.160819
    46  H    0.213081
    47  H    0.199362
    48  H    0.361560
    49  H    0.185470
    50  H    0.172050
    51  H    0.163614
    52  H    0.195609
    53  H    0.170275
    54  H    0.168920
    55  H    0.148150
    56  H    0.158346
    57  H    0.141660
    58  H    0.174889
    59  H    0.135271
    60  H    0.164118
    61  H    0.167875
    62  H    0.153490
    63  H    0.172934
    64  H    0.159416
    65  H    0.154999
    66  H    0.178041
    67  H    0.182748
    68  H    0.190423
 Sum of Mulliken atomic charges =   0.00000
 Mulliken charges with hydrogens summed into heavy atoms:
              1
     1  C   -0.011705
     2  C    0.032332
     3  C    0.035503
     4  C    0.207720
     5  N   -0.437535
     6  C    0.214786
     7  C    0.295151
     8  C   -0.074016
     9  C    0.238507
    10  N   -0.493031
    11  C    0.714342
    12  N   -0.568395
    13  N   -0.432812
    14  C    0.291459
    15  C    0.119859
    16  C   -0.079561
    17  C    0.021784
    18  C    0.358156
    19  C   -0.070326
    20  N   -0.396421
    21  C    0.585743
    22  C    0.015191
    23  C   -0.019875
    24  C   -0.045857
    25  C    0.155956
    26  C   -0.059463
    27  C    0.017231
    28  C    0.075637
    29  N   -0.382208
    30  C    0.122597
    31  C    0.134769
    32  N   -0.385718
    33  C    0.117988
    34  C    0.143786
    35  C    0.127886
    36  O   -0.513284
    37  C   -0.056176
 Sum of Mulliken charges with hydrogens summed into heavy atoms =   0.00000
 Electronic spatial extent (au):  <R**2>=          21212.2342
 Charge=              0.0000 electrons
 Dipole moment (field-independent basis, Debye):
    X=              0.5809    Y=              6.5720    Z=              0.4334  Tot=              6.6118
 Quadrupole moment (field-independent basis, Debye-Ang):
   XX=           -193.2986   YY=           -202.5015   ZZ=           -220.4852
   XY=              3.1058   XZ=             -1.2842   YZ=             -5.2275
 Traceless Quadrupole moment (field-independent basis, Debye-Ang):
   XX=             12.1298   YY=              2.9270   ZZ=            -15.0568
   XY=              3.1058   XZ=             -1.2842   YZ=             -5.2275
 Octapole moment (field-independent basis, Debye-Ang**2):
  XXX=             80.0854  YYY=            204.3643  ZZZ=             11.3572  XYY=             33.4383
  XXY=            -43.1044  XXZ=             31.6171  XZZ=            -22.7262  YZZ=              1.3457
  YYZ=             17.7401  XYZ=              2.2651
 Hexadecapole moment (field-independent basis, Debye-Ang**3):
 XXXX=         -18571.2730 YYYY=          -7864.6059 ZZZZ=          -1607.6198 XXXY=            -50.9573
 XXXZ=           -102.9157 YYYX=            149.1500 YYYZ=            -76.3904 ZZZX=            -50.0600
 ZZZY=             15.0362 XXYY=          -4005.3897 XXZZ=          -3409.3372 YYZZ=          -1721.4366
 XXYZ=            -52.8435 YYXZ=            -15.9366 ZZXY=            -24.6100
 N-N= 3.895088417371D+03 E-N=-1.146177276422D+04  KE= 1.567156075244D+03
 No NMR shielding tensors so no spin-rotation constants.
 Leave Link  601 at Wed Mar  4 08:23:36 2020, MaxMem= 2684354560 cpu:       3.0
 (Enter /opt/g09gh/gaussian/g09/l9999.exe)
 1\1\GINC-NODE43\FOpt\RwB97XD\6-31G(d)\C29H31N7O1\BDW2292\04-Mar-2020\0
 \\#P opt=(,maxcycle=400) wB97XD/6-31G* MaxDisk=100GB\\MOLECULE0 Rotata
 ble Bond Optimization on node37.bme.utexas.edu\\0,1\C,0.6314085071,3.0
 742272883,-2.4395620423\C,1.9095398593,3.0079449304,-1.8982025782\C,2.
 4026172831,1.7742493987,-1.4767041362\C,1.5697775632,0.6586650001,-1.6
 360483544\N,0.3421862832,0.7074910968,-2.150262492\C,-0.1117282258,1.9
 029685103,-2.5383030938\C,3.7346915726,1.6096131929,-0.8416559978\C,4.
 8041797334,2.4775462876,-1.0425394649\C,5.9743268816,2.1788590917,-0.3
 454059378\N,6.1062349588,1.1362441279,0.4631644861\C,5.015944984,0.350
 4175788,0.5744215737\N,3.848653747,0.5499377668,-0.0373465185\N,5.1712
 064678,-0.7292941383,1.4001965044\C,4.2873536162,-1.7858926903,1.68899
 57057\C,4.8088927825,-2.9507661424,2.2876958113\C,3.9259995786,-3.9958
 976994,2.5456876878\C,2.5698868673,-3.9503499893,2.227373769\C,2.07934
 28712,-2.7878069594,1.6405494576\C,2.9300193809,-1.7087647564,1.402131
 3831\N,0.7539896975,-2.5967534477,1.2162360503\C,-0.2834840348,-3.4892
 895349,1.1294529179\C,-1.4497353667,-2.9354758902,0.3604663698\C,-1.26
 94601516,-2.0897866095,-0.738096531\C,-2.3656385629,-1.5569401328,-1.4
 001019165\C,-3.6637190306,-1.8331263111,-0.9708947395\C,-3.8366976837,
 -2.7239565461,0.0921652113\C,-2.7442720073,-3.2782250021,0.7490471214\
 C,-4.8525613578,-1.1300128657,-1.6054910127\N,-5.1839945838,0.19757197
 15,-1.1106046285\C,-4.3280723799,1.3117086126,-1.5042918754\C,-3.21545
 47071,1.6466338,-0.4941768509\N,-3.7088360639,1.8005362065,0.871571811
 2\C,-4.4142454383,3.0483516881,1.1038464295\C,-4.4688083443,0.61378342
 73,1.2577194211\C,-5.6111633895,0.2878531535,0.2812433847\O,-0.2821606
 627,-4.6017841988,1.6290578196\C,6.2731367404,-3.0696129392,2.62649837
 1\H,0.21257378,4.0193250257,-2.7680640576\H,2.5010740877,3.9112823062,
 -1.7801276219\H,1.9325202229,-0.3198675049,-1.3318328704\H,-1.12089513
 84,1.9224118565,-2.9441845072\H,4.7529594427,3.3282241979,-1.710717200
 2\H,6.8522527361,2.8134378211,-0.4488478665\H,6.1051655258,-0.79308598
 69,1.7768426331\H,4.3176868125,-4.8991048462,3.006826619\H,1.913869661
 8,-4.7881631902,2.4199042656\H,2.5391896703,-0.8071670114,0.9554308496
 \H,0.5625678353,-1.674504442,0.8536000036\H,-0.2763133858,-1.850100074
 8,-1.1067049938\H,-2.1952611336,-0.8985891912,-2.2481313867\H,-4.84335
 44622,-2.9746095391,0.4195109393\H,-2.8784333085,-3.9668569765,1.57732
 04126\H,-4.6847505471,-1.041801617,-2.6857223298\H,-5.7444020176,-1.75
 65128226,-1.4760641645\H,-3.8952372607,1.0922760943,-2.4876853977\H,-4
 .9688158349,2.1972196685,-1.6328203531\H,-2.7089317266,2.5739372412,-0
 .7910749938\H,-2.4616236171,0.8515693497,-0.4884049347\H,-5.3368456815
 ,3.1909397889,0.5139384868\H,-3.7446080514,3.8858085552,0.8786026752\H
 ,-4.6859041406,3.1121148623,2.1631806053\H,-4.8690305055,0.7647838229,
 2.2676584798\H,-3.7698262759,-0.229430493,1.3031409279\H,-6.3819970919
 ,1.0695682668,0.3525147148\H,-6.0932925586,-0.6546198162,0.5641153706\
 H,6.591190649,-2.3219418842,3.3659712011\H,6.9091821297,-2.9509157027,
 1.7396624078\H,6.490927799,-4.0522940347,3.0523339696\\Version=EM64L-G
 09RevA.02\State=1-A\HF=-1581.7632161\RMSD=9.886e-09\RMSF=5.771e-06\Dip
 ole=0.6183879,2.3649028,-0.8896874\Quadrupole=9.6810901,-3.6169117,-6.
 0641784,1.4505526,-0.3266317,-7.2826475\PG=C01 [X(C29H31N7O1)]\\@


 Until you make peace with who you are,
 you'll never be content with what you have.
                           -- Doris Mortman
 Job cpu time:  0 days 10 hours 43 minutes 56.7 seconds.
 File lengths (MBytes):  RWF=    244 Int=      0 D2E=      0 Chk=     25 Scr=      1
 Normal termination of Gaussian 09 at Wed Mar  4 08:23:36 2020.
