 Entering Gaussian System, Link 0=g09
 Input=MOLECULE0-opt-29-28-25-24-187.com
 Output=MOLECULE0-opt-29-28-25-24-187.log
 Initial command:
 /opt/g09gh/gaussian/g09/l1.exe /scratch/bdw2292/Gau-MOLECULE0/Gau-44253.inp -scrdir=/scratch/bdw2292/Gau-MOLECULE0/
 Entering Link 1 = /opt/g09gh/gaussian/g09/l1.exe PID=     44254.
  
 Copyright (c) 1988,1990,1992,1993,1995,1998,2003,2009, Gaussian, Inc.
                  All Rights Reserved.
  
 This is part of the Gaussian(R) 09 program.  It is based on
 the Gaussian(R) 03 system (copyright 2003, Gaussian, Inc.),
 the Gaussian(R) 98 system (copyright 1998, Gaussian, Inc.),
 the Gaussian(R) 94 system (copyright 1995, Gaussian, Inc.),
 the Gaussian 92(TM) system (copyright 1992, Gaussian, Inc.),
 the Gaussian 90(TM) system (copyright 1990, Gaussian, Inc.),
 the Gaussian 88(TM) system (copyright 1988, Gaussian, Inc.),
 the Gaussian 86(TM) system (copyright 1986, Carnegie Mellon
 University), and the Gaussian 82(TM) system (copyright 1983,
 Carnegie Mellon University). Gaussian is a federally registered
 trademark of Gaussian, Inc.
  
 This software contains proprietary and confidential information,
 including trade secrets, belonging to Gaussian, Inc.
  
 This software is provided under written license and may be
 used, copied, transmitted, or stored only in accord with that
 written license.
  
 The following legend is applicable only to US Government
 contracts under FAR:
  
                    RESTRICTED RIGHTS LEGEND
  
 Use, reproduction and disclosure by the US Government is
 subject to restrictions as set forth in subparagraphs (a)
 and (c) of the Commercial Computer Software - Restricted
 Rights clause in FAR 52.227-19.
  
 Gaussian, Inc.
 340 Quinnipiac St., Bldg. 40, Wallingford CT 06492
  
  
 ---------------------------------------------------------------
 Warning -- This program may not be used in any manner that
 competes with the business of Gaussian, Inc. or will provide
 assistance to any competitor of Gaussian, Inc.  The licensee
 of this program is prohibited from giving any competitor of
 Gaussian, Inc. access to this program.  By using this program,
 the user acknowledges that Gaussian, Inc. is engaged in the
 business of creating and licensing software in the field of
 computational chemistry and represents and warrants to the
 licensee that it is not a competitor of Gaussian, Inc. and that
 it will not use this program in any manner prohibited above.
 ---------------------------------------------------------------
  

 Cite this work as:
 Gaussian 09, Revision A.02,
 M. J. Frisch, G. W. Trucks, H. B. Schlegel, G. E. Scuseria, 
 M. A. Robb, J. R. Cheeseman, G. Scalmani, V. Barone, B. Mennucci, 
 G. A. Petersson, H. Nakatsuji, M. Caricato, X. Li, H. P. Hratchian, 
 A. F. Izmaylov, J. Bloino, G. Zheng, J. L. Sonnenberg, M. Hada, 
 M. Ehara, K. Toyota, R. Fukuda, J. Hasegawa, M. Ishida, T. Nakajima, 
 Y. Honda, O. Kitao, H. Nakai, T. Vreven, J. A. Montgomery, Jr., 
 J. E. Peralta, F. Ogliaro, M. Bearpark, J. J. Heyd, E. Brothers, 
 K. N. Kudin, V. N. Staroverov, R. Kobayashi, J. Normand, 
 K. Raghavachari, A. Rendell, J. C. Burant, S. S. Iyengar, J. Tomasi, 
 M. Cossi, N. Rega, J. M. Millam, M. Klene, J. E. Knox, J. B. Cross, 
 V. Bakken, C. Adamo, J. Jaramillo, R. Gomperts, R. E. Stratmann, 
 O. Yazyev, A. J. Austin, R. Cammi, C. Pomelli, J. W. Ochterski, 
 R. L. Martin, K. Morokuma, V. G. Zakrzewski, G. A. Voth, 
 P. Salvador, J. J. Dannenberg, S. Dapprich, A. D. Daniels, 
 O. Farkas, J. B. Foresman, J. V. Ortiz, J. Cioslowski, 
 and D. J. Fox, Gaussian, Inc., Wallingford CT, 2009.
 
 ******************************************
 Gaussian 09:  EM64L-G09RevA.02 11-Jun-2009
                10-Mar-2020 
 ******************************************
 %RWF=/scratch/bdw2292/Gau-MOLECULE0/,100GB
 %Nosave
 %Chk=MOLECULE0-opt-29-28-25-24-187.chk
 %Mem=20GB
 %Nproc=6
 Will use up to    6 processors via shared memory.
 --------------------------------------------------
 #P opt=(,maxcycle=400) wB97XD/6-31G* MaxDisk=100GB
 --------------------------------------------------
 1/6=400,14=-1,18=20,19=15,26=3,38=1/1,3;
 2/9=110,12=2,17=6,18=5,40=1/2;
 3/5=1,6=6,7=1,11=2,16=1,25=1,30=1,71=1,74=-58/1,2,3;
 4//1;
 5/5=2,38=5/2;
 6/7=2,8=2,9=2,10=2,28=1/1;
 7//1,2,3,16;
 1/6=400,14=-1,18=20,19=15/3(2);
 2/9=110/2;
 99//99;
 2/9=110/2;
 3/5=1,6=6,7=1,11=2,16=1,25=1,30=1,71=1,74=-58/1,2,3;
 4/5=5,16=3/1;
 5/5=2,38=5/2;
 7//1,2,3,16;
 1/6=400,14=-1,18=20,19=15/3(-5);
 2/9=110/2;
 6/7=2,8=2,9=2,10=2,19=2,28=1/1;
 99/9=1/99;
 Leave Link    1 at Tue Mar 10 14:49:11 2020, MaxMem= 2684354560 cpu:       0.2
 (Enter /opt/g09gh/gaussian/g09/l101.exe)
 -----------------------------------------------------------------
 MOLECULE0 Rotatable Bond Optimization on g2-node38.bme.utexas.edu
 -----------------------------------------------------------------
 Symbolic Z-matrix:
 Charge =  0 Multiplicity = 1
 C                    -2.49619  -2.45016  -8.14665 
 C                    -1.16432  -2.72878  -8.48338 
 C                    -0.24663  -3.09818  -7.47981 
 C                    -0.77401  -3.18274  -6.16715 
 N                    -2.04331  -2.92827  -5.82521 
 C                    -2.88243  -2.56235  -6.80607 
 C                     1.2026   -3.42076  -7.75071 
 C                     1.8041   -3.48415  -9.01773 
 C                     3.15302  -3.85672  -9.03024 
 N                     3.86999  -4.12709  -7.943 
 C                     3.21942  -4.0111   -6.76625 
 N                     1.93302  -3.67124  -6.64698 
 N                     3.97814  -4.27476  -5.63546 
 C                     3.66789  -4.33573  -4.22776 
 C                     4.57168  -4.98981  -3.33682 
 C                     4.20931  -5.04214  -1.98007 
 C                     3.0321   -4.48796  -1.4636 
 C                     2.17362  -3.8207   -2.34337 
 C                     2.50121  -3.76231  -3.70735 
 N                     0.9372   -3.19012  -1.99404 
 C                     0.2139   -3.19601  -0.82479 
 C                    -1.19316  -2.6329   -0.87616 
 C                    -2.04071  -2.76747  -1.98719 
 C                    -3.31013  -2.18629  -1.98049 
 C                    -3.80585  -1.47809  -0.8643 
 C                    -2.94832  -1.37775   0.24567 
 C                    -1.67241  -1.94707   0.2504 
 C                    -5.19892  -0.8519   -0.98852 
 N                    -5.91155   0.04184  -0.05585 
 C                    -5.50012   1.46324   0.03001 
 C                    -4.59586   1.86293   1.22215 
 N                    -5.12031   1.42812   2.5405 
 C                    -6.12642   2.29237   3.16893 
 C                    -5.41754  -0.02368   2.48424 
 C                    -6.31829  -0.43108   1.2899 
 O                     0.67396  -3.60941   0.22819 
 C                     5.86554  -5.64371  -3.79035 
 H                    -3.2182   -2.15704  -8.90319 
 H                    -0.86724  -2.63782  -9.52524 
 H                    -0.13743  -3.5026   -5.3493 
 H                    -3.90857  -2.35975  -6.50327 
 H                     1.28197  -3.29874  -9.94839 
 H                     3.68791  -3.94905  -9.97518 
 H                     4.90701  -4.55647  -5.91129 
 H                     4.86776  -5.54506  -1.27311 
 H                     2.78834  -4.55373  -0.41009 
 H                     1.84203  -3.25396  -4.3926 
 H                     0.48395  -2.7139   -2.76143 
 H                    -1.69702  -3.30424  -2.86858 
 H                    -3.92268  -2.29192  -2.87646 
 H                    -3.24938  -0.84152   1.13581 
 H                    -1.02233  -1.85566   1.11733 
 H                    -5.17682  -0.28406  -1.93217 
 H                    -5.88603  -1.70658  -1.0983 
 H                    -4.90636   1.86514  -1.14169 
 H                    -6.82223   2.30537   0.20726 
 H                    -4.42277   3.06122   1.23278 
 H                    -3.41445   1.3057    1.06008 
 H                    -7.05185   2.31029   2.58253 
 H                    -5.74381   3.31588   3.25364 
 H                    -6.35396   1.9347    4.17955 
 H                    -6.19245  -0.40639   3.7475 
 H                    -4.61902  -0.48271   2.5147 
 H                    -7.72789   0.33074   1.60001 
 H                    -6.54264  -1.47852   1.27693 
 H                     6.56239  -4.90469  -4.21029 
 H                     5.68252  -6.40246  -4.56426 
 H                     6.39894  -6.15167  -2.97515 
 
 NAtoms=     68 NQM=     68 NQMF=      0 NMic=      0 NMicF=      0 NTot=     68.
                    Isotopes and Nuclear Properties:
 (Nuclear quadrupole moments (NQMom) in fm**2, nuclear magnetic moments (NMagM)
  in nuclear magnetons)

  Atom         1           2           3           4           5           6           7           8           9          10
 IAtWgt=          12          12          12          12          14          12          12          12          12          14
 AtmWgt=  12.0000000  12.0000000  12.0000000  12.0000000  14.0030740  12.0000000  12.0000000  12.0000000  12.0000000  14.0030740
 NucSpn=           0           0           0           0           2           0           0           0           0           2
 AtZEff=   0.0000000   0.0000000   0.0000000   0.0000000   0.0000000   0.0000000   0.0000000   0.0000000   0.0000000   0.0000000
 NQMom=    0.0000000   0.0000000   0.0000000   0.0000000   2.0440000   0.0000000   0.0000000   0.0000000   0.0000000   2.0440000
 NMagM=    0.0000000   0.0000000   0.0000000   0.0000000   0.4037610   0.0000000   0.0000000   0.0000000   0.0000000   0.4037610

  Atom        11          12          13          14          15          16          17          18          19          20
 IAtWgt=          12          14          14          12          12          12          12          12          12          14
 AtmWgt=  12.0000000  14.0030740  14.0030740  12.0000000  12.0000000  12.0000000  12.0000000  12.0000000  12.0000000  14.0030740
 NucSpn=           0           2           2           0           0           0           0           0           0           2
 AtZEff=   0.0000000   0.0000000   0.0000000   0.0000000   0.0000000   0.0000000   0.0000000   0.0000000   0.0000000   0.0000000
 NQMom=    0.0000000   2.0440000   2.0440000   0.0000000   0.0000000   0.0000000   0.0000000   0.0000000   0.0000000   2.0440000
 NMagM=    0.0000000   0.4037610   0.4037610   0.0000000   0.0000000   0.0000000   0.0000000   0.0000000   0.0000000   0.4037610

  Atom        21          22          23          24          25          26          27          28          29          30
 IAtWgt=          12          12          12          12          12          12          12          12          14          12
 AtmWgt=  12.0000000  12.0000000  12.0000000  12.0000000  12.0000000  12.0000000  12.0000000  12.0000000  14.0030740  12.0000000
 NucSpn=           0           0           0           0           0           0           0           0           2           0
 AtZEff=   0.0000000   0.0000000   0.0000000   0.0000000   0.0000000   0.0000000   0.0000000   0.0000000   0.0000000   0.0000000
 NQMom=    0.0000000   0.0000000   0.0000000   0.0000000   0.0000000   0.0000000   0.0000000   0.0000000   2.0440000   0.0000000
 NMagM=    0.0000000   0.0000000   0.0000000   0.0000000   0.0000000   0.0000000   0.0000000   0.0000000   0.4037610   0.0000000

  Atom        31          32          33          34          35          36          37          38          39          40
 IAtWgt=          12          14          12          12          12          16          12           1           1           1
 AtmWgt=  12.0000000  14.0030740  12.0000000  12.0000000  12.0000000  15.9949146  12.0000000   1.0078250   1.0078250   1.0078250
 NucSpn=           0           2           0           0           0           0           0           1           1           1
 AtZEff=   0.0000000   0.0000000   0.0000000   0.0000000   0.0000000   0.0000000   0.0000000   0.0000000   0.0000000   0.0000000
 NQMom=    0.0000000   2.0440000   0.0000000   0.0000000   0.0000000   0.0000000   0.0000000   0.0000000   0.0000000   0.0000000
 NMagM=    0.0000000   0.4037610   0.0000000   0.0000000   0.0000000   0.0000000   0.0000000   2.7928460   2.7928460   2.7928460

  Atom        41          42          43          44          45          46          47          48          49          50
 IAtWgt=           1           1           1           1           1           1           1           1           1           1
 AtmWgt=   1.0078250   1.0078250   1.0078250   1.0078250   1.0078250   1.0078250   1.0078250   1.0078250   1.0078250   1.0078250
 NucSpn=           1           1           1           1           1           1           1           1           1           1
 AtZEff=   0.0000000   0.0000000   0.0000000   0.0000000   0.0000000   0.0000000   0.0000000   0.0000000   0.0000000   0.0000000
 NQMom=    0.0000000   0.0000000   0.0000000   0.0000000   0.0000000   0.0000000   0.0000000   0.0000000   0.0000000   0.0000000
 NMagM=    2.7928460   2.7928460   2.7928460   2.7928460   2.7928460   2.7928460   2.7928460   2.7928460   2.7928460   2.7928460

  Atom        51          52          53          54          55          56          57          58          59          60
 IAtWgt=           1           1           1           1           1           1           1           1           1           1
 AtmWgt=   1.0078250   1.0078250   1.0078250   1.0078250   1.0078250   1.0078250   1.0078250   1.0078250   1.0078250   1.0078250
 NucSpn=           1           1           1           1           1           1           1           1           1           1
 AtZEff=   0.0000000   0.0000000   0.0000000   0.0000000   0.0000000   0.0000000   0.0000000   0.0000000   0.0000000   0.0000000
 NQMom=    0.0000000   0.0000000   0.0000000   0.0000000   0.0000000   0.0000000   0.0000000   0.0000000   0.0000000   0.0000000
 NMagM=    2.7928460   2.7928460   2.7928460   2.7928460   2.7928460   2.7928460   2.7928460   2.7928460   2.7928460   2.7928460

  Atom        61          62          63          64          65          66          67          68
 IAtWgt=           1           1           1           1           1           1           1           1
 AtmWgt=   1.0078250   1.0078250   1.0078250   1.0078250   1.0078250   1.0078250   1.0078250   1.0078250
 NucSpn=           1           1           1           1           1           1           1           1
 AtZEff=   0.0000000   0.0000000   0.0000000   0.0000000   0.0000000   0.0000000   0.0000000   0.0000000
 NQMom=    0.0000000   0.0000000   0.0000000   0.0000000   0.0000000   0.0000000   0.0000000   0.0000000
 NMagM=    2.7928460   2.7928460   2.7928460   2.7928460   2.7928460   2.7928460   2.7928460   2.7928460
 Leave Link  101 at Tue Mar 10 14:49:12 2020, MaxMem= 2684354560 cpu:       0.4
 (Enter /opt/g09gh/gaussian/g09/l103.exe)

 GradGradGradGradGradGradGradGradGradGradGradGradGradGradGradGradGradGrad
 Berny optimization.
 Initialization pass.
                           ----------------------------
                           !    Initial Parameters    !
                           ! (Angstroms and Degrees)  !
 --------------------------                            --------------------------
 ! Name  Definition              Value          Derivative Info.                !
 --------------------------------------------------------------------------------
 ! R1    R(1,2)                  1.4017         estimate D2E/DX2                !
 ! R2    R(1,6)                  1.3996         estimate D2E/DX2                !
 ! R3    R(1,38)                 1.0861         estimate D2E/DX2                !
 ! R4    R(2,3)                  1.4092         estimate D2E/DX2                !
 ! R5    R(2,39)                 1.0872         estimate D2E/DX2                !
 ! R6    R(3,4)                  1.4172         estimate D2E/DX2                !
 ! R7    R(3,7)                  1.5092         estimate D2E/DX2                !
 ! R8    R(4,5)                  1.339          estimate D2E/DX2                !
 ! R9    R(4,40)                 1.0846         estimate D2E/DX2                !
 ! R10   R(5,6)                  1.3417         estimate D2E/DX2                !
 ! R11   R(6,41)                 1.0889         estimate D2E/DX2                !
 ! R12   R(7,8)                  1.404          estimate D2E/DX2                !
 ! R13   R(7,12)                 1.347          estimate D2E/DX2                !
 ! R14   R(8,9)                  1.3995         estimate D2E/DX2                !
 ! R15   R(8,42)                 1.0831         estimate D2E/DX2                !
 ! R16   R(9,10)                 1.3301         estimate D2E/DX2                !
 ! R17   R(9,43)                 1.0897         estimate D2E/DX2                !
 ! R18   R(10,11)                1.3496         estimate D2E/DX2                !
 ! R19   R(11,12)                1.3359         estimate D2E/DX2                !
 ! R20   R(11,13)                1.387          estimate D2E/DX2                !
 ! R21   R(13,14)                1.4428         estimate D2E/DX2                !
 ! R22   R(13,44)                1.0091         estimate D2E/DX2                !
 ! R23   R(14,15)                1.4277         estimate D2E/DX2                !
 ! R24   R(14,19)                1.4003         estimate D2E/DX2                !
 ! R25   R(15,16)                1.4053         estimate D2E/DX2                !
 ! R26   R(15,37)                1.519          estimate D2E/DX2                !
 ! R27   R(16,17)                1.3999         estimate D2E/DX2                !
 ! R28   R(16,45)                1.0892         estimate D2E/DX2                !
 ! R29   R(17,18)                1.3986         estimate D2E/DX2                !
 ! R30   R(17,46)                1.0833         estimate D2E/DX2                !
 ! R31   R(18,19)                1.404          estimate D2E/DX2                !
 ! R32   R(18,20)                1.4312         estimate D2E/DX2                !
 ! R33   R(19,47)                1.0782         estimate D2E/DX2                !
 ! R34   R(20,21)                1.3749         estimate D2E/DX2                !
 ! R35   R(20,48)                1.0105         estimate D2E/DX2                !
 ! R36   R(21,22)                1.5164         estimate D2E/DX2                !
 ! R37   R(21,36)                1.2212         estimate D2E/DX2                !
 ! R38   R(22,23)                1.4039         estimate D2E/DX2                !
 ! R39   R(22,27)                1.4033         estimate D2E/DX2                !
 ! R40   R(23,24)                1.3962         estimate D2E/DX2                !
 ! R41   R(23,49)                1.0877         estimate D2E/DX2                !
 ! R42   R(24,25)                1.4118         estimate D2E/DX2                !
 ! R43   R(24,50)                1.0905         estimate D2E/DX2                !
 ! R44   R(25,26)                1.4062         estimate D2E/DX2                !
 ! R45   R(25,28)                1.5324         estimate D2E/DX2                !
 ! R46   R(26,27)                1.3972         estimate D2E/DX2                !
 ! R47   R(26,51)                1.0819         estimate D2E/DX2                !
 ! R48   R(27,52)                1.0874         estimate D2E/DX2                !
 ! R49   R(28,29)                1.4753         estimate D2E/DX2                !
 ! R50   R(28,53)                1.1015         estimate D2E/DX2                !
 ! R51   R(28,54)                1.1021         estimate D2E/DX2                !
 ! R52   R(29,30)                1.4822         estimate D2E/DX2                !
 ! R53   R(29,35)                1.4833         estimate D2E/DX2                !
 ! R54   R(30,31)                1.5488         estimate D2E/DX2                !
 ! R55   R(30,55)                1.3737         estimate D2E/DX2                !
 ! R56   R(30,56)                1.5775         estimate D2E/DX2                !
 ! R57   R(31,32)                1.484          estimate D2E/DX2                !
 ! R58   R(31,57)                1.2108         estimate D2E/DX2                !
 ! R59   R(31,58)                1.3162         estimate D2E/DX2                !
 ! R60   R(32,33)                1.4677         estimate D2E/DX2                !
 ! R61   R(32,34)                1.483          estimate D2E/DX2                !
 ! R62   R(33,59)                1.0957         estimate D2E/DX2                !
 ! R63   R(33,60)                1.096          estimate D2E/DX2                !
 ! R64   R(33,61)                1.0959         estimate D2E/DX2                !
 ! R65   R(34,35)                1.5504         estimate D2E/DX2                !
 ! R66   R(34,62)                1.5306         estimate D2E/DX2                !
 ! R67   R(34,63)                0.9216         estimate D2E/DX2                !
 ! R68   R(35,64)                1.632          estimate D2E/DX2                !
 ! R69   R(35,65)                1.0713         estimate D2E/DX2                !
 ! R70   R(37,66)                1.0991         estimate D2E/DX2                !
 ! R71   R(37,67)                1.0991         estimate D2E/DX2                !
 ! R72   R(37,68)                1.0987         estimate D2E/DX2                !
 ! A1    A(2,1,6)              118.4481         estimate D2E/DX2                !
 ! A2    A(2,1,38)             121.1955         estimate D2E/DX2                !
 ! A3    A(6,1,38)             120.356          estimate D2E/DX2                !
 ! A4    A(1,2,3)              119.9863         estimate D2E/DX2                !
 ! A5    A(1,2,39)             118.2425         estimate D2E/DX2                !
 ! A6    A(3,2,39)             121.7659         estimate D2E/DX2                !
 ! A7    A(2,3,4)              115.6545         estimate D2E/DX2                !
 ! A8    A(2,3,7)              123.6102         estimate D2E/DX2                !
 ! A9    A(4,3,7)              120.7213         estimate D2E/DX2                !
 ! A10   A(3,4,5)              125.3091         estimate D2E/DX2                !
 ! A11   A(3,4,40)             119.8425         estimate D2E/DX2                !
 ! A12   A(5,4,40)             114.8255         estimate D2E/DX2                !
 ! A13   A(4,5,6)              117.2597         estimate D2E/DX2                !
 ! A14   A(1,6,5)              123.3325         estimate D2E/DX2                !
 ! A15   A(1,6,41)             120.7637         estimate D2E/DX2                !
 ! A16   A(5,6,41)             115.9016         estimate D2E/DX2                !
 ! A17   A(3,7,8)              125.6644         estimate D2E/DX2                !
 ! A18   A(3,7,12)             114.4159         estimate D2E/DX2                !
 ! A19   A(8,7,12)             119.9175         estimate D2E/DX2                !
 ! A20   A(7,8,9)              115.6598         estimate D2E/DX2                !
 ! A21   A(7,8,42)             124.137          estimate D2E/DX2                !
 ! A22   A(9,8,42)             120.1684         estimate D2E/DX2                !
 ! A23   A(8,9,10)             124.4965         estimate D2E/DX2                !
 ! A24   A(8,9,43)             120.2259         estimate D2E/DX2                !
 ! A25   A(10,9,43)            115.2765         estimate D2E/DX2                !
 ! A26   A(9,10,11)            115.8113         estimate D2E/DX2                !
 ! A27   A(10,11,12)           124.3259         estimate D2E/DX2                !
 ! A28   A(10,11,13)           115.52           estimate D2E/DX2                !
 ! A29   A(12,11,13)           120.1539         estimate D2E/DX2                !
 ! A30   A(7,12,11)            119.7564         estimate D2E/DX2                !
 ! A31   A(11,13,14)           133.3022         estimate D2E/DX2                !
 ! A32   A(11,13,44)           109.4965         estimate D2E/DX2                !
 ! A33   A(14,13,44)           116.9266         estimate D2E/DX2                !
 ! A34   A(13,14,15)           119.4779         estimate D2E/DX2                !
 ! A35   A(13,14,19)           121.6327         estimate D2E/DX2                !
 ! A36   A(15,14,19)           118.8887         estimate D2E/DX2                !
 ! A37   A(14,15,16)           117.1482         estimate D2E/DX2                !
 ! A38   A(14,15,37)           123.374          estimate D2E/DX2                !
 ! A39   A(16,15,37)           119.4639         estimate D2E/DX2                !
 ! A40   A(15,16,17)           123.9383         estimate D2E/DX2                !
 ! A41   A(15,16,45)           119.2071         estimate D2E/DX2                !
 ! A42   A(17,16,45)           116.8534         estimate D2E/DX2                !
 ! A43   A(16,17,18)           118.226          estimate D2E/DX2                !
 ! A44   A(16,17,46)           121.5983         estimate D2E/DX2                !
 ! A45   A(18,17,46)           120.1689         estimate D2E/DX2                !
 ! A46   A(17,18,19)           119.191          estimate D2E/DX2                !
 ! A47   A(17,18,20)           125.9383         estimate D2E/DX2                !
 ! A48   A(19,18,20)           114.8578         estimate D2E/DX2                !
 ! A49   A(14,19,18)           122.5769         estimate D2E/DX2                !
 ! A50   A(14,19,47)           117.7918         estimate D2E/DX2                !
 ! A51   A(18,19,47)           119.6301         estimate D2E/DX2                !
 ! A52   A(18,20,21)           131.3115         estimate D2E/DX2                !
 ! A53   A(18,20,48)           114.1908         estimate D2E/DX2                !
 ! A54   A(21,20,48)           114.3228         estimate D2E/DX2                !
 ! A55   A(20,21,22)           117.2409         estimate D2E/DX2                !
 ! A56   A(20,21,36)           122.4485         estimate D2E/DX2                !
 ! A57   A(22,21,36)           120.2968         estimate D2E/DX2                !
 ! A58   A(21,22,23)           123.4632         estimate D2E/DX2                !
 ! A59   A(21,22,27)           118.111          estimate D2E/DX2                !
 ! A60   A(23,22,27)           118.4251         estimate D2E/DX2                !
 ! A61   A(22,23,24)           120.3463         estimate D2E/DX2                !
 ! A62   A(22,23,49)           119.8569         estimate D2E/DX2                !
 ! A63   A(24,23,49)           119.776          estimate D2E/DX2                !
 ! A64   A(23,24,25)           122.1314         estimate D2E/DX2                !
 ! A65   A(23,24,50)           117.8054         estimate D2E/DX2                !
 ! A66   A(25,24,50)           120.0631         estimate D2E/DX2                !
 ! A67   A(24,25,26)           116.4699         estimate D2E/DX2                !
 ! A68   A(24,25,28)           117.3934         estimate D2E/DX2                !
 ! A69   A(26,25,28)           126.1005         estimate D2E/DX2                !
 ! A70   A(25,26,27)           122.038          estimate D2E/DX2                !
 ! A71   A(25,26,51)           121.0037         estimate D2E/DX2                !
 ! A72   A(27,26,51)           116.955          estimate D2E/DX2                !
 ! A73   A(22,27,26)           120.5515         estimate D2E/DX2                !
 ! A74   A(22,27,52)           118.4858         estimate D2E/DX2                !
 ! A75   A(26,27,52)           120.9548         estimate D2E/DX2                !
 ! A76   A(25,28,29)           129.4524         estimate D2E/DX2                !
 ! A77   A(25,28,53)           105.1805         estimate D2E/DX2                !
 ! A78   A(25,28,54)           104.9484         estimate D2E/DX2                !
 ! A79   A(29,28,53)           103.826          estimate D2E/DX2                !
 ! A80   A(29,28,54)           103.3918         estimate D2E/DX2                !
 ! A81   A(53,28,54)           109.0836         estimate D2E/DX2                !
 ! A82   A(28,29,30)           118.9128         estimate D2E/DX2                !
 ! A83   A(28,29,35)           120.856          estimate D2E/DX2                !
 ! A84   A(30,29,35)           109.2266         estimate D2E/DX2                !
 ! A85   A(29,30,31)           117.009          estimate D2E/DX2                !
 ! A86   A(29,30,55)           110.557          estimate D2E/DX2                !
 ! A87   A(29,30,56)           106.6064         estimate D2E/DX2                !
 ! A88   A(31,30,55)           109.1896         estimate D2E/DX2                !
 ! A89   A(31,30,56)           105.3715         estimate D2E/DX2                !
 ! A90   A(55,30,56)           107.5727         estimate D2E/DX2                !
 ! A91   A(30,31,32)           113.6955         estimate D2E/DX2                !
 ! A92   A(30,31,57)           110.2204         estimate D2E/DX2                !
 ! A93   A(30,31,58)           108.6642         estimate D2E/DX2                !
 ! A94   A(32,31,57)           109.4329         estimate D2E/DX2                !
 ! A95   A(32,31,58)           107.6117         estimate D2E/DX2                !
 ! A96   A(57,31,58)           106.9627         estimate D2E/DX2                !
 ! A97   A(31,32,33)           116.7516         estimate D2E/DX2                !
 ! A98   A(31,32,34)           108.9036         estimate D2E/DX2                !
 ! A99   A(33,32,34)           117.0855         estimate D2E/DX2                !
 ! A100  A(32,33,59)           111.0669         estimate D2E/DX2                !
 ! A101  A(32,33,60)           110.1026         estimate D2E/DX2                !
 ! A102  A(32,33,61)           110.1817         estimate D2E/DX2                !
 ! A103  A(59,33,60)           108.7198         estimate D2E/DX2                !
 ! A104  A(59,33,61)           108.8742         estimate D2E/DX2                !
 ! A105  A(60,33,61)           107.8178         estimate D2E/DX2                !
 ! A106  A(32,34,35)           113.7601         estimate D2E/DX2                !
 ! A107  A(32,34,62)           108.3575         estimate D2E/DX2                !
 ! A108  A(32,34,63)           108.2225         estimate D2E/DX2                !
 ! A109  A(35,34,62)           106.0184         estimate D2E/DX2                !
 ! A110  A(35,34,63)           113.4521         estimate D2E/DX2                !
 ! A111  A(62,34,63)           106.67           estimate D2E/DX2                !
 ! A112  A(29,35,34)           117.1179         estimate D2E/DX2                !
 ! A113  A(29,35,64)           105.094          estimate D2E/DX2                !
 ! A114  A(29,35,65)           110.9884         estimate D2E/DX2                !
 ! A115  A(34,35,64)           103.4598         estimate D2E/DX2                !
 ! A116  A(34,35,65)           112.8255         estimate D2E/DX2                !
 ! A117  A(64,35,65)           106.1301         estimate D2E/DX2                !
 ! A118  A(15,37,66)           111.387          estimate D2E/DX2                !
 ! A119  A(15,37,67)           111.4419         estimate D2E/DX2                !
 ! A120  A(15,37,68)           113.0186         estimate D2E/DX2                !
 ! A121  A(66,37,67)           107.499          estimate D2E/DX2                !
 ! A122  A(66,37,68)           106.6507         estimate D2E/DX2                !
 ! A123  A(67,37,68)           106.5063         estimate D2E/DX2                !
 ! D1    D(6,1,2,3)             -0.65           estimate D2E/DX2                !
 ! D2    D(6,1,2,39)          -179.8276         estimate D2E/DX2                !
 ! D3    D(38,1,2,3)           179.5705         estimate D2E/DX2                !
 ! D4    D(38,1,2,39)            0.3929         estimate D2E/DX2                !
 ! D5    D(2,1,6,5)             -0.2518         estimate D2E/DX2                !
 ! D6    D(2,1,6,41)          -179.687          estimate D2E/DX2                !
 ! D7    D(38,1,6,5)           179.5296         estimate D2E/DX2                !
 ! D8    D(38,1,6,41)            0.0944         estimate D2E/DX2                !
 ! D9    D(1,2,3,4)              1.1018         estimate D2E/DX2                !
 ! D10   D(1,2,3,7)            179.7505         estimate D2E/DX2                !
 ! D11   D(39,2,3,4)          -179.7503         estimate D2E/DX2                !
 ! D12   D(39,2,3,7)            -1.1016         estimate D2E/DX2                !
 ! D13   D(2,3,4,5)             -0.7751         estimate D2E/DX2                !
 ! D14   D(2,3,4,40)           177.389          estimate D2E/DX2                !
 ! D15   D(7,3,4,5)           -179.466          estimate D2E/DX2                !
 ! D16   D(7,3,4,40)            -1.3019         estimate D2E/DX2                !
 ! D17   D(2,3,7,8)             -4.4361         estimate D2E/DX2                !
 ! D18   D(2,3,7,12)           176.1168         estimate D2E/DX2                !
 ! D19   D(4,3,7,8)            174.147          estimate D2E/DX2                !
 ! D20   D(4,3,7,12)            -5.3002         estimate D2E/DX2                !
 ! D21   D(3,4,5,6)             -0.0687         estimate D2E/DX2                !
 ! D22   D(40,4,5,6)          -178.3141         estimate D2E/DX2                !
 ! D23   D(4,5,6,1)              0.6068         estimate D2E/DX2                !
 ! D24   D(4,5,6,41)          -179.9327         estimate D2E/DX2                !
 ! D25   D(3,7,8,9)           -177.4521         estimate D2E/DX2                !
 ! D26   D(3,7,8,42)             0.3984         estimate D2E/DX2                !
 ! D27   D(12,7,8,9)             1.9671         estimate D2E/DX2                !
 ! D28   D(12,7,8,42)          179.8176         estimate D2E/DX2                !
 ! D29   D(3,7,12,11)          177.8437         estimate D2E/DX2                !
 ! D30   D(8,7,12,11)           -1.6381         estimate D2E/DX2                !
 ! D31   D(7,8,9,10)            -0.8413         estimate D2E/DX2                !
 ! D32   D(7,8,9,43)           178.7634         estimate D2E/DX2                !
 ! D33   D(42,8,9,10)         -178.7835         estimate D2E/DX2                !
 ! D34   D(42,8,9,43)            0.8213         estimate D2E/DX2                !
 ! D35   D(8,9,10,11)           -0.6228         estimate D2E/DX2                !
 ! D36   D(43,9,10,11)         179.7548         estimate D2E/DX2                !
 ! D37   D(9,10,11,12)           1.071          estimate D2E/DX2                !
 ! D38   D(9,10,11,13)        -179.0654         estimate D2E/DX2                !
 ! D39   D(10,11,12,7)           0.0534         estimate D2E/DX2                !
 ! D40   D(13,11,12,7)        -179.8043         estimate D2E/DX2                !
 ! D41   D(10,11,13,14)       -176.1637         estimate D2E/DX2                !
 ! D42   D(10,11,13,44)         -2.5598         estimate D2E/DX2                !
 ! D43   D(12,11,13,14)          3.706          estimate D2E/DX2                !
 ! D44   D(12,11,13,44)        177.3099         estimate D2E/DX2                !
 ! D45   D(11,13,14,15)        162.6154         estimate D2E/DX2                !
 ! D46   D(11,13,14,19)        -17.6926         estimate D2E/DX2                !
 ! D47   D(44,13,14,15)        -10.6204         estimate D2E/DX2                !
 ! D48   D(44,13,14,19)        169.0716         estimate D2E/DX2                !
 ! D49   D(13,14,15,16)       -178.8525         estimate D2E/DX2                !
 ! D50   D(13,14,15,37)         -0.2186         estimate D2E/DX2                !
 ! D51   D(19,14,15,16)          1.447          estimate D2E/DX2                !
 ! D52   D(19,14,15,37)       -179.9191         estimate D2E/DX2                !
 ! D53   D(13,14,19,18)        179.3916         estimate D2E/DX2                !
 ! D54   D(13,14,19,47)         -1.0178         estimate D2E/DX2                !
 ! D55   D(15,14,19,18)         -0.9147         estimate D2E/DX2                !
 ! D56   D(15,14,19,47)        178.676          estimate D2E/DX2                !
 ! D57   D(14,15,16,17)         -0.4281         estimate D2E/DX2                !
 ! D58   D(14,15,16,45)        179.1748         estimate D2E/DX2                !
 ! D59   D(37,15,16,17)       -179.1178         estimate D2E/DX2                !
 ! D60   D(37,15,16,45)          0.4851         estimate D2E/DX2                !
 ! D61   D(14,15,37,66)         63.6031         estimate D2E/DX2                !
 ! D62   D(14,15,37,67)        -56.4465         estimate D2E/DX2                !
 ! D63   D(14,15,37,68)       -176.3481         estimate D2E/DX2                !
 ! D64   D(16,15,37,66)       -117.7931         estimate D2E/DX2                !
 ! D65   D(16,15,37,67)        122.1573         estimate D2E/DX2                !
 ! D66   D(16,15,37,68)          2.2557         estimate D2E/DX2                !
 ! D67   D(15,16,17,18)         -1.1767         estimate D2E/DX2                !
 ! D68   D(15,16,17,46)        179.7657         estimate D2E/DX2                !
 ! D69   D(45,16,17,18)        179.2117         estimate D2E/DX2                !
 ! D70   D(45,16,17,46)          0.1542         estimate D2E/DX2                !
 ! D71   D(16,17,18,19)          1.7212         estimate D2E/DX2                !
 ! D72   D(16,17,18,20)       -179.6571         estimate D2E/DX2                !
 ! D73   D(46,17,18,19)       -179.2073         estimate D2E/DX2                !
 ! D74   D(46,17,18,20)         -0.5856         estimate D2E/DX2                !
 ! D75   D(17,18,19,14)         -0.7175         estimate D2E/DX2                !
 ! D76   D(17,18,19,47)        179.6991         estimate D2E/DX2                !
 ! D77   D(20,18,19,14)       -179.4876         estimate D2E/DX2                !
 ! D78   D(20,18,19,47)          0.929          estimate D2E/DX2                !
 ! D79   D(17,18,20,21)         -8.4644         estimate D2E/DX2                !
 ! D80   D(17,18,20,48)        176.6979         estimate D2E/DX2                !
 ! D81   D(19,18,20,21)        170.2095         estimate D2E/DX2                !
 ! D82   D(19,18,20,48)         -4.6283         estimate D2E/DX2                !
 ! D83   D(18,20,21,22)       -168.6455         estimate D2E/DX2                !
 ! D84   D(18,20,21,36)         12.7015         estimate D2E/DX2                !
 ! D85   D(48,20,21,22)          6.1869         estimate D2E/DX2                !
 ! D86   D(48,20,21,36)       -172.4661         estimate D2E/DX2                !
 ! D87   D(20,21,22,23)         35.0227         estimate D2E/DX2                !
 ! D88   D(20,21,22,27)       -145.2863         estimate D2E/DX2                !
 ! D89   D(36,21,22,23)       -146.2938         estimate D2E/DX2                !
 ! D90   D(36,21,22,27)         33.3972         estimate D2E/DX2                !
 ! D91   D(21,22,23,24)       -177.9701         estimate D2E/DX2                !
 ! D92   D(21,22,23,49)          0.3694         estimate D2E/DX2                !
 ! D93   D(27,22,23,24)          2.3398         estimate D2E/DX2                !
 ! D94   D(27,22,23,49)       -179.3207         estimate D2E/DX2                !
 ! D95   D(21,22,27,26)        178.3409         estimate D2E/DX2                !
 ! D96   D(21,22,27,52)         -0.6443         estimate D2E/DX2                !
 ! D97   D(23,22,27,26)         -1.9522         estimate D2E/DX2                !
 ! D98   D(23,22,27,52)        179.0626         estimate D2E/DX2                !
 ! D99   D(22,23,24,25)         -1.6233         estimate D2E/DX2                !
 ! D100  D(22,23,24,50)        178.2494         estimate D2E/DX2                !
 ! D101  D(49,23,24,25)       -179.9642         estimate D2E/DX2                !
 ! D102  D(49,23,24,50)         -0.0914         estimate D2E/DX2                !
 ! D103  D(23,24,25,26)          0.4359         estimate D2E/DX2                !
 ! D104  D(23,24,25,28)        178.3852         estimate D2E/DX2                !
 ! D105  D(50,24,25,26)       -179.4341         estimate D2E/DX2                !
 ! D106  D(50,24,25,28)         -1.4847         estimate D2E/DX2                !
 ! D107  D(24,25,26,27)         -0.034          estimate D2E/DX2                !
 ! D108  D(24,25,26,51)        179.2869         estimate D2E/DX2                !
 ! D109  D(28,25,26,27)       -177.7805         estimate D2E/DX2                !
 ! D110  D(28,25,26,51)          1.5404         estimate D2E/DX2                !
 ! D111  D(24,25,28,29)       -173.3518         estimate D2E/DX2                !
 ! D112  D(24,25,28,53)        -50.3978         estimate D2E/DX2                !
 ! D113  D(24,25,28,54)         64.6311         estimate D2E/DX2                !
 ! D114  D(26,25,28,29)          4.3761         estimate D2E/DX2                !
 ! D115  D(26,25,28,53)        127.3302         estimate D2E/DX2                !
 ! D116  D(26,25,28,54)       -117.641          estimate D2E/DX2                !
 ! D117  D(25,26,27,22)          0.8203         estimate D2E/DX2                !
 ! D118  D(25,26,27,52)        179.7802         estimate D2E/DX2                !
 ! D119  D(51,26,27,22)       -178.5267         estimate D2E/DX2                !
 ! D120  D(51,26,27,52)          0.4332         estimate D2E/DX2                !
 ! D121  D(25,28,29,30)         75.2236         estimate D2E/DX2                !
 ! D122  D(25,28,29,35)        -64.9691         estimate D2E/DX2                !
 ! D123  D(53,28,29,30)        -48.2655         estimate D2E/DX2                !
 ! D124  D(53,28,29,35)        171.5418         estimate D2E/DX2                !
 ! D125  D(54,28,29,30)       -162.1382         estimate D2E/DX2                !
 ! D126  D(54,28,29,35)         57.669          estimate D2E/DX2                !
 ! D127  D(28,29,30,31)       -100.4438         estimate D2E/DX2                !
 ! D128  D(28,29,30,55)         25.3718         estimate D2E/DX2                !
 ! D129  D(28,29,30,56)        142.0082         estimate D2E/DX2                !
 ! D130  D(35,29,30,31)         43.9609         estimate D2E/DX2                !
 ! D131  D(35,29,30,55)        169.7765         estimate D2E/DX2                !
 ! D132  D(35,29,30,56)        -73.5871         estimate D2E/DX2                !
 ! D133  D(28,29,35,34)         99.9305         estimate D2E/DX2                !
 ! D134  D(28,29,35,64)       -145.9288         estimate D2E/DX2                !
 ! D135  D(28,29,35,65)        -31.6195         estimate D2E/DX2                !
 ! D136  D(30,29,35,34)        -43.6628         estimate D2E/DX2                !
 ! D137  D(30,29,35,64)         70.4779         estimate D2E/DX2                !
 ! D138  D(30,29,35,65)       -175.2128         estimate D2E/DX2                !
 ! D139  D(29,30,31,32)        -51.2972         estimate D2E/DX2                !
 ! D140  D(29,30,31,57)       -174.5852         estimate D2E/DX2                !
 ! D141  D(29,30,31,58)         68.505          estimate D2E/DX2                !
 ! D142  D(55,30,31,32)       -177.7893         estimate D2E/DX2                !
 ! D143  D(55,30,31,57)         58.9226         estimate D2E/DX2                !
 ! D144  D(55,30,31,58)        -57.9871         estimate D2E/DX2                !
 ! D145  D(56,30,31,32)         66.9196         estimate D2E/DX2                !
 ! D146  D(56,30,31,57)        -56.3684         estimate D2E/DX2                !
 ! D147  D(56,30,31,58)       -173.2782         estimate D2E/DX2                !
 ! D148  D(30,31,32,33)        -83.0046         estimate D2E/DX2                !
 ! D149  D(30,31,32,34)         52.3594         estimate D2E/DX2                !
 ! D150  D(57,31,32,33)         40.7124         estimate D2E/DX2                !
 ! D151  D(57,31,32,34)        176.0764         estimate D2E/DX2                !
 ! D152  D(58,31,32,33)        156.5983         estimate D2E/DX2                !
 ! D153  D(58,31,32,34)        -68.0377         estimate D2E/DX2                !
 ! D154  D(31,32,33,59)         65.6522         estimate D2E/DX2                !
 ! D155  D(31,32,33,60)        -54.8269         estimate D2E/DX2                !
 ! D156  D(31,32,33,61)       -173.6224         estimate D2E/DX2                !
 ! D157  D(34,32,33,59)        -66.0524         estimate D2E/DX2                !
 ! D158  D(34,32,33,60)        173.4685         estimate D2E/DX2                !
 ! D159  D(34,32,33,61)         54.673          estimate D2E/DX2                !
 ! D160  D(31,32,34,35)        -52.0425         estimate D2E/DX2                !
 ! D161  D(31,32,34,62)       -169.6717         estimate D2E/DX2                !
 ! D162  D(31,32,34,63)         75.0229         estimate D2E/DX2                !
 ! D163  D(33,32,34,35)         83.1536         estimate D2E/DX2                !
 ! D164  D(33,32,34,62)        -34.4756         estimate D2E/DX2                !
 ! D165  D(33,32,34,63)       -149.781          estimate D2E/DX2                !
 ! D166  D(32,34,35,29)         50.6676         estimate D2E/DX2                !
 ! D167  D(32,34,35,64)        -64.3816         estimate D2E/DX2                !
 ! D168  D(32,34,35,65)       -178.6285         estimate D2E/DX2                !
 ! D169  D(62,34,35,29)        169.6406         estimate D2E/DX2                !
 ! D170  D(62,34,35,64)         54.5914         estimate D2E/DX2                !
 ! D171  D(62,34,35,65)        -59.6555         estimate D2E/DX2                !
 ! D172  D(63,34,35,29)        -73.6243         estimate D2E/DX2                !
 ! D173  D(63,34,35,64)        171.3266         estimate D2E/DX2                !
 ! D174  D(63,34,35,65)         57.0797         estimate D2E/DX2                !
 --------------------------------------------------------------------------------
 Trust Radius=3.00D-01 FncErr=1.00D-07 GrdErr=1.00D-06
 Number of steps in this run= 400 maximum allowed number of steps= 408.
 GradGradGradGradGradGradGradGradGradGradGradGradGradGradGradGradGradGrad

 Leave Link  103 at Tue Mar 10 14:49:12 2020, MaxMem= 2684354560 cpu:       0.1
 (Enter /opt/g09gh/gaussian/g09/l202.exe)
 Stoichiometry    C29H31N7O
 Framework group  C1[X(C29H31N7O)]
 Deg. of freedom   198
 Full point group                 C1      NOp   1
 Largest Abelian subgroup         C1      NOp   1
 Largest concise Abelian subgroup C1      NOp   1
                         Standard orientation:                         
 ---------------------------------------------------------------------
 Center     Atomic      Atomic             Coordinates (Angstroms)
 Number     Number       Type             X           Y           Z
 ---------------------------------------------------------------------
      1          6           0        2.072554    5.061830   -0.408644
      2          6           0        3.291412    4.468811   -0.051444
      3          6           0        3.421654    3.065703   -0.061455
      4          6           0        2.271543    2.345657   -0.470265
      5          7           0        1.100950    2.892108   -0.822252
      6          6           0        1.010846    4.230186   -0.782901
      7          6           0        4.695262    2.342308    0.302325
      8          6           0        5.923497    2.950285    0.607210
      9          6           0        6.985872    2.075682    0.862140
     10          7           0        6.889812    0.749117    0.846847
     11          6           0        5.665046    0.251732    0.574826
     12          7           0        4.590278    0.999393    0.309432
     13          7           0        5.567220   -1.131825    0.580328
     14          6           0        4.494965   -2.049206    0.279843
     15          6           0        4.795932   -3.419962    0.017387
     16          6           0        3.717209   -4.265055   -0.294057
     17          6           0        2.384005   -3.841960   -0.350907
     18          6           0        2.101580   -2.503859   -0.057767
     19          6           0        3.159017   -1.631161    0.244525
     20          7           0        0.804242   -1.899441   -0.058795
     21          6           0       -0.418193   -2.374754   -0.471212
     22          6           0       -1.552754   -1.374050   -0.575633
     23          6           0       -1.374597   -0.041069   -0.978448
     24          6           0       -2.459631    0.836919   -1.011245
     25          6           0       -3.768866    0.425343   -0.680063
     26          6           0       -3.926477   -0.920318   -0.303499
     27          6           0       -2.848798   -1.808380   -0.258143
     28          6           0       -4.872328    1.488016   -0.716110
     29          7           0       -6.283824    1.388317   -0.298716
     30          6           0       -6.605207    1.391870    1.148261
     31          6           0       -6.897818    0.021127    1.807114
     32          7           0       -7.915145   -0.782554    1.085114
     33          6           0       -9.322164   -0.479117    1.372049
     34          6           0       -7.523557   -0.883612   -0.341656
     35          6           0       -7.224228    0.485033   -1.005726
     36          8           0       -0.611414   -3.553764   -0.724028
     37          6           0        6.206607   -3.983119    0.030733
     38          1           0        1.948334    6.140757   -0.401124
     39          1           0        4.113001    5.117816    0.241450
     40          1           0        2.309697    1.264193   -0.543808
     41          1           0        0.049104    4.650878   -1.072327
     42          1           0        6.085267    4.021176    0.618960
     43          1           0        7.977489    2.467843    1.086749
     44          1           0        6.476609   -1.533055    0.754312
     45          1           0        3.910181   -5.314290   -0.513484
     46          1           0        1.581448   -4.526094   -0.598890
     47          1           0        2.949801   -0.597070    0.466795
     48          1           0        0.798215   -0.931378    0.230876
     49          1           0       -0.381655    0.317279   -1.240649
     50          1           0       -2.269125    1.870347   -1.302571
     51          1           0       -4.895912   -1.310893   -0.023891
     52          1           0       -2.990214   -2.844810    0.039076
     53          1           0       -4.481350    2.330061   -0.123241
     54          1           0       -4.939632    1.792215   -1.773267
     55          1           0       -5.620722    2.033700    1.859448
     56          1           0       -7.933318    2.227062    1.313064
     57          1           0       -7.247319    0.175156    2.956075
     58          1           0       -5.783658   -0.679127    1.835229
     59          1           0       -9.585346    0.528297    1.030794
     60          1           0       -9.509636   -0.545579    2.449817
     61          1           0       -9.974771   -1.204322    0.872804
     62          1           0       -8.695451   -1.484301   -1.121797
     63          1           0       -6.826996   -1.483385   -0.407528
     64          1           0       -8.664263    1.251760   -0.961502
     65          1           0       -6.965787    0.396670   -2.041594
     66          1           0        6.658266   -3.909170    1.030050
     67          1           0        6.861141   -3.443891   -0.668514
     68          1           0        6.248879   -5.042821   -0.256211
 ---------------------------------------------------------------------
 Rotational constants (GHZ):      0.1565107      0.0421481      0.0344092
 Leave Link  202 at Tue Mar 10 14:49:12 2020, MaxMem= 2684354560 cpu:       0.0
 (Enter /opt/g09gh/gaussian/g09/l301.exe)
 Standard basis: 6-31G(d) (6D, 7F)
 Ernie: Thresh=  0.10000D-02 Tol=  0.10000D-05 Strict=F.
 There are   617 symmetry adapted basis functions of A   symmetry.
 Integral buffers will be    131072 words long.
 Raffenetti 2 integral format.
 Two-electron integral symmetry is turned on.
   617 basis functions,  1160 primitive gaussians,   617 cartesian basis functions
   131 alpha electrons      131 beta electrons
       nuclear repulsion energy      3631.9147958564 Hartrees.
 IExCor= 4639 DFT=T Ex+Corr=wB97XD ExCW=0 ScaHFX=  1.000000
 ScaDFX=  1.000000  1.000000  1.000000  1.000000 ScalE2=  1.000000  1.000000
 IRadAn=      0 IRanWt=     -1 IRanGd=            0 ICorTp=0
  HFx wShort=  0.000000 wLong=  0.200000 cFull=  0.222036 cShort=  0.000000 cLong=  0.777964
  DFx wShort=  0.000000 wLong=  0.200000 cFull=  0.000000 cShort=  0.000000 cLong=  1.000000
 NAtoms=   68 NActive=   68 NUniq=   68 SFac= 7.50D-01 NAtFMM=   80 NAOKFM=F Big=T
 R6Disp: Dispersion energy =        -0.0555266103 Hartrees.
 Nuclear repulsion after empirical dispersion term =     3631.8592692461 Hartrees.
 Leave Link  301 at Tue Mar 10 14:49:12 2020, MaxMem= 2684354560 cpu:       0.3
 (Enter /opt/g09gh/gaussian/g09/l302.exe)
 NPDir=0 NMtPBC=     1 NCelOv=     1 NCel=       1 NClECP=     1 NCelD=      1
         NCelK=      1 NCelE2=     1 NClLst=     1 CellRange=     0.0.
 One-electron integrals computed using PRISM.
 NBasis=   617 RedAO= T  NBF=   617
 NBsUse=   617 1.00D-06 NBFU=   617
 Precomputing XC quadrature grid using
 IXCGrd= 2 IRadAn=           0 IRanWt=          -1 IRanGd=           0 AccXCQ= 1.00D-10.
 NRdTot=    4406 NPtTot=      563904 NUsed=      595643 NTot=      595675
 NSgBfM=   585   585   585   585   585 NAtAll=    68    68.
 Leave Link  302 at Tue Mar 10 14:49:13 2020, MaxMem= 2684354560 cpu:       7.1
 (Enter /opt/g09gh/gaussian/g09/l303.exe)
 DipDrv:  MaxL=1.
 Leave Link  303 at Tue Mar 10 14:49:13 2020, MaxMem= 2684354560 cpu:       0.5
 (Enter /opt/g09gh/gaussian/g09/l401.exe)
 Harris functional with IExCor= 4639 diagonalized for initial guess.
 ExpMin= 1.61D-01 ExpMax= 5.48D+03 ExpMxC= 8.25D+02 IAcc=1 IRadAn=         1 AccDes= 0.00D+00
 HarFok:  IExCor= 4639 AccDes= 0.00D+00 IRadAn=         1 IDoV= 1
 ScaDFX=  1.000000  1.000000  1.000000  1.000000
 FoFCou: FMM=F IPFlag=           0 FMFlag=      100000 FMFlg1=           1
         NFxFlg=           0 DoJE=T BraDBF=F KetDBF=T FulRan=T
         Omega=  0.000000  0.000000  1.000000  0.000000  0.000000 ICntrl=     500 IOpCl=  0
         NMat0=    1 NMatS0=    1 NMatT0=    0 NMatD0=    1 NMtDS0=    0 NMtDT0=    0
         I1Cent=           4 NGrid=           0.
 Petite list used in FoFCou.
 Harris En= -1512.34770108958    
 Initial guess orbital symmetries:
       Occupied  (A) (A) (A) (A) (A) (A) (A) (A) (A) (A) (A) (A)
                 (A) (A) (A) (A) (A) (A) (A) (A) (A) (A) (A) (A)
                 (A) (A) (A) (A) (A) (A) (A) (A) (A) (A) (A) (A)
                 (A) (A) (A) (A) (A) (A) (A) (A) (A) (A) (A) (A)
                 (A) (A) (A) (A) (A) (A) (A) (A) (A) (A) (A) (A)
                 (A) (A) (A) (A) (A) (A) (A) (A) (A) (A) (A) (A)
                 (A) (A) (A) (A) (A) (A) (A) (A) (A) (A) (A) (A)
                 (A) (A) (A) (A) (A) (A) (A) (A) (A) (A) (A) (A)
                 (A) (A) (A) (A) (A) (A) (A) (A) (A) (A) (A) (A)
                 (A) (A) (A) (A) (A) (A) (A) (A) (A) (A) (A) (A)
                 (A) (A) (A) (A) (A) (A) (A) (A) (A) (A) (A)
       Virtual   (A) (A) (A) (A) (A) (A) (A) (A) (A) (A) (A) (A)
                 (A) (A) (A) (A) (A) (A) (A) (A) (A) (A) (A) (A)
                 (A) (A) (A) (A) (A) (A) (A) (A) (A) (A) (A) (A)
                 (A) (A) (A) (A) (A) (A) (A) (A) (A) (A) (A) (A)
                 (A) (A) (A) (A) (A) (A) (A) (A) (A) (A) (A) (A)
                 (A) (A) (A) (A) (A) (A) (A) (A) (A) (A) (A) (A)
                 (A) (A) (A) (A) (A) (A) (A) (A) (A) (A) (A) (A)
                 (A) (A) (A) (A) (A) (A) (A) (A) (A) (A) (A) (A)
                 (A) (A) (A) (A) (A) (A) (A) (A) (A) (A) (A) (A)
                 (A) (A) (A) (A) (A) (A) (A) (A) (A) (A) (A) (A)
                 (A) (A) (A) (A) (A) (A) (A) (A) (A) (A) (A) (A)
                 (A) (A) (A) (A) (A) (A) (A) (A) (A) (A) (A) (A)
                 (A) (A) (A) (A) (A) (A) (A) (A) (A) (A) (A) (A)
                 (A) (A) (A) (A) (A) (A) (A) (A) (A) (A) (A) (A)
                 (A) (A) (A) (A) (A) (A) (A) (A) (A) (A) (A) (A)
                 (A) (A) (A) (A) (A) (A) (A) (A) (A) (A) (A) (A)
                 (A) (A) (A) (A) (A) (A) (A) (A) (A) (A) (A) (A)
                 (A) (A) (A) (A) (A) (A) (A) (A) (A) (A) (A) (A)
                 (A) (A) (A) (A) (A) (A) (A) (A) (A) (A) (A) (A)
                 (A) (A) (A) (A) (A) (A) (A) (A) (A) (A) (A) (A)
                 (A) (A) (A) (A) (A) (A) (A) (A) (A) (A) (A) (A)
                 (A) (A) (A) (A) (A) (A) (A) (A) (A) (A) (A) (A)
                 (A) (A) (A) (A) (A) (A) (A) (A) (A) (A) (A) (A)
                 (A) (A) (A) (A) (A) (A) (A) (A) (A) (A) (A) (A)
                 (A) (A) (A) (A) (A) (A) (A) (A) (A) (A) (A) (A)
                 (A) (A) (A) (A) (A) (A) (A) (A) (A) (A) (A) (A)
                 (A) (A) (A) (A) (A) (A) (A) (A) (A) (A) (A) (A)
                 (A) (A) (A) (A) (A) (A) (A) (A) (A) (A) (A) (A)
                 (A) (A) (A) (A) (A) (A) (A) (A) (A) (A) (A) (A)
                 (A) (A) (A) (A) (A) (A) (A) (A) (A) (A) (A) (A)
                 (A) (A) (A) (A) (A) (A) (A) (A) (A) (A) (A) (A)
                 (A) (A) (A) (A) (A) (A) (A) (A) (A) (A) (A) (A)
                 (A) (A) (A) (A) (A) (A) (A) (A) (A) (A) (A) (A)
                 (A) (A) (A) (A) (A) (A) (A) (A) (A) (A) (A) (A)
                 (A) (A) (A) (A) (A) (A) (A) (A) (A) (A) (A) (A)
                 (A) (A) (A) (A) (A) (A) (A) (A) (A) (A) (A) (A)
                 (A) (A) (A) (A) (A) (A) (A) (A) (A) (A) (A) (A)
                 (A) (A) (A) (A) (A) (A) (A) (A) (A) (A) (A) (A)
                 (A) (A) (A) (A) (A) (A) (A) (A) (A) (A) (A) (A)
                 (A) (A) (A) (A) (A) (A) (A) (A) (A) (A) (A) (A)
                 (A) (A) (A) (A) (A) (A)
 The electronic state of the initial guess is 1-A.
 Leave Link  401 at Tue Mar 10 14:49:16 2020, MaxMem= 2684354560 cpu:      14.3
 (Enter /opt/g09gh/gaussian/g09/l502.exe)
 Closed shell SCF:
 Requested convergence on RMS density matrix=1.00D-08 within 128 cycles.
 Requested convergence on MAX density matrix=1.00D-06.
 Requested convergence on             energy=1.00D-06.
 No special actions if energy rises.
 Using DIIS extrapolation, IDIIS=  1040.
 Integral symmetry usage will be decided dynamically.
       595018 words used for storage of precomputed grid.
 IEnd=     1763598 IEndB=     1763598 NGot=  2684354560 MDV=  2682988909
 LenX=  2682988909 LenY=  2682607603
 Fock matrices will be formed incrementally for  20 cycles.
 Integral accuracy reduced to 1.0D-05 until final iterations.

 Cycle   1  Pass 0  IDiag  1:
 FoFJK:  IHMeth= 1 ICntrl=     0 DoSepK=T KAlg= 1 I1Cent= 0 FoldK=F
 FoFCou: FMM=T IPFlag=           0 FMFlag=      100000 FMFlg1=           1
         NFxFlg=           0 DoJE=T BraDBF=F KetDBF=F FulRan=T
         Omega=  0.000000  0.000000  1.000000  0.000000  0.000000 ICntrl=     500 IOpCl=  0
         NMat0=    1 NMatS0=    1 NMatT0=    0 NMatD0=    1 NMtDS0=    0 NMtDT0=    0
         I1Cent=           0 NGrid=           0.
 Symmetry not used in FoFCou.
 FMM levels:  10  Number of levels for PrismC:   9
 E= -1581.09370990654    
 DIIS: error= 5.43D-02 at cycle   1 NSaved=   1.
 NSaved= 1 IEnMin= 1 EnMin= -1581.09370990654     IErMin= 1 ErrMin= 5.43D-02
 ErrMax= 5.43D-02 EMaxC= 1.00D-01 BMatC= 1.46D+00 BMatP= 1.46D+00
 IDIUse=3 WtCom= 4.57D-01 WtEn= 5.43D-01
 Coeff-Com:  0.100D+01
 Coeff-En:   0.100D+01
 Coeff:      0.100D+01
 Gap=     0.276 Goal=   None    Shift=    0.000
 GapD=    0.276 DampG=1.000 DampE=0.500 DampFc=0.5000 IDamp=-1.
 Damping current iteration by 5.00D-01
 RMSDP=1.92D-03 MaxDP=8.89D-02              OVMax= 1.71D-01

 Cycle   2  Pass 0  IDiag  1:
 RMSU=  6.77D-04    CP:  1.00D+00
 FoFJK:  IHMeth= 1 ICntrl=     0 DoSepK=T KAlg= 1 I1Cent= 0 FoldK=F
 E= -1581.27392995344     Delta-E=       -0.180220046898 Rises=F Damp=T
 DIIS: error= 2.66D-02 at cycle   2 NSaved=   2.
 NSaved= 2 IEnMin= 2 EnMin= -1581.27392995344     IErMin= 2 ErrMin= 2.66D-02
 ErrMax= 2.66D-02 EMaxC= 1.00D-01 BMatC= 3.22D-01 BMatP= 1.46D+00
 IDIUse=3 WtCom= 7.34D-01 WtEn= 2.66D-01
 Coeff-Com: -0.639D+00 0.164D+01
 Coeff-En:   0.000D+00 0.100D+01
 Coeff:     -0.469D+00 0.147D+01
 Gap=     0.279 Goal=   None    Shift=    0.000
 RMSDP=8.91D-04 MaxDP=3.85D-02 DE=-1.80D-01 OVMax= 1.22D-01

 Cycle   3  Pass 0  IDiag  1:
 RMSU=  5.84D-04    CP:  1.00D+00  1.35D+00
 FoFJK:  IHMeth= 1 ICntrl=     0 DoSepK=T KAlg= 1 I1Cent= 0 FoldK=F
 E= -1581.40304653462     Delta-E=       -0.129116581188 Rises=F Damp=F
 DIIS: error= 7.36D-03 at cycle   3 NSaved=   3.
 NSaved= 3 IEnMin= 3 EnMin= -1581.40304653462     IErMin= 3 ErrMin= 7.36D-03
 ErrMax= 7.36D-03 EMaxC= 1.00D-01 BMatC= 6.80D-02 BMatP= 3.22D-01
 IDIUse=3 WtCom= 9.26D-01 WtEn= 7.36D-02
 Coeff-Com: -0.366D+00 0.757D+00 0.609D+00
 Coeff-En:   0.000D+00 0.000D+00 0.100D+01
 Coeff:     -0.339D+00 0.701D+00 0.638D+00
 Gap=     0.267 Goal=   None    Shift=    0.000
 RMSDP=4.92D-04 MaxDP=3.19D-02 DE=-1.29D-01 OVMax= 6.24D-02

 Cycle   4  Pass 0  IDiag  1:
 RMSU=  1.44D-04    CP:  1.00D+00  1.66D+00  5.90D-01
 FoFJK:  IHMeth= 1 ICntrl=     0 DoSepK=T KAlg= 1 I1Cent= 0 FoldK=F
 E= -1581.46369147299     Delta-E=       -0.060644938367 Rises=F Damp=F
 DIIS: error= 2.13D-03 at cycle   4 NSaved=   4.
 NSaved= 4 IEnMin= 4 EnMin= -1581.46369147299     IErMin= 4 ErrMin= 2.13D-03
 ErrMax= 2.13D-03 EMaxC= 1.00D-01 BMatC= 3.73D-03 BMatP= 6.80D-02
 IDIUse=3 WtCom= 9.79D-01 WtEn= 2.13D-02
 Coeff-Com: -0.164D+00 0.334D+00 0.341D+00 0.489D+00
 Coeff-En:   0.000D+00 0.000D+00 0.000D+00 0.100D+01
 Coeff:     -0.161D+00 0.327D+00 0.334D+00 0.500D+00
 Gap=     0.260 Goal=   None    Shift=    0.000
 RMSDP=1.03D-04 MaxDP=8.73D-03 DE=-6.06D-02 OVMax= 1.01D-02

 Cycle   5  Pass 0  IDiag  1:
 RMSU=  4.63D-05    CP:  1.00D+00  1.64D+00  6.55D-01  7.27D-01
 FoFJK:  IHMeth= 1 ICntrl=     0 DoSepK=T KAlg= 1 I1Cent= 0 FoldK=F
 E= -1581.46693568508     Delta-E=       -0.003244212086 Rises=F Damp=F
 DIIS: error= 3.70D-04 at cycle   5 NSaved=   5.
 NSaved= 5 IEnMin= 5 EnMin= -1581.46693568508     IErMin= 5 ErrMin= 3.70D-04
 ErrMax= 3.70D-04 EMaxC= 1.00D-01 BMatC= 8.83D-05 BMatP= 3.73D-03
 IDIUse=3 WtCom= 9.96D-01 WtEn= 3.70D-03
 Coeff-Com: -0.151D-01 0.298D-01 0.511D-01 0.155D+00 0.779D+00
 Coeff-En:   0.000D+00 0.000D+00 0.000D+00 0.000D+00 0.100D+01
 Coeff:     -0.151D-01 0.297D-01 0.509D-01 0.155D+00 0.780D+00
 Gap=     0.258 Goal=   None    Shift=    0.000
 RMSDP=2.47D-05 MaxDP=2.53D-03 DE=-3.24D-03 OVMax= 2.93D-03

 Cycle   6  Pass 0  IDiag  1:
 RMSU=  1.34D-05    CP:  1.00D+00  1.64D+00  6.62D-01  7.95D-01  9.91D-01
 FoFJK:  IHMeth= 1 ICntrl=     0 DoSepK=T KAlg= 1 I1Cent= 0 FoldK=F
 E= -1581.46702252809     Delta-E=       -0.000086843016 Rises=F Damp=F
 DIIS: error= 3.29D-04 at cycle   6 NSaved=   6.
 NSaved= 6 IEnMin= 6 EnMin= -1581.46702252809     IErMin= 6 ErrMin= 3.29D-04
 ErrMax= 3.29D-04 EMaxC= 1.00D-01 BMatC= 2.76D-05 BMatP= 8.83D-05
 IDIUse=3 WtCom= 9.97D-01 WtEn= 3.29D-03
 Coeff-Com:  0.227D-01-0.469D-01-0.352D-01-0.150D-01 0.399D+00 0.676D+00
 Coeff-En:   0.000D+00 0.000D+00 0.000D+00 0.000D+00 0.000D+00 0.100D+01
 Coeff:      0.226D-01-0.468D-01-0.351D-01-0.149D-01 0.397D+00 0.677D+00
 Gap=     0.259 Goal=   None    Shift=    0.000
 RMSDP=1.33D-05 MaxDP=8.08D-04 DE=-8.68D-05 OVMax= 1.53D-03

 Cycle   7  Pass 0  IDiag  1:
 RMSU=  5.79D-06    CP:  1.00D+00  1.65D+00  6.66D-01  8.21D-01  1.11D+00
                    CP:  8.86D-01
 FoFJK:  IHMeth= 1 ICntrl=     0 DoSepK=T KAlg= 1 I1Cent= 0 FoldK=F
 E= -1581.46705301506     Delta-E=       -0.000030486970 Rises=F Damp=F
 DIIS: error= 4.22D-05 at cycle   7 NSaved=   7.
 NSaved= 7 IEnMin= 7 EnMin= -1581.46705301506     IErMin= 7 ErrMin= 4.22D-05
 ErrMax= 4.22D-05 EMaxC= 1.00D-01 BMatC= 1.77D-06 BMatP= 2.76D-05
 IDIUse=1 WtCom= 1.00D+00 WtEn= 0.00D+00
 Coeff-Com:  0.951D-02-0.194D-01-0.168D-01-0.208D-01 0.619D-01 0.236D+00
 Coeff-Com:  0.750D+00
 Coeff:      0.951D-02-0.194D-01-0.168D-01-0.208D-01 0.619D-01 0.236D+00
 Coeff:      0.750D+00
 Gap=     0.259 Goal=   None    Shift=    0.000
 RMSDP=4.17D-06 MaxDP=2.56D-04 DE=-3.05D-05 OVMax= 6.35D-04

 Initial convergence to 1.0D-05 achieved.  Increase integral accuracy.
 Cycle   8  Pass 1  IDiag  1:
 FoFJK:  IHMeth= 1 ICntrl=     0 DoSepK=T KAlg= 1 I1Cent= 0 FoldK=F
 E= -1581.46567135232     Delta-E=        0.001381662746 Rises=F Damp=F
 DIIS: error= 7.60D-05 at cycle   1 NSaved=   1.
 NSaved= 1 IEnMin= 1 EnMin= -1581.46567135232     IErMin= 1 ErrMin= 7.60D-05
 ErrMax= 7.60D-05 EMaxC= 1.00D-01 BMatC= 1.37D-05 BMatP= 1.37D-05
 IDIUse=1 WtCom= 1.00D+00 WtEn= 0.00D+00
 Coeff-Com:  0.100D+01
 Coeff:      0.100D+01
 Gap=     0.259 Goal=   None    Shift=    0.000
 RMSDP=4.17D-06 MaxDP=2.56D-04 DE= 1.38D-03 OVMax= 3.89D-04

 Cycle   9  Pass 1  IDiag  1:
 RMSU=  1.83D-05    CP:  1.00D+00
 FoFJK:  IHMeth= 1 ICntrl=     0 DoSepK=T KAlg= 1 I1Cent= 0 FoldK=F
 E= -1581.46568264594     Delta-E=       -0.000011293620 Rises=F Damp=F
 DIIS: error= 3.18D-05 at cycle   2 NSaved=   2.
 NSaved= 2 IEnMin= 2 EnMin= -1581.46568264594     IErMin= 2 ErrMin= 3.18D-05
 ErrMax= 3.18D-05 EMaxC= 1.00D-01 BMatC= 8.26D-07 BMatP= 1.37D-05
 IDIUse=1 WtCom= 1.00D+00 WtEn= 0.00D+00
 Coeff-Com:  0.369D-01 0.963D+00
 Coeff:      0.369D-01 0.963D+00
 Gap=     0.259 Goal=   None    Shift=    0.000
 RMSDP=3.28D-06 MaxDP=2.03D-04 DE=-1.13D-05 OVMax= 3.08D-04

 Cycle  10  Pass 1  IDiag  1:
 RMSU=  2.17D-06    CP:  1.00D+00  1.04D+00
 FoFJK:  IHMeth= 1 ICntrl=     0 DoSepK=T KAlg= 1 I1Cent= 0 FoldK=F
 E= -1581.46568276571     Delta-E=       -0.000000119771 Rises=F Damp=F
 DIIS: error= 4.43D-05 at cycle   3 NSaved=   3.
 NSaved= 3 IEnMin= 3 EnMin= -1581.46568276571     IErMin= 2 ErrMin= 3.18D-05
 ErrMax= 4.43D-05 EMaxC= 1.00D-01 BMatC= 9.56D-07 BMatP= 8.26D-07
 IDIUse=1 WtCom= 1.00D+00 WtEn= 0.00D+00
 Coeff-Com: -0.396D-01 0.534D+00 0.506D+00
 Coeff:     -0.396D-01 0.534D+00 0.506D+00
 Gap=     0.259 Goal=   None    Shift=    0.000
 RMSDP=1.58D-06 MaxDP=1.41D-04 DE=-1.20D-07 OVMax= 1.46D-04

 Cycle  11  Pass 1  IDiag  1:
 RMSU=  6.65D-07    CP:  1.00D+00  1.05D+00  5.98D-01
 FoFJK:  IHMeth= 1 ICntrl=     0 DoSepK=T KAlg= 1 I1Cent= 0 FoldK=F
 E= -1581.46568357988     Delta-E=       -0.000000814168 Rises=F Damp=F
 DIIS: error= 7.51D-06 at cycle   4 NSaved=   4.
 NSaved= 4 IEnMin= 4 EnMin= -1581.46568357988     IErMin= 4 ErrMin= 7.51D-06
 ErrMax= 7.51D-06 EMaxC= 1.00D-01 BMatC= 2.47D-08 BMatP= 8.26D-07
 IDIUse=1 WtCom= 1.00D+00 WtEn= 0.00D+00
 Coeff-Com: -0.171D-01 0.124D+00 0.175D+00 0.718D+00
 Coeff:     -0.171D-01 0.124D+00 0.175D+00 0.718D+00
 Gap=     0.259 Goal=   None    Shift=    0.000
 RMSDP=3.70D-07 MaxDP=3.74D-05 DE=-8.14D-07 OVMax= 3.80D-05

 Cycle  12  Pass 1  IDiag  1:
 RMSU=  2.29D-07    CP:  1.00D+00  1.06D+00  6.53D-01  1.06D+00
 FoFJK:  IHMeth= 1 ICntrl=     0 DoSepK=T KAlg= 1 I1Cent= 0 FoldK=F
 E= -1581.46568360478     Delta-E=       -0.000000024900 Rises=F Damp=F
 DIIS: error= 3.98D-06 at cycle   5 NSaved=   5.
 NSaved= 5 IEnMin= 5 EnMin= -1581.46568360478     IErMin= 5 ErrMin= 3.98D-06
 ErrMax= 3.98D-06 EMaxC= 1.00D-01 BMatC= 5.72D-09 BMatP= 2.47D-08
 IDIUse=1 WtCom= 1.00D+00 WtEn= 0.00D+00
 Coeff-Com: -0.172D-03-0.385D-01-0.119D-01 0.322D+00 0.729D+00
 Coeff:     -0.172D-03-0.385D-01-0.119D-01 0.322D+00 0.729D+00
 Gap=     0.259 Goal=   None    Shift=    0.000
 RMSDP=2.04D-07 MaxDP=1.41D-05 DE=-2.49D-08 OVMax= 3.27D-05

 Cycle  13  Pass 1  IDiag  1:
 RMSU=  9.24D-08    CP:  1.00D+00  1.06D+00  6.71D-01  1.21D+00  9.33D-01
 FoFJK:  IHMeth= 1 ICntrl=     0 DoSepK=T KAlg= 1 I1Cent= 0 FoldK=F
 E= -1581.46568361287     Delta-E=       -0.000000008091 Rises=F Damp=F
 DIIS: error= 7.06D-07 at cycle   6 NSaved=   6.
 NSaved= 6 IEnMin= 6 EnMin= -1581.46568361287     IErMin= 6 ErrMin= 7.06D-07
 ErrMax= 7.06D-07 EMaxC= 1.00D-01 BMatC= 6.41D-10 BMatP= 5.72D-09
 IDIUse=1 WtCom= 1.00D+00 WtEn= 0.00D+00
 Coeff-Com:  0.207D-02-0.291D-01-0.266D-01 0.188D-01 0.259D+00 0.776D+00
 Coeff:      0.207D-02-0.291D-01-0.266D-01 0.188D-01 0.259D+00 0.776D+00
 Gap=     0.259 Goal=   None    Shift=    0.000
 RMSDP=9.33D-08 MaxDP=4.44D-06 DE=-8.09D-09 OVMax= 1.60D-05

 Cycle  14  Pass 1  IDiag  1:
 RMSU=  4.02D-08    CP:  1.00D+00  1.06D+00  6.77D-01  1.27D+00  1.08D+00
                    CP:  1.10D+00
 FoFJK:  IHMeth= 1 ICntrl=     0 DoSepK=T KAlg= 1 I1Cent= 0 FoldK=F
 E= -1581.46568361425     Delta-E=       -0.000000001381 Rises=F Damp=F
 DIIS: error= 3.96D-07 at cycle   7 NSaved=   7.
 NSaved= 7 IEnMin= 7 EnMin= -1581.46568361425     IErMin= 7 ErrMin= 3.96D-07
 ErrMax= 3.96D-07 EMaxC= 1.00D-01 BMatC= 1.35D-10 BMatP= 6.41D-10
 IDIUse=1 WtCom= 1.00D+00 WtEn= 0.00D+00
 Coeff-Com:  0.794D-03-0.316D-02-0.821D-02-0.634D-01-0.482D-01 0.310D+00
 Coeff-Com:  0.812D+00
 Coeff:      0.794D-03-0.316D-02-0.821D-02-0.634D-01-0.482D-01 0.310D+00
 Coeff:      0.812D+00
 Gap=     0.259 Goal=   None    Shift=    0.000
 RMSDP=5.06D-08 MaxDP=2.69D-06 DE=-1.38D-09 OVMax= 9.80D-06

 Cycle  15  Pass 1  IDiag  1:
 RMSU=  1.68D-08    CP:  1.00D+00  1.06D+00  6.82D-01  1.30D+00  1.13D+00
                    CP:  1.33D+00  1.09D+00
 FoFJK:  IHMeth= 1 ICntrl=     0 DoSepK=T KAlg= 1 I1Cent= 0 FoldK=F
 E= -1581.46568361466     Delta-E=       -0.000000000414 Rises=F Damp=F
 DIIS: error= 1.55D-07 at cycle   8 NSaved=   8.
 NSaved= 8 IEnMin= 8 EnMin= -1581.46568361466     IErMin= 8 ErrMin= 1.55D-07
 ErrMax= 1.55D-07 EMaxC= 1.00D-01 BMatC= 1.96D-11 BMatP= 1.35D-10
 IDIUse=1 WtCom= 1.00D+00 WtEn= 0.00D+00
 Coeff-Com: -0.353D-04 0.356D-02 0.126D-02-0.257D-01-0.577D-01-0.138D-01
 Coeff-Com:  0.284D+00 0.808D+00
 Coeff:     -0.353D-04 0.356D-02 0.126D-02-0.257D-01-0.577D-01-0.138D-01
 Coeff:      0.284D+00 0.808D+00
 Gap=     0.259 Goal=   None    Shift=    0.000
 RMSDP=2.04D-08 MaxDP=1.11D-06 DE=-4.14D-10 OVMax= 4.32D-06

 Cycle  16  Pass 1  IDiag  1:
 RMSU=  6.66D-09    CP:  1.00D+00  1.06D+00  6.82D-01  1.30D+00  1.16D+00
                    CP:  1.41D+00  1.28D+00  1.08D+00
 FoFJK:  IHMeth= 1 ICntrl=     0 DoSepK=T KAlg= 1 I1Cent= 0 FoldK=F
 E= -1581.46568361471     Delta-E=       -0.000000000045 Rises=F Damp=F
 DIIS: error= 5.09D-08 at cycle   9 NSaved=   9.
 NSaved= 9 IEnMin= 9 EnMin= -1581.46568361471     IErMin= 9 ErrMin= 5.09D-08
 ErrMax= 5.09D-08 EMaxC= 1.00D-01 BMatC= 3.72D-12 BMatP= 1.96D-11
 IDIUse=1 WtCom= 1.00D+00 WtEn= 0.00D+00
 Coeff-Com: -0.171D-03 0.206D-02 0.215D-02 0.259D-02-0.135D-01-0.671D-01
 Coeff-Com: -0.557D-01 0.301D+00 0.829D+00
 Coeff:     -0.171D-03 0.206D-02 0.215D-02 0.259D-02-0.135D-01-0.671D-01
 Coeff:     -0.557D-01 0.301D+00 0.829D+00
 Gap=     0.259 Goal=   None    Shift=    0.000
 RMSDP=8.91D-09 MaxDP=4.62D-07 DE=-4.55D-11 OVMax= 1.75D-06

 SCF Done:  E(RwB97XD) =  -1581.46568361     A.U. after   16 cycles
             Convg  =    0.8912D-08             -V/T =  2.0109
 KE= 1.564476357885D+03 PE=-1.093184942373D+04 EE= 4.154048112989D+03
 Leave Link  502 at Tue Mar 10 14:51:44 2020, MaxMem= 2684354560 cpu:     885.7
 (Enter /opt/g09gh/gaussian/g09/l601.exe)
 Copying SCF densities to generalized density rwf, IOpCl= 0 IROHF=0.

 **********************************************************************

            Population analysis using the SCF density.

 **********************************************************************

 Orbital symmetries:
       Occupied  (A) (A) (A) (A) (A) (A) (A) (A) (A) (A) (A) (A)
                 (A) (A) (A) (A) (A) (A) (A) (A) (A) (A) (A) (A)
                 (A) (A) (A) (A) (A) (A) (A) (A) (A) (A) (A) (A)
                 (A) (A) (A) (A) (A) (A) (A) (A) (A) (A) (A) (A)
                 (A) (A) (A) (A) (A) (A) (A) (A) (A) (A) (A) (A)
                 (A) (A) (A) (A) (A) (A) (A) (A) (A) (A) (A) (A)
                 (A) (A) (A) (A) (A) (A) (A) (A) (A) (A) (A) (A)
                 (A) (A) (A) (A) (A) (A) (A) (A) (A) (A) (A) (A)
                 (A) (A) (A) (A) (A) (A) (A) (A) (A) (A) (A) (A)
                 (A) (A) (A) (A) (A) (A) (A) (A) (A) (A) (A) (A)
                 (A) (A) (A) (A) (A) (A) (A) (A) (A) (A) (A)
       Virtual   (A) (A) (A) (A) (A) (A) (A) (A) (A) (A) (A) (A)
                 (A) (A) (A) (A) (A) (A) (A) (A) (A) (A) (A) (A)
                 (A) (A) (A) (A) (A) (A) (A) (A) (A) (A) (A) (A)
                 (A) (A) (A) (A) (A) (A) (A) (A) (A) (A) (A) (A)
                 (A) (A) (A) (A) (A) (A) (A) (A) (A) (A) (A) (A)
                 (A) (A) (A) (A) (A) (A) (A) (A) (A) (A) (A) (A)
                 (A) (A) (A) (A) (A) (A) (A) (A) (A) (A) (A) (A)
                 (A) (A) (A) (A) (A) (A) (A) (A) (A) (A) (A) (A)
                 (A) (A) (A) (A) (A) (A) (A) (A) (A) (A) (A) (A)
                 (A) (A) (A) (A) (A) (A) (A) (A) (A) (A) (A) (A)
                 (A) (A) (A) (A) (A) (A) (A) (A) (A) (A) (A) (A)
                 (A) (A) (A) (A) (A) (A) (A) (A) (A) (A) (A) (A)
                 (A) (A) (A) (A) (A) (A) (A) (A) (A) (A) (A) (A)
                 (A) (A) (A) (A) (A) (A) (A) (A) (A) (A) (A) (A)
                 (A) (A) (A) (A) (A) (A) (A) (A) (A) (A) (A) (A)
                 (A) (A) (A) (A) (A) (A) (A) (A) (A) (A) (A) (A)
                 (A) (A) (A) (A) (A) (A) (A) (A) (A) (A) (A) (A)
                 (A) (A) (A) (A) (A) (A) (A) (A) (A) (A) (A) (A)
                 (A) (A) (A) (A) (A) (A) (A) (A) (A) (A) (A) (A)
                 (A) (A) (A) (A) (A) (A) (A) (A) (A) (A) (A) (A)
                 (A) (A) (A) (A) (A) (A) (A) (A) (A) (A) (A) (A)
                 (A) (A) (A) (A) (A) (A) (A) (A) (A) (A) (A) (A)
                 (A) (A) (A) (A) (A) (A) (A) (A) (A) (A) (A) (A)
                 (A) (A) (A) (A) (A) (A) (A) (A) (A) (A) (A) (A)
                 (A) (A) (A) (A) (A) (A) (A) (A) (A) (A) (A) (A)
                 (A) (A) (A) (A) (A) (A) (A) (A) (A) (A) (A) (A)
                 (A) (A) (A) (A) (A) (A) (A) (A) (A) (A) (A) (A)
                 (A) (A) (A) (A) (A) (A) (A) (A) (A) (A) (A) (A)
                 (A) (A) (A) (A) (A) (A) (A) (A) (A) (A) (A) (A)
                 (A) (A) (A) (A) (A) (A) (A) (A) (A) (A) (A) (A)
                 (A) (A) (A) (A) (A) (A) (A) (A) (A) (A) (A) (A)
                 (A) (A) (A) (A) (A) (A) (A) (A) (A) (A) (A) (A)
                 (A) (A) (A) (A) (A) (A) (A) (A) (A) (A) (A) (A)
                 (A) (A) (A) (A) (A) (A) (A) (A) (A) (A) (A) (A)
                 (A) (A) (A) (A) (A) (A) (A) (A) (A) (A) (A) (A)
                 (A) (A) (A) (A) (A) (A) (A) (A) (A) (A) (A) (A)
                 (A) (A) (A) (A) (A) (A) (A) (A) (A) (A) (A) (A)
                 (A) (A) (A) (A) (A) (A) (A) (A) (A) (A) (A) (A)
                 (A) (A) (A) (A) (A) (A) (A) (A) (A) (A) (A) (A)
                 (A) (A) (A) (A) (A) (A) (A) (A) (A) (A) (A) (A)
                 (A) (A) (A) (A) (A) (A)
 The electronic state is 1-A.
 Alpha  occ. eigenvalues --  -19.23438 -14.49569 -14.48963 -14.47683 -14.46762
 Alpha  occ. eigenvalues --  -14.46251 -14.45897 -14.44696 -10.42176 -10.40552
 Alpha  occ. eigenvalues --  -10.38727 -10.38349 -10.36593 -10.36537 -10.36031
 Alpha  occ. eigenvalues --  -10.35851 -10.35430 -10.35259 -10.35066 -10.34602
 Alpha  occ. eigenvalues --  -10.34568 -10.34462 -10.34316 -10.33049 -10.32405
 Alpha  occ. eigenvalues --  -10.32334 -10.31524 -10.31450 -10.31243 -10.30880
 Alpha  occ. eigenvalues --  -10.30857 -10.30816 -10.30686 -10.30397 -10.30232
 Alpha  occ. eigenvalues --  -10.29781 -10.29190  -1.13538  -1.11673  -1.05750
 Alpha  occ. eigenvalues --   -1.03820  -1.03789  -1.03093  -1.00228  -0.99834
 Alpha  occ. eigenvalues --   -0.96067  -0.94606  -0.92600  -0.89500  -0.88190
 Alpha  occ. eigenvalues --   -0.87266  -0.86550  -0.84739  -0.84419  -0.83911
 Alpha  occ. eigenvalues --   -0.82199  -0.79768  -0.78263  -0.78039  -0.76086
 Alpha  occ. eigenvalues --   -0.73534  -0.73000  -0.72554  -0.71958  -0.71081
 Alpha  occ. eigenvalues --   -0.70214  -0.69692  -0.68374  -0.66440  -0.64804
 Alpha  occ. eigenvalues --   -0.63364  -0.62445  -0.62330  -0.61701  -0.60181
 Alpha  occ. eigenvalues --   -0.58687  -0.57987  -0.57078  -0.56263  -0.55978
 Alpha  occ. eigenvalues --   -0.55949  -0.55526  -0.54948  -0.54823  -0.54406
 Alpha  occ. eigenvalues --   -0.53601  -0.53357  -0.52530  -0.51905  -0.51715
 Alpha  occ. eigenvalues --   -0.51457  -0.51384  -0.51117  -0.50741  -0.50404
 Alpha  occ. eigenvalues --   -0.50280  -0.50098  -0.49659  -0.49557  -0.49001
 Alpha  occ. eigenvalues --   -0.48109  -0.47489  -0.46500  -0.46259  -0.46144
 Alpha  occ. eigenvalues --   -0.45171  -0.44703  -0.44562  -0.43899  -0.43627
 Alpha  occ. eigenvalues --   -0.43491  -0.42995  -0.42030  -0.41548  -0.40237
 Alpha  occ. eigenvalues --   -0.40210  -0.38116  -0.37780  -0.37428  -0.36249
 Alpha  occ. eigenvalues --   -0.35801  -0.35236  -0.33767  -0.33678  -0.33414
 Alpha  occ. eigenvalues --   -0.33057  -0.31669  -0.31542  -0.29498  -0.27533
 Alpha  occ. eigenvalues --   -0.26703
 Alpha virt. eigenvalues --   -0.00766   0.02739   0.03334   0.04474   0.05926
 Alpha virt. eigenvalues --    0.07201   0.07231   0.07611   0.09660   0.09895
 Alpha virt. eigenvalues --    0.11232   0.12592   0.13942   0.14389   0.15884
 Alpha virt. eigenvalues --    0.16800   0.17059   0.18110   0.18791   0.19101
 Alpha virt. eigenvalues --    0.19193   0.19739   0.19881   0.21326   0.21577
 Alpha virt. eigenvalues --    0.22042   0.22541   0.22734   0.23097   0.23709
 Alpha virt. eigenvalues --    0.23971   0.24266   0.24364   0.24825   0.25088
 Alpha virt. eigenvalues --    0.25521   0.25863   0.26237   0.26780   0.27145
 Alpha virt. eigenvalues --    0.27674   0.27963   0.28053   0.28481   0.28970
 Alpha virt. eigenvalues --    0.29359   0.29708   0.30129   0.30371   0.31066
 Alpha virt. eigenvalues --    0.31095   0.31910   0.32780   0.33104   0.33383
 Alpha virt. eigenvalues --    0.33755   0.34540   0.36100   0.36713   0.37285
 Alpha virt. eigenvalues --    0.37943   0.38401   0.38754   0.39337   0.39757
 Alpha virt. eigenvalues --    0.40142   0.41046   0.41134   0.42477   0.42818
 Alpha virt. eigenvalues --    0.44373   0.45160   0.45731   0.46613   0.46967
 Alpha virt. eigenvalues --    0.47867   0.50064   0.51782   0.52503   0.53686
 Alpha virt. eigenvalues --    0.55339   0.56132   0.56909   0.57357   0.58240
 Alpha virt. eigenvalues --    0.58334   0.58981   0.59224   0.59408   0.60003
 Alpha virt. eigenvalues --    0.60318   0.60746   0.61507   0.61989   0.62161
 Alpha virt. eigenvalues --    0.62301   0.62991   0.63133   0.63655   0.63905
 Alpha virt. eigenvalues --    0.64634   0.64662   0.65045   0.65257   0.65526
 Alpha virt. eigenvalues --    0.65744   0.66088   0.66162   0.66261   0.66774
 Alpha virt. eigenvalues --    0.66927   0.67401   0.67732   0.67863   0.68330
 Alpha virt. eigenvalues --    0.69209   0.69627   0.69809   0.69951   0.70459
 Alpha virt. eigenvalues --    0.70613   0.70914   0.70951   0.71277   0.72096
 Alpha virt. eigenvalues --    0.72675   0.72918   0.72990   0.73758   0.74285
 Alpha virt. eigenvalues --    0.74566   0.75267   0.75737   0.75923   0.76638
 Alpha virt. eigenvalues --    0.77157   0.77191   0.78012   0.78503   0.79660
 Alpha virt. eigenvalues --    0.80019   0.80580   0.81541   0.81905   0.82713
 Alpha virt. eigenvalues --    0.83243   0.83371   0.83636   0.84555   0.84835
 Alpha virt. eigenvalues --    0.84992   0.86326   0.86427   0.86930   0.87626
 Alpha virt. eigenvalues --    0.87991   0.88763   0.89185   0.89352   0.89924
 Alpha virt. eigenvalues --    0.90584   0.91104   0.91130   0.91634   0.92182
 Alpha virt. eigenvalues --    0.92726   0.92815   0.93243   0.93573   0.93796
 Alpha virt. eigenvalues --    0.93957   0.94658   0.94744   0.94926   0.95386
 Alpha virt. eigenvalues --    0.95998   0.96669   0.97224   0.97819   0.98231
 Alpha virt. eigenvalues --    0.98932   0.99170   0.99503   0.99632   1.00962
 Alpha virt. eigenvalues --    1.01172   1.01613   1.02402   1.02863   1.03528
 Alpha virt. eigenvalues --    1.04384   1.04496   1.04873   1.05786   1.06397
 Alpha virt. eigenvalues --    1.06693   1.07069   1.07441   1.08316   1.08514
[...]
                 (A) (A) (A) (A) (A) (A) (A) (A) (A) (A) (A) (A)
                 (A) (A) (A) (A) (A) (A) (A) (A) (A) (A) (A) (A)
                 (A) (A) (A) (A) (A) (A) (A) (A) (A) (A) (A) (A)
                 (A) (A) (A) (A) (A) (A) (A) (A) (A) (A) (A) (A)
                 (A) (A) (A) (A) (A) (A) (A) (A) (A) (A) (A) (A)
                 (A) (A) (A) (A) (A) (A) (A) (A) (A) (A) (A) (A)
                 (A) (A) (A) (A) (A) (A) (A) (A) (A) (A) (A) (A)
                 (A) (A) (A) (A) (A) (A) (A) (A) (A) (A) (A) (A)
                 (A) (A) (A) (A) (A) (A) (A) (A) (A) (A) (A) (A)
                 (A) (A) (A) (A) (A) (A) (A) (A) (A) (A) (A) (A)
                 (A) (A) (A) (A) (A) (A) (A) (A) (A) (A) (A) (A)
                 (A) (A) (A) (A) (A) (A) (A) (A) (A) (A) (A) (A)
                 (A) (A) (A) (A) (A) (A) (A) (A) (A) (A) (A) (A)
                 (A) (A) (A) (A) (A) (A) (A) (A) (A) (A) (A) (A)
                 (A) (A) (A) (A) (A) (A) (A) (A) (A) (A) (A) (A)
                 (A) (A) (A) (A) (A) (A) (A) (A) (A) (A) (A) (A)
                 (A) (A) (A) (A) (A) (A) (A) (A) (A) (A) (A) (A)
                 (A) (A) (A) (A) (A) (A) (A) (A) (A) (A) (A) (A)
                 (A) (A) (A) (A) (A) (A) (A) (A) (A) (A) (A) (A)
                 (A) (A) (A) (A) (A) (A) (A) (A) (A) (A) (A) (A)
                 (A) (A) (A) (A) (A) (A) (A) (A) (A) (A) (A) (A)
                 (A) (A) (A) (A) (A) (A) (A) (A) (A) (A) (A) (A)
                 (A) (A) (A) (A) (A) (A) (A) (A) (A) (A) (A) (A)
                 (A) (A) (A) (A) (A) (A) (A) (A) (A) (A) (A) (A)
                 (A) (A) (A) (A) (A) (A) (A) (A) (A) (A) (A) (A)
                 (A) (A) (A) (A) (A) (A) (A) (A) (A) (A) (A) (A)
                 (A) (A) (A) (A) (A) (A) (A) (A) (A) (A) (A) (A)
                 (A) (A) (A) (A) (A) (A) (A) (A) (A) (A) (A) (A)
                 (A) (A) (A) (A) (A) (A) (A) (A) (A) (A) (A) (A)
                 (A) (A) (A) (A) (A) (A) (A) (A) (A) (A) (A) (A)
                 (A) (A) (A) (A) (A) (A) (A) (A) (A) (A) (A) (A)
                 (A) (A) (A) (A) (A) (A)
 The electronic state is 1-A.
 Alpha  occ. eigenvalues --  -19.23149 -14.49163 -14.48274 -14.46626 -14.46014
 Alpha  occ. eigenvalues --  -14.45670 -14.44209 -14.43407 -10.41670 -10.39914
 Alpha  occ. eigenvalues --  -10.37529 -10.36270 -10.35198 -10.34937 -10.34540
 Alpha  occ. eigenvalues --  -10.34056 -10.33964 -10.33513 -10.32768 -10.32360
 Alpha  occ. eigenvalues --  -10.31786 -10.31501 -10.31244 -10.31049 -10.31001
 Alpha  occ. eigenvalues --  -10.30791 -10.30746 -10.30564 -10.30348 -10.30269
 Alpha  occ. eigenvalues --  -10.29965 -10.29801 -10.29730 -10.29434 -10.29338
 Alpha  occ. eigenvalues --  -10.28767 -10.28208  -1.13293  -1.12226  -1.06215
 Alpha  occ. eigenvalues --   -1.04534  -1.04465  -1.03413  -1.00644  -1.00241
 Alpha  occ. eigenvalues --   -0.95715  -0.94567  -0.93009  -0.89678  -0.87991
 Alpha  occ. eigenvalues --   -0.87299  -0.86251  -0.85527  -0.84143  -0.83663
 Alpha  occ. eigenvalues --   -0.82023  -0.79428  -0.78178  -0.77428  -0.76199
 Alpha  occ. eigenvalues --   -0.73770  -0.73430  -0.72821  -0.72528  -0.71073
 Alpha  occ. eigenvalues --   -0.69948  -0.69229  -0.67700  -0.66098  -0.65048
 Alpha  occ. eigenvalues --   -0.63870  -0.63362  -0.62074  -0.61694  -0.60029
 Alpha  occ. eigenvalues --   -0.58727  -0.58564  -0.57570  -0.56099  -0.55834
 Alpha  occ. eigenvalues --   -0.55573  -0.55528  -0.55333  -0.55074  -0.54497
 Alpha  occ. eigenvalues --   -0.53876  -0.53260  -0.53003  -0.52290  -0.52093
 Alpha  occ. eigenvalues --   -0.51582  -0.51447  -0.51106  -0.50874  -0.50603
 Alpha  occ. eigenvalues --   -0.50345  -0.49994  -0.49615  -0.49510  -0.48201
 Alpha  occ. eigenvalues --   -0.47938  -0.47147  -0.46694  -0.46564  -0.46116
 Alpha  occ. eigenvalues --   -0.45522  -0.45087  -0.44019  -0.43816  -0.43271
 Alpha  occ. eigenvalues --   -0.42908  -0.42531  -0.42237  -0.42141  -0.41550
 Alpha  occ. eigenvalues --   -0.41352  -0.40539  -0.39870  -0.38107  -0.37486
 Alpha  occ. eigenvalues --   -0.35684  -0.35188  -0.33911  -0.33288  -0.33150
 Alpha  occ. eigenvalues --   -0.32394  -0.31446  -0.30228  -0.29040  -0.27347
 Alpha  occ. eigenvalues --   -0.26968
 Alpha virt. eigenvalues --   -0.00241   0.03009   0.03661   0.04639   0.07063
 Alpha virt. eigenvalues --    0.07396   0.08528   0.10537   0.14920   0.15175
 Alpha virt. eigenvalues --    0.16159   0.16323   0.17432   0.18385   0.18622
 Alpha virt. eigenvalues --    0.19513   0.19848   0.20121   0.20756   0.21824
 Alpha virt. eigenvalues --    0.21970   0.22063   0.22461   0.22849   0.23400
 Alpha virt. eigenvalues --    0.23511   0.23751   0.24060   0.24633   0.24854
 Alpha virt. eigenvalues --    0.24998   0.25314   0.25807   0.26155   0.26427
 Alpha virt. eigenvalues --    0.26961   0.27293   0.27556   0.27977   0.28360
 Alpha virt. eigenvalues --    0.28605   0.28760   0.29573   0.29870   0.30122
 Alpha virt. eigenvalues --    0.30963   0.31142   0.31364   0.32186   0.32359
 Alpha virt. eigenvalues --    0.32857   0.33189   0.33279   0.33507   0.34204
 Alpha virt. eigenvalues --    0.34539   0.35691   0.36221   0.36646   0.37103
 Alpha virt. eigenvalues --    0.38364   0.38552   0.38724   0.39548   0.40295
 Alpha virt. eigenvalues --    0.41389   0.41832   0.42161   0.43234   0.43330
 Alpha virt. eigenvalues --    0.43758   0.45097   0.46660   0.47371   0.47680
 Alpha virt. eigenvalues --    0.48527   0.50140   0.52428   0.53044   0.54534
 Alpha virt. eigenvalues --    0.55960   0.56506   0.57203   0.58415   0.59333
 Alpha virt. eigenvalues --    0.59379   0.59979   0.60029   0.60351   0.61131
 Alpha virt. eigenvalues --    0.61388   0.61996   0.62157   0.62565   0.63239
 Alpha virt. eigenvalues --    0.63456   0.63885   0.64128   0.64391   0.64648
 Alpha virt. eigenvalues --    0.64931   0.65498   0.65653   0.65858   0.66107
 Alpha virt. eigenvalues --    0.66155   0.66696   0.67070   0.67079   0.67381
 Alpha virt. eigenvalues --    0.67855   0.68270   0.68573   0.68853   0.69242
 Alpha virt. eigenvalues --    0.69827   0.70346   0.70622   0.70875   0.71123
 Alpha virt. eigenvalues --    0.71455   0.71771   0.71833   0.72880   0.73106
 Alpha virt. eigenvalues --    0.73325   0.73520   0.73884   0.74601   0.75148
 Alpha virt. eigenvalues --    0.75595   0.75846   0.76071   0.76423   0.77306
 Alpha virt. eigenvalues --    0.77626   0.78359   0.79871   0.80293   0.80990
 Alpha virt. eigenvalues --    0.81960   0.82380   0.83093   0.83346   0.83940
 Alpha virt. eigenvalues --    0.84356   0.85207   0.85609   0.87110   0.87568
 Alpha virt. eigenvalues --    0.87757   0.88240   0.88816   0.89133   0.89937
 Alpha virt. eigenvalues --    0.90674   0.91096   0.91428   0.91486   0.92401
 Alpha virt. eigenvalues --    0.92762   0.92940   0.93360   0.93715   0.93852
 Alpha virt. eigenvalues --    0.94117   0.94496   0.94562   0.95409   0.95454
 Alpha virt. eigenvalues --    0.95898   0.96513   0.96766   0.97216   0.97684
 Alpha virt. eigenvalues --    0.98133   0.98731   0.98783   0.99294   0.99440
 Alpha virt. eigenvalues --    1.00286   1.00379   1.00778   1.01098   1.01679
 Alpha virt. eigenvalues --    1.02362   1.03182   1.03623   1.03734   1.04119
 Alpha virt. eigenvalues --    1.04454   1.05261   1.05910   1.06101   1.06670
 Alpha virt. eigenvalues --    1.07147   1.07684   1.07784   1.08443   1.08912
 Alpha virt. eigenvalues --    1.09412   1.09474   1.10364   1.10836   1.11616
 Alpha virt. eigenvalues --    1.11742   1.12051   1.12852   1.14324   1.15459
 Alpha virt. eigenvalues --    1.16261   1.16666   1.16807   1.17431   1.19395
 Alpha virt. eigenvalues --    1.20107   1.21943   1.22267   1.22991   1.23881
 Alpha virt. eigenvalues --    1.25500   1.25915   1.26020   1.27479   1.28985
 Alpha virt. eigenvalues --    1.29134   1.29924   1.30352   1.30464   1.31027
 Alpha virt. eigenvalues --    1.31499   1.33109   1.33737   1.34071   1.34898
 Alpha virt. eigenvalues --    1.35631   1.36122   1.37065   1.37910   1.38946
 Alpha virt. eigenvalues --    1.39430   1.40198   1.41557   1.43618   1.44247
 Alpha virt. eigenvalues --    1.45166   1.46395   1.46764   1.47486   1.48246
 Alpha virt. eigenvalues --    1.48870   1.48954   1.49946   1.50351   1.52235
 Alpha virt. eigenvalues --    1.52804   1.53290   1.53630   1.54253   1.54563
 Alpha virt. eigenvalues --    1.54846   1.55430   1.55794   1.56410   1.56712
 Alpha virt. eigenvalues --    1.57428   1.57752   1.58072   1.58451   1.59117
 Alpha virt. eigenvalues --    1.59672   1.60029   1.61432   1.61673   1.62910
 Alpha virt. eigenvalues --    1.64897   1.65150   1.66180   1.67179   1.68355
 Alpha virt. eigenvalues --    1.70733   1.71477   1.73321   1.75919   1.77347
 Alpha virt. eigenvalues --    1.78653   1.80670   1.81963   1.83158   1.84257
 Alpha virt. eigenvalues --    1.85056   1.85821   1.86579   1.87299   1.87638
 Alpha virt. eigenvalues --    1.87821   1.88294   1.89610   1.90414   1.90919
 Alpha virt. eigenvalues --    1.91054   1.92294   1.92653   1.93259   1.93927
 Alpha virt. eigenvalues --    1.94465   1.95025   1.95236   1.95693   1.97761
 Alpha virt. eigenvalues --    1.98759   1.99264   1.99673   2.00643   2.01211
 Alpha virt. eigenvalues --    2.01687   2.01827   2.02750   2.03196   2.03808
 Alpha virt. eigenvalues --    2.04742   2.05415   2.06259   2.07178   2.07439
 Alpha virt. eigenvalues --    2.08495   2.09144   2.10375   2.10802   2.11261
 Alpha virt. eigenvalues --    2.12084   2.12914   2.14123   2.14680   2.14932
 Alpha virt. eigenvalues --    2.15327   2.16077   2.16205   2.17991   2.19155
 Alpha virt. eigenvalues --    2.19727   2.20515   2.21426   2.22209   2.22727
 Alpha virt. eigenvalues --    2.23069   2.23558   2.24120   2.24759   2.25003
 Alpha virt. eigenvalues --    2.25484   2.25726   2.26335   2.26627   2.26944
 Alpha virt. eigenvalues --    2.28024   2.29425   2.30902   2.31621   2.32039
 Alpha virt. eigenvalues --    2.32636   2.34076   2.35062   2.35396   2.37090
 Alpha virt. eigenvalues --    2.37793   2.38031   2.38430   2.39581   2.40077
 Alpha virt. eigenvalues --    2.40804   2.41005   2.41469   2.42124   2.42495
 Alpha virt. eigenvalues --    2.43202   2.43490   2.44361   2.44918   2.45311
 Alpha virt. eigenvalues --    2.45614   2.48163   2.48762   2.49607   2.50035
 Alpha virt. eigenvalues --    2.50542   2.51699   2.52180   2.53923   2.57011
 Alpha virt. eigenvalues --    2.58263   2.58684   2.61701   2.61928   2.63964
 Alpha virt. eigenvalues --    2.64798   2.65561   2.65963   2.66579   2.68065
 Alpha virt. eigenvalues --    2.69262   2.69974   2.70481   2.71192   2.71804
 Alpha virt. eigenvalues --    2.72404   2.74219   2.74847   2.75408   2.76191
 Alpha virt. eigenvalues --    2.76495   2.77191   2.79030   2.81690   2.82002
 Alpha virt. eigenvalues --    2.82895   2.83266   2.84471   2.85846   2.86236
 Alpha virt. eigenvalues --    2.86784   2.87513   2.87676   2.88522   2.89057
 Alpha virt. eigenvalues --    2.90493   2.92429   2.93015   2.94489   2.94878
 Alpha virt. eigenvalues --    2.96161   2.97786   2.99788   3.03855   3.05244
 Alpha virt. eigenvalues --    3.05327   3.07185   3.09807   3.10431   3.13784
 Alpha virt. eigenvalues --    3.18972   3.27998   3.29583   3.39235   3.41552
 Alpha virt. eigenvalues --    3.44955   3.54203   3.56496   3.57762   4.13514
 Alpha virt. eigenvalues --    4.14419   4.15119   4.18171   4.18534   4.19494
 Alpha virt. eigenvalues --    4.20553   4.21195   4.22163   4.22877   4.23100
 Alpha virt. eigenvalues --    4.24569   4.26240   4.27620   4.30468   4.31817
 Alpha virt. eigenvalues --    4.32303   4.33799   4.36794   4.40133   4.40379
 Alpha virt. eigenvalues --    4.41814   4.43941   4.44482   4.45354   4.49261
 Alpha virt. eigenvalues --    4.49894   4.51090   4.54344   4.57053   4.61647
 Alpha virt. eigenvalues --    4.63053   4.66544   4.68622   4.79082   4.84254
 Alpha virt. eigenvalues --    4.89581
          Condensed to atoms (all electrons):
 Mulliken atomic charges:
              1
     1  C   -0.198090
     2  C   -0.155288
     3  C    0.034815
     4  C    0.007443
     5  N   -0.435001
     6  C    0.031218
     7  C    0.296405
     8  C   -0.255104
     9  C    0.048809
    10  N   -0.493090
    11  C    0.711529
    12  N   -0.568080
    13  N   -0.799013
    14  C    0.289535
    15  C    0.119829
    16  C   -0.240105
    17  C   -0.190404
    18  C    0.355843
    19  C   -0.267076
    20  N   -0.767463
    21  C    0.598951
    22  C    0.017682
    23  C   -0.212771
    24  C   -0.226260
    25  C    0.113926
    26  C   -0.198588
    27  C   -0.182859
    28  C   -0.203227
    29  N   -0.417117
    30  C   -0.161841
    31  C   -0.181145
    32  N   -0.387111
    33  C   -0.350028
    34  C   -0.182612
    35  C   -0.171277
    36  O   -0.517335
    37  C   -0.608162
    38  H    0.185842
    39  H    0.185814
    40  H    0.200789
    41  H    0.181712
    42  H    0.180293
    43  H    0.189057
    44  H    0.368999
    45  H    0.160455
    46  H    0.215934
    47  H    0.195515
    48  H    0.359282
    49  H    0.185694
    50  H    0.166923
    51  H    0.181614
    52  H    0.196513
    53  H    0.176254
    54  H    0.134106
    55  H    0.160424
    56  H    0.126849
    57  H    0.158372
    58  H    0.169877
    59  H    0.136417
    60  H    0.167592
    61  H    0.169595
    62  H    0.161023
    63  H    0.170827
    64  H    0.126600
    65  H    0.179290
    66  H    0.177395
    67  H    0.183525
    68  H    0.190481
 Sum of Mulliken atomic charges =   0.00000
 Mulliken charges with hydrogens summed into heavy atoms:
              1
     1  C   -0.012248
     2  C    0.030526
     3  C    0.034815
     4  C    0.208232
     5  N   -0.435001
     6  C    0.212930
     7  C    0.296405
     8  C   -0.074811
     9  C    0.237866
    10  N   -0.493090
    11  C    0.711529
    12  N   -0.568080
    13  N   -0.430015
    14  C    0.289535
    15  C    0.119829
    16  C   -0.079650
    17  C    0.025531
    18  C    0.355843
    19  C   -0.071561
    20  N   -0.408181
    21  C    0.598951
    22  C    0.017682
    23  C   -0.027077
    24  C   -0.059338
    25  C    0.113926
    26  C   -0.016974
    27  C    0.013654
    28  C    0.107132
    29  N   -0.417117
    30  C    0.125432
    31  C    0.147104
    32  N   -0.387111
    33  C    0.123576
    34  C    0.149238
    35  C    0.134613
    36  O   -0.517335
    37  C   -0.056761
 Sum of Mulliken charges with hydrogens summed into heavy atoms =   0.00000
 Electronic spatial extent (au):  <R**2>=          29638.2311
 Charge=              0.0000 electrons
 Dipole moment (field-independent basis, Debye):
    X=             -2.3878    Y=              7.1729    Z=             -0.7499  Tot=              7.5970
 Quadrupole moment (field-independent basis, Debye-Ang):
   XX=           -191.6008   YY=           -196.7591   ZZ=           -216.9086
   XY=              2.9262   XZ=             -4.8844   YZ=             -3.3661
 Traceless Quadrupole moment (field-independent basis, Debye-Ang):
   XX=             10.1554   YY=              4.9970   ZZ=            -15.1524
   XY=              2.9262   XZ=             -4.8844   YZ=             -3.3661
 Octapole moment (field-independent basis, Debye-Ang**2):
  XXX=           -140.5263  YYY=            144.2932  ZZZ=              6.0065  XYY=           -108.9347
  XXY=            101.6842  XXZ=             -6.4246  XZZ=             40.5468  YZZ=             -4.3466
  YYZ=            -11.1069  XYZ=             14.7526
 Hexadecapole moment (field-independent basis, Debye-Ang**3):
 XXXX=         -31674.6363 YYYY=          -6911.1105 ZZZZ=           -763.3700 XXXY=            624.4448
 XXXZ=           -362.9058 YYYX=           -211.8994 YYYZ=           -126.7634 ZZZX=             40.2120
 ZZZY=             -8.0611 XXYY=          -5865.0465 XXZZ=          -5359.7357 YYZZ=          -1452.6312
 XXYZ=              3.9721 YYXZ=            -51.5439 ZZXY=              6.2637
 N-N= 3.674323047720D+03 E-N=-1.102043571375D+04  KE= 1.567162144243D+03
 No NMR shielding tensors so no spin-rotation constants.
 Leave Link  601 at Tue Mar 10 16:55:34 2020, MaxMem= 2684354560 cpu:       2.8
 (Enter /opt/g09gh/gaussian/g09/l9999.exe)
 1\1\GINC-NODE44\FOpt\RwB97XD\6-31G(d)\C29H31N7O1\BDW2292\10-Mar-2020\0
 \\#P opt=(,maxcycle=400) wB97XD/6-31G* MaxDisk=100GB\\MOLECULE0 Rotata
 ble Bond Optimization on g2-node38.bme.utexas.edu\\0,1\C,-2.3381966238
 ,-1.7952547355,-7.7774984953\C,-1.2106221617,-2.4879364568,-8.20094718
 48\C,-0.4569047561,-3.1909431198,-7.2626959\C,-0.8952568109,-3.1637464
 276,-5.9319935422\N,-1.9676625943,-2.4965505728,-5.5099515374\C,-2.668
 6599871,-1.822593847,-6.4267778533\C,0.7895689084,-3.9194408819,-7.606
 0950331\C,1.0899127341,-4.3904068359,-8.8812592894\C,2.3207668178,-5.0
 29972594,-9.0234612321\N,3.1764072168,-5.2137968464,-8.0273367377\C,2.
 7777711566,-4.7385879806,-6.8297555662\N,1.6357341055,-4.0963133606,-6
 .588391254\N,3.6577530263,-4.9571042452,-5.806250026\C,3.526037532,-4.
 7076790952,-4.426996673\C,4.3941948805,-5.3843553284,-3.5468021161\C,4
 .2440967059,-5.1487148773,-2.1837647161\C,3.2761818765,-4.2971784803,-
 1.6565552841\C,2.4322559271,-3.6357547918,-2.5454074489\C,2.579215007,
 -3.8237298205,-3.9204280232\N,1.3879670244,-2.774337726,-2.1640364148\
 C,0.8756499213,-2.5347467628,-0.9148267822\C,-0.3876617753,-1.72090363
 79,-0.9136222514\C,-1.2921748968,-1.70163711,-1.9780480589\C,-2.451242
 6468,-0.936985881,-1.8979216518\C,-2.7261942897,-0.1733001717,-0.76587
 35205\C,-1.8273856585,-0.2089028465,0.3044188385\C,-0.6775203601,-0.98
 08650109,0.2354970957\C,-3.9586406499,0.7030547704,-0.6997815525\N,-4.
 5646958103,0.7218716768,0.6186522495\C,-5.5299515211,1.8034685628,0.76
 56258704\C,-6.0557491865,1.8344522736,2.2037891666\N,-6.6437286455,0.5
 742374995,2.6394671287\C,-7.9664336416,0.3273741132,2.092711248\C,-5.7
 000582949,-0.5117555832,2.4003837895\C,-5.1691965311,-0.5606090711,0.9
 656459668\O,1.3923118798,-2.9270967509,0.1191958911\C,5.4400581821,-6.
 3422443513,-4.0584338239\H,-2.9436378618,-1.2308963807,-8.4785903636\H
 ,-0.9089581543,-2.4564094004,-9.2440065877\H,-0.3418006804,-3.72120899
 47,-5.1809517693\H,-3.5350892324,-1.2769158302,-6.060274512\H,0.411467
 075,-4.2906280893,-9.7194137953\H,2.6291758324,-5.4195330047,-9.991546
 9001\H,4.4649498741,-5.4857670087,-6.1012716678\H,4.907818338,-5.66425
 0879,-1.4941835045\H,3.1713506624,-4.1526501298,-0.5908310531\H,1.9287
 748174,-3.3030436987,-4.6073304127\H,0.9207355125,-2.3147887117,-2.931
 0539265\H,-1.1466396034,-2.3069743141,-2.8692578697\H,-3.1486405465,-0
 .9509143735,-2.7316642704\H,-2.0569801878,0.3645577271,1.1973234365\H,
 0.0150916772,-1.0254712997,1.0696966167\H,-3.6675940455,1.7337494714,-
 0.9427665931\H,-4.6776513232,0.3887573936,-1.4824172266\H,-5.031812829
 2,2.7533257242,0.5383492086\H,-6.3710536159,1.6968208561,0.0512870847\
 H,-6.7967617595,2.6333521473,2.3172206579\H,-5.2128379115,2.0612210182
 ,2.8688603817\H,-8.0084851406,0.2177032837,0.9948590131\H,-8.628783532
 4,1.1545226044,2.3700334431\H,-8.3720284377,-0.5892570238,2.5340437226
 \H,-6.1780825209,-1.4627695236,2.6588114744\H,-4.8458029926,-0.3722288
 844,3.0750296803\H,-5.982876751,-0.8189473438,0.2584885674\H,-4.409370
 0972,-1.3442214118,0.8832565489\H,6.1727271106,-5.8491887254,-4.711980
 1462\H,4.9951340014,-7.1711667069,-4.6238917215\H,5.9996192626,-6.7791
 921867,-3.2274987919\\Version=EM64L-G09RevA.02\State=1-A\HF=-1581.7688
 535\RMSD=5.569e-09\RMSF=3.565e-06\Dipole=-0.9320389,0.4086389,-2.81029
 17\Quadrupole=0.5203922,-3.2924785,2.7720863,-10.4237529,0.2395052,2.2
 212075\PG=C01 [X(C29H31N7O1)]\\@


 ALMOST ANYTHING IS EASIER TO GET INTO THAN OUT OF.

                         -- AGNES ALLEN'S LAW FROM
                PAUL DICKSON'S "THE OFFICIAL RULES"
 Job cpu time:  0 days 12 hours 33 minutes 27.7 seconds.
 File lengths (MBytes):  RWF=    244 Int=      0 D2E=      0 Chk=     25 Scr=      1
 Normal termination of Gaussian 09 at Tue Mar 10 16:55:34 2020.
