 Entering Gaussian System, Link 0=g09
 Input=MOLECULE0-opt-29-28-25-24-305.com
 Output=MOLECULE0-opt-29-28-25-24-305.log
 Initial command:
 /opt/g09gh/gaussian/g09/l1.exe /scratch/bdw2292/Gau-MOLECULE0/Gau-108827.inp -scrdir=/scratch/bdw2292/Gau-MOLECULE0/
 Entering Link 1 = /opt/g09gh/gaussian/g09/l1.exe PID=    108828.
  
 Copyright (c) 1988,1990,1992,1993,1995,1998,2003,2009, Gaussian, Inc.
                  All Rights Reserved.
  
 This is part of the Gaussian(R) 09 program.  It is based on
 the Gaussian(R) 03 system (copyright 2003, Gaussian, Inc.),
 the Gaussian(R) 98 system (copyright 1998, Gaussian, Inc.),
 the Gaussian(R) 94 system (copyright 1995, Gaussian, Inc.),
 the Gaussian 92(TM) system (copyright 1992, Gaussian, Inc.),
 the Gaussian 90(TM) system (copyright 1990, Gaussian, Inc.),
 the Gaussian 88(TM) system (copyright 1988, Gaussian, Inc.),
 the Gaussian 86(TM) system (copyright 1986, Carnegie Mellon
 University), and the Gaussian 82(TM) system (copyright 1983,
 Carnegie Mellon University). Gaussian is a federally registered
 trademark of Gaussian, Inc.
  
 This software contains proprietary and confidential information,
 including trade secrets, belonging to Gaussian, Inc.
  
 This software is provided under written license and may be
 used, copied, transmitted, or stored only in accord with that
 written license.
  
 The following legend is applicable only to US Government
 contracts under FAR:
  
                    RESTRICTED RIGHTS LEGEND
  
 Use, reproduction and disclosure by the US Government is
 subject to restrictions as set forth in subparagraphs (a)
 and (c) of the Commercial Computer Software - Restricted
 Rights clause in FAR 52.227-19.
  
 Gaussian, Inc.
 340 Quinnipiac St., Bldg. 40, Wallingford CT 06492
  
  
 ---------------------------------------------------------------
 Warning -- This program may not be used in any manner that
 competes with the business of Gaussian, Inc. or will provide
 assistance to any competitor of Gaussian, Inc.  The licensee
 of this program is prohibited from giving any competitor of
 Gaussian, Inc. access to this program.  By using this program,
 the user acknowledges that Gaussian, Inc. is engaged in the
 business of creating and licensing software in the field of
 computational chemistry and represents and warrants to the
 licensee that it is not a competitor of Gaussian, Inc. and that
 it will not use this program in any manner prohibited above.
 ---------------------------------------------------------------
  

 Cite this work as:
 Gaussian 09, Revision A.02,
 M. J. Frisch, G. W. Trucks, H. B. Schlegel, G. E. Scuseria, 
 M. A. Robb, J. R. Cheeseman, G. Scalmani, V. Barone, B. Mennucci, 
 G. A. Petersson, H. Nakatsuji, M. Caricato, X. Li, H. P. Hratchian, 
 A. F. Izmaylov, J. Bloino, G. Zheng, J. L. Sonnenberg, M. Hada, 
 M. Ehara, K. Toyota, R. Fukuda, J. Hasegawa, M. Ishida, T. Nakajima, 
 Y. Honda, O. Kitao, H. Nakai, T. Vreven, J. A. Montgomery, Jr., 
 J. E. Peralta, F. Ogliaro, M. Bearpark, J. J. Heyd, E. Brothers, 
 K. N. Kudin, V. N. Staroverov, R. Kobayashi, J. Normand, 
 K. Raghavachari, A. Rendell, J. C. Burant, S. S. Iyengar, J. Tomasi, 
 M. Cossi, N. Rega, J. M. Millam, M. Klene, J. E. Knox, J. B. Cross, 
 V. Bakken, C. Adamo, J. Jaramillo, R. Gomperts, R. E. Stratmann, 
 O. Yazyev, A. J. Austin, R. Cammi, C. Pomelli, J. W. Ochterski, 
 R. L. Martin, K. Morokuma, V. G. Zakrzewski, G. A. Voth, 
 P. Salvador, J. J. Dannenberg, S. Dapprich, A. D. Daniels, 
 O. Farkas, J. B. Foresman, J. V. Ortiz, J. Cioslowski, 
 and D. J. Fox, Gaussian, Inc., Wallingford CT, 2009.
 
 ******************************************
 Gaussian 09:  EM64L-G09RevA.02 11-Jun-2009
                 8-Apr-2020 
 ******************************************
 %RWF=/scratch/bdw2292/Gau-MOLECULE0/,100GB
 %Nosave
 %Chk=MOLECULE0-opt-29-28-25-24-305.chk
 %Mem=20GB
 %Nproc=6
 Will use up to    6 processors via shared memory.
 --------------------------------------------------
 #P opt=(,maxcycle=400) wB97XD/6-31G* MaxDisk=100GB
 --------------------------------------------------
 1/6=400,14=-1,18=20,19=15,26=3,38=1/1,3;
 2/9=110,12=2,17=6,18=5,40=1/2;
 3/5=1,6=6,7=1,11=2,16=1,25=1,30=1,71=1,74=-58/1,2,3;
 4//1;
 5/5=2,38=5/2;
 6/7=2,8=2,9=2,10=2,28=1/1;
 7//1,2,3,16;
 1/6=400,14=-1,18=20,19=15/3(2);
 2/9=110/2;
 99//99;
 2/9=110/2;
 3/5=1,6=6,7=1,11=2,16=1,25=1,30=1,71=1,74=-58/1,2,3;
 4/5=5,16=3/1;
 5/5=2,38=5/2;
 7//1,2,3,16;
 1/6=400,14=-1,18=20,19=15/3(-5);
 2/9=110/2;
 6/7=2,8=2,9=2,10=2,19=2,28=1/1;
 99/9=1/99;
 Leave Link    1 at Wed Apr  8 22:13:46 2020, MaxMem= 2684354560 cpu:       0.6
 (Enter /opt/g09gh/gaussian/g09/l101.exe)
 --------------------------------------------------------------
 MOLECULE0 Rotatable Bond Optimization on node37.bme.utexas.edu
 --------------------------------------------------------------
 Symbolic Z-matrix:
 Charge =  0 Multiplicity = 1
 C                    -0.24621   4.48581   1.93185 
 C                     1.05049   4.16703   2.35796 
 C                     1.63272   2.93869   1.98567 
 C                     0.83418   2.10668   1.16256 
 N                    -0.40284   2.39449   0.73944 
 C                    -0.92969   3.56497   1.12968 
 C                     3.02289   2.51587   2.39419 
 C                     3.93444   3.30388   3.11505 
 C                     5.18768   2.72577   3.34426 
 N                     5.54055   1.50901   2.94002 
 C                     4.59475   0.81301   2.27454 
 N                     3.37218   1.27586   1.99784 
 N                     4.9693   -0.4618    1.87566 
 C                     4.32023  -1.49074   1.10127 
 C                     5.10101  -2.55397   0.5538 
 C                     4.42444  -3.52072  -0.20966 
 C                     3.04499  -3.5044   -0.44647 
 C                     2.29205  -2.46931   0.11642 
 C                     2.93877  -1.47967   0.87335 
 N                     0.88373  -2.28833  -0.02696 
 C                    -0.10826  -3.16886  -0.38514 
 C                    -1.47056  -2.58399  -0.70181 
 C                    -1.64495  -1.34214  -1.3346 
 C                    -2.92664  -0.83186  -1.54933 
 C                    -4.0752   -1.55033  -1.1688 
 C                    -3.88603  -2.81037  -0.56879 
 C                    -2.6077   -3.32711  -0.34609 
 C                    -5.4746   -0.95894  -1.34331 
 N                    -6.00393  -0.03995  -0.31945 
 C                    -5.49302   1.34772  -0.24948 
 C                    -4.37989   1.6164    0.79685 
 N                    -4.69312   1.11738   2.15711 
 C                    -5.52294   1.98911   2.99887 
 C                    -5.10872  -0.30253   2.07072 
 C                    -6.23817  -0.56864   1.04299 
 O                     0.07084  -4.37478  -0.43124 
 C                     6.60405  -2.67166   0.74038 
 H                    -0.71584   5.42392   2.21262 
 H                     1.57552   4.88377   2.98468 
 H                     1.2292    1.16226   0.80588 
 H                    -1.93655   3.77539   0.77372 
 H                     3.72817   4.30931   3.4607 
 H                     5.95683   3.2794    3.88229 
 H                     5.9312   -0.62477   2.13339 
 H                     4.98949  -4.34232  -0.64852 
 H                     2.56013  -4.27676  -1.03128 
 H                     2.35926  -0.68284   1.31273 
 H                     0.57934  -1.33128   0.08652 
 H                    -0.77349  -0.76514  -1.63379 
 H                    -3.02677   0.14919  -2.01379 
 H                    -4.74717  -3.39656  -0.24868 
 H                    -2.46981  -4.29472   0.12993 
 H                    -5.50585  -0.42277  -2.30279 
 H                    -6.19344  -1.78787  -1.41951 
 H                    -5.17995   1.71908  -1.30521 
 H                    -6.71733   2.25723   0.21334 
 H                    -4.13528   2.643     0.84796 
 H                    -3.20003   0.93183   0.37227 
 H                    -6.53106   2.09369   2.58222 
 H                    -5.06813   2.98327   3.07686 
 H                    -5.59973   1.57502   4.01088 
 H                    -5.37332  -0.66829   3.06953 
 H                    -3.89605  -1.08726   1.60868 
 H                    -7.49786   0.14147   1.59946 
 H                    -6.49564  -1.77858   0.99422 
 H                     6.86479  -2.82406   1.79712 
 H                     7.12554  -1.76655   0.39836 
 H                     7.04078  -3.51278   0.18447 
 
 NAtoms=     68 NQM=     68 NQMF=      0 NMic=      0 NMicF=      0 NTot=     68.
                    Isotopes and Nuclear Properties:
 (Nuclear quadrupole moments (NQMom) in fm**2, nuclear magnetic moments (NMagM)
  in nuclear magnetons)

  Atom         1           2           3           4           5           6           7           8           9          10
 IAtWgt=          12          12          12          12          14          12          12          12          12          14
 AtmWgt=  12.0000000  12.0000000  12.0000000  12.0000000  14.0030740  12.0000000  12.0000000  12.0000000  12.0000000  14.0030740
 NucSpn=           0           0           0           0           2           0           0           0           0           2
 AtZEff=   0.0000000   0.0000000   0.0000000   0.0000000   0.0000000   0.0000000   0.0000000   0.0000000   0.0000000   0.0000000
 NQMom=    0.0000000   0.0000000   0.0000000   0.0000000   2.0440000   0.0000000   0.0000000   0.0000000   0.0000000   2.0440000
 NMagM=    0.0000000   0.0000000   0.0000000   0.0000000   0.4037610   0.0000000   0.0000000   0.0000000   0.0000000   0.4037610

  Atom        11          12          13          14          15          16          17          18          19          20
 IAtWgt=          12          14          14          12          12          12          12          12          12          14
 AtmWgt=  12.0000000  14.0030740  14.0030740  12.0000000  12.0000000  12.0000000  12.0000000  12.0000000  12.0000000  14.0030740
 NucSpn=           0           2           2           0           0           0           0           0           0           2
 AtZEff=   0.0000000   0.0000000   0.0000000   0.0000000   0.0000000   0.0000000   0.0000000   0.0000000   0.0000000   0.0000000
 NQMom=    0.0000000   2.0440000   2.0440000   0.0000000   0.0000000   0.0000000   0.0000000   0.0000000   0.0000000   2.0440000
 NMagM=    0.0000000   0.4037610   0.4037610   0.0000000   0.0000000   0.0000000   0.0000000   0.0000000   0.0000000   0.4037610

  Atom        21          22          23          24          25          26          27          28          29          30
 IAtWgt=          12          12          12          12          12          12          12          12          14          12
 AtmWgt=  12.0000000  12.0000000  12.0000000  12.0000000  12.0000000  12.0000000  12.0000000  12.0000000  14.0030740  12.0000000
 NucSpn=           0           0           0           0           0           0           0           0           2           0
 AtZEff=   0.0000000   0.0000000   0.0000000   0.0000000   0.0000000   0.0000000   0.0000000   0.0000000   0.0000000   0.0000000
 NQMom=    0.0000000   0.0000000   0.0000000   0.0000000   0.0000000   0.0000000   0.0000000   0.0000000   2.0440000   0.0000000
 NMagM=    0.0000000   0.0000000   0.0000000   0.0000000   0.0000000   0.0000000   0.0000000   0.0000000   0.4037610   0.0000000

  Atom        31          32          33          34          35          36          37          38          39          40
 IAtWgt=          12          14          12          12          12          16          12           1           1           1
 AtmWgt=  12.0000000  14.0030740  12.0000000  12.0000000  12.0000000  15.9949146  12.0000000   1.0078250   1.0078250   1.0078250
 NucSpn=           0           2           0           0           0           0           0           1           1           1
 AtZEff=   0.0000000   0.0000000   0.0000000   0.0000000   0.0000000   0.0000000   0.0000000   0.0000000   0.0000000   0.0000000
 NQMom=    0.0000000   2.0440000   0.0000000   0.0000000   0.0000000   0.0000000   0.0000000   0.0000000   0.0000000   0.0000000
 NMagM=    0.0000000   0.4037610   0.0000000   0.0000000   0.0000000   0.0000000   0.0000000   2.7928460   2.7928460   2.7928460

  Atom        41          42          43          44          45          46          47          48          49          50
 IAtWgt=           1           1           1           1           1           1           1           1           1           1
 AtmWgt=   1.0078250   1.0078250   1.0078250   1.0078250   1.0078250   1.0078250   1.0078250   1.0078250   1.0078250   1.0078250
 NucSpn=           1           1           1           1           1           1           1           1           1           1
 AtZEff=   0.0000000   0.0000000   0.0000000   0.0000000   0.0000000   0.0000000   0.0000000   0.0000000   0.0000000   0.0000000
 NQMom=    0.0000000   0.0000000   0.0000000   0.0000000   0.0000000   0.0000000   0.0000000   0.0000000   0.0000000   0.0000000
 NMagM=    2.7928460   2.7928460   2.7928460   2.7928460   2.7928460   2.7928460   2.7928460   2.7928460   2.7928460   2.7928460

  Atom        51          52          53          54          55          56          57          58          59          60
 IAtWgt=           1           1           1           1           1           1           1           1           1           1
 AtmWgt=   1.0078250   1.0078250   1.0078250   1.0078250   1.0078250   1.0078250   1.0078250   1.0078250   1.0078250   1.0078250
 NucSpn=           1           1           1           1           1           1           1           1           1           1
 AtZEff=   0.0000000   0.0000000   0.0000000   0.0000000   0.0000000   0.0000000   0.0000000   0.0000000   0.0000000   0.0000000
 NQMom=    0.0000000   0.0000000   0.0000000   0.0000000   0.0000000   0.0000000   0.0000000   0.0000000   0.0000000   0.0000000
 NMagM=    2.7928460   2.7928460   2.7928460   2.7928460   2.7928460   2.7928460   2.7928460   2.7928460   2.7928460   2.7928460

  Atom        61          62          63          64          65          66          67          68
 IAtWgt=           1           1           1           1           1           1           1           1
 AtmWgt=   1.0078250   1.0078250   1.0078250   1.0078250   1.0078250   1.0078250   1.0078250   1.0078250
 NucSpn=           1           1           1           1           1           1           1           1
 AtZEff=   0.0000000   0.0000000   0.0000000   0.0000000   0.0000000   0.0000000   0.0000000   0.0000000
 NQMom=    0.0000000   0.0000000   0.0000000   0.0000000   0.0000000   0.0000000   0.0000000   0.0000000
 NMagM=    2.7928460   2.7928460   2.7928460   2.7928460   2.7928460   2.7928460   2.7928460   2.7928460
 Leave Link  101 at Wed Apr  8 22:13:46 2020, MaxMem= 2684354560 cpu:       0.4
 (Enter /opt/g09gh/gaussian/g09/l103.exe)

 GradGradGradGradGradGradGradGradGradGradGradGradGradGradGradGradGradGrad
 Berny optimization.
 Initialization pass.
                           ----------------------------
                           !    Initial Parameters    !
                           ! (Angstroms and Degrees)  !
 --------------------------                            --------------------------
 ! Name  Definition              Value          Derivative Info.                !
 --------------------------------------------------------------------------------
 ! R1    R(1,2)                  1.4017         estimate D2E/DX2                !
 ! R2    R(1,6)                  1.3995         estimate D2E/DX2                !
 ! R3    R(1,38)                 1.086          estimate D2E/DX2                !
 ! R4    R(2,3)                  1.4094         estimate D2E/DX2                !
 ! R5    R(2,39)                 1.0873         estimate D2E/DX2                !
 ! R6    R(3,4)                  1.4168         estimate D2E/DX2                !
 ! R7    R(3,7)                  1.5094         estimate D2E/DX2                !
 ! R8    R(4,5)                  1.3387         estimate D2E/DX2                !
 ! R9    R(4,40)                 1.0841         estimate D2E/DX2                !
 ! R10   R(5,6)                  1.3416         estimate D2E/DX2                !
 ! R11   R(6,41)                 1.0885         estimate D2E/DX2                !
 ! R12   R(7,8)                  1.4041         estimate D2E/DX2                !
 ! R13   R(7,12)                 1.3479         estimate D2E/DX2                !
 ! R14   R(8,9)                  1.3991         estimate D2E/DX2                !
 ! R15   R(8,42)                 1.083          estimate D2E/DX2                !
 ! R16   R(9,10)                 1.3298         estimate D2E/DX2                !
 ! R17   R(9,43)                 1.0898         estimate D2E/DX2                !
 ! R18   R(10,11)                1.3498         estimate D2E/DX2                !
 ! R19   R(11,12)                1.3362         estimate D2E/DX2                !
 ! R20   R(11,13)                1.3873         estimate D2E/DX2                !
 ! R21   R(13,14)                1.4421         estimate D2E/DX2                !
 ! R22   R(13,44)                1.0091         estimate D2E/DX2                !
 ! R23   R(14,15)                1.4282         estimate D2E/DX2                !
 ! R24   R(14,19)                1.4002         estimate D2E/DX2                !
 ! R25   R(15,16)                1.4054         estimate D2E/DX2                !
 ! R26   R(15,37)                1.5191         estimate D2E/DX2                !
 ! R27   R(16,17)                1.3997         estimate D2E/DX2                !
 ! R28   R(16,45)                1.0895         estimate D2E/DX2                !
 ! R29   R(17,18)                1.3983         estimate D2E/DX2                !
 ! R30   R(17,46)                1.0833         estimate D2E/DX2                !
 ! R31   R(18,19)                1.4038         estimate D2E/DX2                !
 ! R32   R(18,20)                1.4271         estimate D2E/DX2                !
 ! R33   R(19,47)                1.0788         estimate D2E/DX2                !
 ! R34   R(20,21)                1.3739         estimate D2E/DX2                !
 ! R35   R(20,48)                1.0107         estimate D2E/DX2                !
 ! R36   R(21,22)                1.516          estimate D2E/DX2                !
 ! R37   R(21,36)                1.22           estimate D2E/DX2                !
 ! R38   R(22,23)                1.4046         estimate D2E/DX2                !
 ! R39   R(22,27)                1.4042         estimate D2E/DX2                !
 ! R40   R(23,24)                1.3961         estimate D2E/DX2                !
 ! R41   R(23,49)                1.0871         estimate D2E/DX2                !
 ! R42   R(24,25)                1.4072         estimate D2E/DX2                !
 ! R43   R(24,50)                1.09           estimate D2E/DX2                !
 ! R44   R(25,26)                1.4084         estimate D2E/DX2                !
 ! R45   R(25,28)                1.5292         estimate D2E/DX2                !
 ! R46   R(26,27)                1.3967         estimate D2E/DX2                !
 ! R47   R(26,51)                1.0898         estimate D2E/DX2                !
 ! R48   R(27,52)                1.0871         estimate D2E/DX2                !
 ! R49   R(28,29)                1.4741         estimate D2E/DX2                !
 ! R50   R(28,53)                1.0996         estimate D2E/DX2                !
 ! R51   R(28,54)                1.0999         estimate D2E/DX2                !
 ! R52   R(29,30)                1.4804         estimate D2E/DX2                !
 ! R53   R(29,35)                1.4801         estimate D2E/DX2                !
 ! R54   R(30,31)                1.5511         estimate D2E/DX2                !
 ! R55   R(30,55)                1.1621         estimate D2E/DX2                !
 ! R56   R(30,56)                1.5938         estimate D2E/DX2                !
 ! R57   R(31,32)                1.4824         estimate D2E/DX2                !
 ! R58   R(31,57)                1.0566         estimate D2E/DX2                !
 ! R59   R(31,58)                1.4286         estimate D2E/DX2                !
 ! R60   R(32,33)                1.4687         estimate D2E/DX2                !
 ! R61   R(32,34)                1.482          estimate D2E/DX2                !
 ! R62   R(33,59)                1.0958         estimate D2E/DX2                !
 ! R63   R(33,60)                1.096          estimate D2E/DX2                !
 ! R64   R(33,61)                1.0961         estimate D2E/DX2                !
 ! R65   R(34,35)                1.5501         estimate D2E/DX2                !
 ! R66   R(34,62)                1.0961         estimate D2E/DX2                !
 ! R67   R(34,63)                1.5165         estimate D2E/DX2                !
 ! R68   R(35,64)                1.5494         estimate D2E/DX2                !
 ! R69   R(35,65)                1.238          estimate D2E/DX2                !
 ! R70   R(37,66)                1.099          estimate D2E/DX2                !
 ! R71   R(37,67)                1.0992         estimate D2E/DX2                !
 ! R72   R(37,68)                1.0988         estimate D2E/DX2                !
 ! A1    A(2,1,6)              118.4516         estimate D2E/DX2                !
 ! A2    A(2,1,38)             121.1927         estimate D2E/DX2                !
 ! A3    A(6,1,38)             120.3556         estimate D2E/DX2                !
 ! A4    A(1,2,3)              120.0052         estimate D2E/DX2                !
 ! A5    A(1,2,39)             118.167          estimate D2E/DX2                !
 ! A6    A(3,2,39)             121.8236         estimate D2E/DX2                !
 ! A7    A(2,3,4)              115.6219         estimate D2E/DX2                !
 ! A8    A(2,3,7)              123.5814         estimate D2E/DX2                !
 ! A9    A(4,3,7)              120.7855         estimate D2E/DX2                !
 ! A10   A(3,4,5)              125.3216         estimate D2E/DX2                !
 ! A11   A(3,4,40)             119.826          estimate D2E/DX2                !
 ! A12   A(5,4,40)             114.8361         estimate D2E/DX2                !
 ! A13   A(4,5,6)              117.2915         estimate D2E/DX2                !
 ! A14   A(1,6,5)              123.2986         estimate D2E/DX2                !
 ! A15   A(1,6,41)             120.7977         estimate D2E/DX2                !
 ! A16   A(5,6,41)             115.8998         estimate D2E/DX2                !
 ! A17   A(3,7,8)              125.4269         estimate D2E/DX2                !
 ! A18   A(3,7,12)             114.6329         estimate D2E/DX2                !
 ! A19   A(8,7,12)             119.9368         estimate D2E/DX2                !
 ! A20   A(7,8,9)              115.7055         estimate D2E/DX2                !
 ! A21   A(7,8,42)             124.1405         estimate D2E/DX2                !
 ! A22   A(9,8,42)             120.128          estimate D2E/DX2                !
 ! A23   A(8,9,10)             124.4701         estimate D2E/DX2                !
 ! A24   A(8,9,43)             120.2122         estimate D2E/DX2                !
 ! A25   A(10,9,43)            115.3168         estimate D2E/DX2                !
 ! A26   A(9,10,11)            115.8324         estimate D2E/DX2                !
 ! A27   A(10,11,12)           124.3754         estimate D2E/DX2                !
 ! A28   A(10,11,13)           115.2404         estimate D2E/DX2                !
 ! A29   A(12,11,13)           120.3842         estimate D2E/DX2                !
 ! A30   A(7,12,11)            119.6621         estimate D2E/DX2                !
 ! A31   A(11,13,14)           133.5141         estimate D2E/DX2                !
 ! A32   A(11,13,44)           109.4113         estimate D2E/DX2                !
 ! A33   A(14,13,44)           116.8048         estimate D2E/DX2                !
 ! A34   A(13,14,15)           119.4028         estimate D2E/DX2                !
 ! A35   A(13,14,19)           121.724          estimate D2E/DX2                !
 ! A36   A(15,14,19)           118.8729         estimate D2E/DX2                !
 ! A37   A(14,15,16)           117.2024         estimate D2E/DX2                !
 ! A38   A(14,15,37)           123.469          estimate D2E/DX2                !
 ! A39   A(16,15,37)           119.3225         estimate D2E/DX2                !
 ! A40   A(15,16,17)           123.9391         estimate D2E/DX2                !
 ! A41   A(15,16,45)           119.2023         estimate D2E/DX2                !
 ! A42   A(17,16,45)           116.8582         estimate D2E/DX2                !
 ! A43   A(16,17,18)           118.1125         estimate D2E/DX2                !
 ! A44   A(16,17,46)           121.6069         estimate D2E/DX2                !
 ! A45   A(18,17,46)           120.27           estimate D2E/DX2                !
 ! A46   A(17,18,19)           119.3974         estimate D2E/DX2                !
 ! A47   A(17,18,20)           125.7899         estimate D2E/DX2                !
 ! A48   A(19,18,20)           114.7968         estimate D2E/DX2                !
 ! A49   A(14,19,18)           122.4617         estimate D2E/DX2                !
 ! A50   A(14,19,47)           118.0047         estimate D2E/DX2                !
 ! A51   A(18,19,47)           119.5281         estimate D2E/DX2                !
 ! A52   A(18,20,21)           131.1034         estimate D2E/DX2                !
 ! A53   A(18,20,48)           113.9542         estimate D2E/DX2                !
 ! A54   A(21,20,48)           114.7525         estimate D2E/DX2                !
 ! A55   A(20,21,22)           117.1307         estimate D2E/DX2                !
 ! A56   A(20,21,36)           122.5024         estimate D2E/DX2                !
 ! A57   A(22,21,36)           120.3559         estimate D2E/DX2                !
 ! A58   A(21,22,23)           123.1447         estimate D2E/DX2                !
 ! A59   A(21,22,27)           118.0745         estimate D2E/DX2                !
 ! A60   A(23,22,27)           118.7804         estimate D2E/DX2                !
 ! A61   A(22,23,24)           120.4239         estimate D2E/DX2                !
 ! A62   A(22,23,49)           119.5838         estimate D2E/DX2                !
 ! A63   A(24,23,49)           119.972          estimate D2E/DX2                !
 ! A64   A(23,24,25)           121.4056         estimate D2E/DX2                !
 ! A65   A(23,24,50)           118.6079         estimate D2E/DX2                !
 ! A66   A(25,24,50)           119.9838         estimate D2E/DX2                !
 ! A67   A(24,25,26)           117.5404         estimate D2E/DX2                !
 ! A68   A(24,25,28)           121.2389         estimate D2E/DX2                !
 ! A69   A(26,25,28)           121.1665         estimate D2E/DX2                !
 ! A70   A(25,26,27)           121.458          estimate D2E/DX2                !
 ! A71   A(25,26,51)           120.0164         estimate D2E/DX2                !
 ! A72   A(27,26,51)           118.5145         estimate D2E/DX2                !
 ! A73   A(22,27,26)           120.3307         estimate D2E/DX2                !
 ! A74   A(22,27,52)           118.6349         estimate D2E/DX2                !
 ! A75   A(26,27,52)           121.0107         estimate D2E/DX2                !
 ! A76   A(25,28,29)           119.369          estimate D2E/DX2                !
 ! A77   A(25,28,53)           108.31           estimate D2E/DX2                !
 ! A78   A(25,28,54)           108.3329         estimate D2E/DX2                !
 ! A79   A(29,28,53)           106.9703         estimate D2E/DX2                !
 ! A80   A(29,28,54)           106.4567         estimate D2E/DX2                !
 ! A81   A(53,28,54)           106.7663         estimate D2E/DX2                !
 ! A82   A(28,29,30)           119.556          estimate D2E/DX2                !
 ! A83   A(28,29,35)           118.2612         estimate D2E/DX2                !
 ! A84   A(30,29,35)           110.2398         estimate D2E/DX2                !
 ! A85   A(29,30,31)           116.2256         estimate D2E/DX2                !
 ! A86   A(29,30,55)           110.4615         estimate D2E/DX2                !
 ! A87   A(29,30,56)           106.4705         estimate D2E/DX2                !
 ! A88   A(31,30,55)           111.3541         estimate D2E/DX2                !
 ! A89   A(31,30,56)           104.8636         estimate D2E/DX2                !
 ! A90   A(55,30,56)           106.7617         estimate D2E/DX2                !
 ! A91   A(30,31,32)           114.1448         estimate D2E/DX2                !
 ! A92   A(30,31,57)           111.5351         estimate D2E/DX2                !
 ! A93   A(30,31,58)           108.0103         estimate D2E/DX2                !
 ! A94   A(32,31,57)           109.3666         estimate D2E/DX2                !
 ! A95   A(32,31,58)           106.6131         estimate D2E/DX2                !
 ! A96   A(57,31,58)           106.7837         estimate D2E/DX2                !
 ! A97   A(31,32,33)           116.455          estimate D2E/DX2                !
 ! A98   A(31,32,34)           109.1653         estimate D2E/DX2                !
 ! A99   A(33,32,34)           116.336          estimate D2E/DX2                !
 ! A100  A(32,33,59)           111.0088         estimate D2E/DX2                !
 ! A101  A(32,33,60)           110.163          estimate D2E/DX2                !
 ! A102  A(32,33,61)           110.151          estimate D2E/DX2                !
 ! A103  A(59,33,60)           108.7987         estimate D2E/DX2                !
 ! A104  A(59,33,61)           108.8224         estimate D2E/DX2                !
 ! A105  A(60,33,61)           107.8209         estimate D2E/DX2                !
 ! A106  A(32,34,35)           114.0463         estimate D2E/DX2                !
 ! A107  A(32,34,62)           109.5296         estimate D2E/DX2                !
 ! A108  A(32,34,63)           106.8155         estimate D2E/DX2                !
 ! A109  A(35,34,62)           111.7767         estimate D2E/DX2                !
 ! A110  A(35,34,63)           106.9665         estimate D2E/DX2                !
 ! A111  A(62,34,63)           107.337          estimate D2E/DX2                !
 ! A112  A(29,35,34)           115.7016         estimate D2E/DX2                !
 ! A113  A(29,35,64)           107.1908         estimate D2E/DX2                !
 ! A114  A(29,35,65)           110.2288         estimate D2E/DX2                !
 ! A115  A(34,35,64)           105.9969         estimate D2E/DX2                !
 ! A116  A(34,35,65)           110.2093         estimate D2E/DX2                !
 ! A117  A(64,35,65)           107.0366         estimate D2E/DX2                !
 ! A118  A(15,37,66)           111.3196         estimate D2E/DX2                !
 ! A119  A(15,37,67)           111.5557         estimate D2E/DX2                !
 ! A120  A(15,37,68)           112.9818         estimate D2E/DX2                !
 ! A121  A(66,37,67)           107.506          estimate D2E/DX2                !
 ! A122  A(66,37,68)           106.6198         estimate D2E/DX2                !
 ! A123  A(67,37,68)           106.52           estimate D2E/DX2                !
 ! D1    D(6,1,2,3)             -0.4613         estimate D2E/DX2                !
 ! D2    D(6,1,2,39)          -179.7281         estimate D2E/DX2                !
 ! D3    D(38,1,2,3)           179.6019         estimate D2E/DX2                !
 ! D4    D(38,1,2,39)            0.3351         estimate D2E/DX2                !
 ! D5    D(2,1,6,5)             -0.4694         estimate D2E/DX2                !
 ! D6    D(2,1,6,41)          -179.7282         estimate D2E/DX2                !
 ! D7    D(38,1,6,5)           179.4679         estimate D2E/DX2                !
 ! D8    D(38,1,6,41)            0.2092         estimate D2E/DX2                !
 ! D9    D(1,2,3,4)              0.9823         estimate D2E/DX2                !
 ! D10   D(1,2,3,7)            179.7675         estimate D2E/DX2                !
 ! D11   D(39,2,3,4)          -179.7783         estimate D2E/DX2                !
 ! D12   D(39,2,3,7)            -0.9932         estimate D2E/DX2                !
 ! D13   D(2,3,4,5)             -0.7008         estimate D2E/DX2                !
 ! D14   D(2,3,4,40)           177.7559         estimate D2E/DX2                !
 ! D15   D(7,3,4,5)           -179.5227         estimate D2E/DX2                !
 ! D16   D(7,3,4,40)            -1.066          estimate D2E/DX2                !
 ! D17   D(2,3,7,8)             -4.0355         estimate D2E/DX2                !
 ! D18   D(2,3,7,12)           176.6418         estimate D2E/DX2                !
 ! D19   D(4,3,7,8)            174.6894         estimate D2E/DX2                !
 ! D20   D(4,3,7,12)            -4.6332         estimate D2E/DX2                !
 ! D21   D(3,4,5,6)             -0.1645         estimate D2E/DX2                !
 ! D22   D(40,4,5,6)          -178.6892         estimate D2E/DX2                !
 ! D23   D(4,5,6,1)              0.7744         estimate D2E/DX2                !
 ! D24   D(4,5,6,41)          -179.9334         estimate D2E/DX2                !
 ! D25   D(3,7,8,9)           -177.8432         estimate D2E/DX2                !
 ! D26   D(3,7,8,42)             0.2966         estimate D2E/DX2                !
 ! D27   D(12,7,8,9)             1.4464         estimate D2E/DX2                !
 ! D28   D(12,7,8,42)          179.5861         estimate D2E/DX2                !
 ! D29   D(3,7,12,11)          178.2114         estimate D2E/DX2                !
 ! D30   D(8,7,12,11)           -1.1517         estimate D2E/DX2                !
 ! D31   D(7,8,9,10)            -0.648          estimate D2E/DX2                !
 ! D32   D(7,8,9,43)           179.001          estimate D2E/DX2                !
 ! D33   D(42,8,9,10)         -178.8679         estimate D2E/DX2                !
 ! D34   D(42,8,9,43)            0.7811         estimate D2E/DX2                !
 ! D35   D(8,9,10,11)           -0.4518         estimate D2E/DX2                !
 ! D36   D(43,9,10,11)         179.8837         estimate D2E/DX2                !
 ! D37   D(9,10,11,12)           0.8383         estimate D2E/DX2                !
 ! D38   D(9,10,11,13)        -179.099          estimate D2E/DX2                !
 ! D39   D(10,11,12,7)          -0.0419         estimate D2E/DX2                !
 ! D40   D(13,11,12,7)         179.8923         estimate D2E/DX2                !
 ! D41   D(10,11,13,14)       -176.1002         estimate D2E/DX2                !
 ! D42   D(10,11,13,44)         -2.4524         estimate D2E/DX2                !
 ! D43   D(12,11,13,14)          3.9598         estimate D2E/DX2                !
 ! D44   D(12,11,13,44)        177.6076         estimate D2E/DX2                !
 ! D45   D(11,13,14,15)        162.904          estimate D2E/DX2                !
 ! D46   D(11,13,14,19)        -17.3153         estimate D2E/DX2                !
 ! D47   D(44,13,14,15)        -10.382          estimate D2E/DX2                !
 ! D48   D(44,13,14,19)        169.3987         estimate D2E/DX2                !
 ! D49   D(13,14,15,16)       -179.0745         estimate D2E/DX2                !
 ! D50   D(13,14,15,37)          0.0205         estimate D2E/DX2                !
 ! D51   D(19,14,15,16)          1.1385         estimate D2E/DX2                !
 ! D52   D(19,14,15,37)       -179.7665         estimate D2E/DX2                !
 ! D53   D(13,14,19,18)        179.6663         estimate D2E/DX2                !
 ! D54   D(13,14,19,47)         -1.1923         estimate D2E/DX2                !
 ! D55   D(15,14,19,18)         -0.5519         estimate D2E/DX2                !
 ! D56   D(15,14,19,47)        178.5895         estimate D2E/DX2                !
 ! D57   D(14,15,16,17)         -0.6844         estimate D2E/DX2                !
 ! D58   D(14,15,16,45)        179.5793         estimate D2E/DX2                !
 ! D59   D(37,15,16,17)       -179.8185         estimate D2E/DX2                !
 ! D60   D(37,15,16,45)          0.4452         estimate D2E/DX2                !
 ! D61   D(14,15,37,66)         64.3695         estimate D2E/DX2                !
 ! D62   D(14,15,37,67)        -55.7203         estimate D2E/DX2                !
 ! D63   D(14,15,37,68)       -175.6955         estimate D2E/DX2                !
 ! D64   D(16,15,37,66)       -116.5537         estimate D2E/DX2                !
 ! D65   D(16,15,37,67)        123.3565         estimate D2E/DX2                !
 ! D66   D(16,15,37,68)          3.3812         estimate D2E/DX2                !
 ! D67   D(15,16,17,18)         -0.4091         estimate D2E/DX2                !
 ! D68   D(15,16,17,46)       -179.2253         estimate D2E/DX2                !
 ! D69   D(45,16,17,18)        179.3329         estimate D2E/DX2                !
 ! D70   D(45,16,17,46)          0.5167         estimate D2E/DX2                !
 ! D71   D(16,17,18,19)          1.0283         estimate D2E/DX2                !
 ! D72   D(16,17,18,20)        179.4949         estimate D2E/DX2                !
 ! D73   D(46,17,18,19)        179.8609         estimate D2E/DX2                !
 ! D74   D(46,17,18,20)         -1.6724         estimate D2E/DX2                !
 ! D75   D(17,18,19,14)         -0.5664         estimate D2E/DX2                !
 ! D76   D(17,18,19,47)       -179.6951         estimate D2E/DX2                !
 ! D77   D(20,18,19,14)       -179.1963         estimate D2E/DX2                !
 ! D78   D(20,18,19,47)          1.675          estimate D2E/DX2                !
 ! D79   D(17,18,20,21)         19.8133         estimate D2E/DX2                !
 ! D80   D(17,18,20,48)       -154.8297         estimate D2E/DX2                !
 ! D81   D(19,18,20,21)       -161.6583         estimate D2E/DX2                !
 ! D82   D(19,18,20,48)         23.6987         estimate D2E/DX2                !
 ! D83   D(18,20,21,22)       -168.3924         estimate D2E/DX2                !
 ! D84   D(18,20,21,36)         12.8133         estimate D2E/DX2                !
 ! D85   D(48,20,21,22)          6.2166         estimate D2E/DX2                !
 ! D86   D(48,20,21,36)       -172.5778         estimate D2E/DX2                !
 ! D87   D(20,21,22,23)         35.2072         estimate D2E/DX2                !
 ! D88   D(20,21,22,27)       -144.9931         estimate D2E/DX2                !
 ! D89   D(36,21,22,23)       -145.9712         estimate D2E/DX2                !
 ! D90   D(36,21,22,27)         33.8285         estimate D2E/DX2                !
 ! D91   D(21,22,23,24)       -177.3294         estimate D2E/DX2                !
 ! D92   D(21,22,23,49)          1.0297         estimate D2E/DX2                !
 ! D93   D(27,22,23,24)          2.8722         estimate D2E/DX2                !
 ! D94   D(27,22,23,49)       -178.7687         estimate D2E/DX2                !
 ! D95   D(21,22,27,26)        177.5252         estimate D2E/DX2                !
 ! D96   D(21,22,27,52)         -0.7231         estimate D2E/DX2                !
 ! D97   D(23,22,27,26)         -2.6661         estimate D2E/DX2                !
 ! D98   D(23,22,27,52)        179.0856         estimate D2E/DX2                !
 ! D99   D(22,23,24,25)         -1.3707         estimate D2E/DX2                !
 ! D100  D(22,23,24,50)        178.0393         estimate D2E/DX2                !
 ! D101  D(49,23,24,25)       -179.7234         estimate D2E/DX2                !
 ! D102  D(49,23,24,50)         -0.3134         estimate D2E/DX2                !
 ! D103  D(23,24,25,26)         -0.3718         estimate D2E/DX2                !
 ! D104  D(23,24,25,28)        176.9807         estimate D2E/DX2                !
 ! D105  D(50,24,25,26)       -179.7739         estimate D2E/DX2                !
 ! D106  D(50,24,25,28)         -2.4214         estimate D2E/DX2                !
 ! D107  D(24,25,26,27)          0.5785         estimate D2E/DX2                !
 ! D108  D(24,25,26,51)        179.3456         estimate D2E/DX2                !
 ! D109  D(28,25,26,27)       -176.776          estimate D2E/DX2                !
 ! D110  D(28,25,26,51)          1.9911         estimate D2E/DX2                !
 ! D111  D(24,25,28,29)        -82.9282         estimate D2E/DX2                !
 ! D112  D(24,25,28,53)         39.6876         estimate D2E/DX2                !
 ! D113  D(24,25,28,54)        155.1391         estimate D2E/DX2                !
 ! D114  D(26,25,28,29)         94.3282         estimate D2E/DX2                !
 ! D115  D(26,25,28,53)       -143.0559         estimate D2E/DX2                !
 ! D116  D(26,25,28,54)        -27.6044         estimate D2E/DX2                !
 ! D117  D(25,26,27,22)          0.9559         estimate D2E/DX2                !
 ! D118  D(25,26,27,52)        179.162          estimate D2E/DX2                !
 ! D119  D(51,26,27,22)       -177.8292         estimate D2E/DX2                !
 ! D120  D(51,26,27,52)          0.3769         estimate D2E/DX2                !
 ! D121  D(25,28,29,30)         74.6539         estimate D2E/DX2                !
 ! D122  D(25,28,29,35)        -64.4905         estimate D2E/DX2                !
 ! D123  D(53,28,29,30)        -48.6194         estimate D2E/DX2                !
 ! D124  D(53,28,29,35)        172.2363         estimate D2E/DX2                !
 ! D125  D(54,28,29,30)       -162.4871         estimate D2E/DX2                !
 ! D126  D(54,28,29,35)         58.3686         estimate D2E/DX2                !
 ! D127  D(28,29,30,31)        -97.4245         estimate D2E/DX2                !
 ! D128  D(28,29,30,55)         30.6768         estimate D2E/DX2                !
 ! D129  D(28,29,30,56)        146.2268         estimate D2E/DX2                !
 ! D130  D(35,29,30,31)         44.6891         estimate D2E/DX2                !
 ! D131  D(35,29,30,55)        172.7904         estimate D2E/DX2                !
 ! D132  D(35,29,30,56)        -71.6597         estimate D2E/DX2                !
 ! D133  D(28,29,35,34)         97.2784         estimate D2E/DX2                !
 ! D134  D(28,29,35,64)       -144.749          estimate D2E/DX2                !
 ! D135  D(28,29,35,65)        -28.591          estimate D2E/DX2                !
 ! D136  D(30,29,35,34)        -45.3861         estimate D2E/DX2                !
 ! D137  D(30,29,35,64)         72.5865         estimate D2E/DX2                !
 ! D138  D(30,29,35,65)       -171.2555         estimate D2E/DX2                !
 ! D139  D(29,30,31,32)        -50.0284         estimate D2E/DX2                !
 ! D140  D(29,30,31,57)       -174.6091         estimate D2E/DX2                !
 ! D141  D(29,30,31,58)         68.3439         estimate D2E/DX2                !
 ! D142  D(55,30,31,32)       -177.6914         estimate D2E/DX2                !
 ! D143  D(55,30,31,57)         57.7279         estimate D2E/DX2                !
 ! D144  D(55,30,31,58)        -59.319          estimate D2E/DX2                !
 ! D145  D(56,30,31,32)         67.2128         estimate D2E/DX2                !
 ! D146  D(56,30,31,57)        -57.3679         estimate D2E/DX2                !
 ! D147  D(56,30,31,58)       -174.4149         estimate D2E/DX2                !
 ! D148  D(30,31,32,33)        -83.0912         estimate D2E/DX2                !
 ! D149  D(30,31,32,34)         51.1392         estimate D2E/DX2                !
 ! D150  D(57,31,32,33)         42.6378         estimate D2E/DX2                !
 ! D151  D(57,31,32,34)        176.8682         estimate D2E/DX2                !
 ! D152  D(58,31,32,33)        157.7432         estimate D2E/DX2                !
 ! D153  D(58,31,32,34)        -68.0264         estimate D2E/DX2                !
 ! D154  D(31,32,33,59)         65.518          estimate D2E/DX2                !
 ! D155  D(31,32,33,60)        -55.0623         estimate D2E/DX2                !
 ! D156  D(31,32,33,61)       -173.88           estimate D2E/DX2                !
 ! D157  D(34,32,33,59)        -65.4382         estimate D2E/DX2                !
 ! D158  D(34,32,33,60)        173.9816         estimate D2E/DX2                !
 ! D159  D(34,32,33,61)         55.1638         estimate D2E/DX2                !
 ! D160  D(31,32,34,35)        -52.0547         estimate D2E/DX2                !
 ! D161  D(31,32,34,62)       -178.1627         estimate D2E/DX2                !
 ! D162  D(31,32,34,63)         65.8929         estimate D2E/DX2                !
 ! D163  D(33,32,34,35)         82.2363         estimate D2E/DX2                !
 ! D164  D(33,32,34,62)        -43.8717         estimate D2E/DX2                !
 ! D165  D(33,32,34,63)       -159.8161         estimate D2E/DX2                !
 ! D166  D(32,34,35,29)         51.728          estimate D2E/DX2                !
 ! D167  D(32,34,35,64)        -66.9053         estimate D2E/DX2                !
 ! D168  D(32,34,35,65)        177.6074         estimate D2E/DX2                !
 ! D169  D(62,34,35,29)        176.6491         estimate D2E/DX2                !
 ! D170  D(62,34,35,64)         58.0158         estimate D2E/DX2                !
 ! D171  D(62,34,35,65)        -57.4715         estimate D2E/DX2                !
 ! D172  D(63,34,35,29)        -66.1329         estimate D2E/DX2                !
 ! D173  D(63,34,35,64)        175.2338         estimate D2E/DX2                !
 ! D174  D(63,34,35,65)         59.7464         estimate D2E/DX2                !
 --------------------------------------------------------------------------------
 Trust Radius=3.00D-01 FncErr=1.00D-07 GrdErr=1.00D-06
 Number of steps in this run= 400 maximum allowed number of steps= 408.
 GradGradGradGradGradGradGradGradGradGradGradGradGradGradGradGradGradGrad

 Leave Link  103 at Wed Apr  8 22:13:46 2020, MaxMem= 2684354560 cpu:       0.1
 (Enter /opt/g09gh/gaussian/g09/l202.exe)
 Stoichiometry    C29H31N7O
 Framework group  C1[X(C29H31N7O)]
 Deg. of freedom   198
 Full point group                 C1      NOp   1
 Largest Abelian subgroup         C1      NOp   1
 Largest concise Abelian subgroup C1      NOp   1
                         Standard orientation:                         
 ---------------------------------------------------------------------
 Center     Atomic      Atomic             Coordinates (Angstroms)
 Number     Number       Type             X           Y           Z
 ---------------------------------------------------------------------
      1          6           0       -0.111850    4.649748   -0.829455
      2          6           0        1.233335    4.478554   -0.474777
      3          6           0        1.780849    3.182523   -0.391558
      4          6           0        0.895524    2.122037   -0.706190
      5          7           0       -0.389643    2.263791   -1.053082
      6          6           0       -0.879097    3.511886   -1.103621
      7          6           0        3.217987    2.905438   -0.022623
      8          6           0        4.202898    3.880425    0.202915
      9          6           0        5.483504    3.394681    0.488323
     10          7           0        5.799327    2.105249    0.566189
     11          6           0        4.786206    1.237977    0.358207
     12          7           0        3.531608    1.598004    0.072176
     13          7           0        5.125059   -0.103298    0.461571
     14          6           0        4.397080   -1.330380    0.251747
     15          6           0        5.116598   -2.552816    0.085208
     16          6           0        4.361836   -3.717513   -0.136261
     17          6           0        2.963316   -3.744480   -0.187537
     18          6           0        2.273799   -2.542713    0.000852
     19          6           0        2.997780   -1.358519    0.210885
     20          7           0        0.856229   -2.380429   -0.028146
     21          6           0       -0.160553   -3.292088    0.122522
     22          6           0       -1.560629   -2.830943   -0.231513
     23          6           0       -1.832921   -1.939912   -1.282680
     24          6           0       -3.138886   -1.509411   -1.524209
     25          6           0       -4.218485   -1.971367   -0.748802
     26          6           0       -3.935479   -2.892731    0.278090
     27          6           0       -2.631724   -3.325828    0.529862
     28          6           0       -5.637204   -1.446001   -0.971849
     29          7           0       -6.044124   -0.174838   -0.346089
     30          6           0       -5.548800    1.104459   -0.902507
     31          6           0       -4.314635    1.726222   -0.198028
     32          7           0       -4.443361    1.824947    1.275445
     33          6           0       -5.170944    2.991532    1.791974
     34          6           0       -4.845815    0.505920    1.818136
     35          6           0       -6.093814   -0.105443    1.131521
     36          8           0        0.028756   -4.421780    0.542539
     37          6           0        6.632707   -2.643492    0.116334
     38          1           0       -0.555230    5.639093   -0.893152
     39          1           0        1.823925    5.365418   -0.258377
     40          1           0        1.255258    1.099425   -0.699644
     41          1           0       -1.926286    3.600806   -1.386911
     42          1           0        4.028023    4.947285    0.138592
     43          1           0        6.307176    4.087371    0.659561
     44          1           0        6.114359   -0.186310    0.642199
     45          1           0        4.877836   -4.667003   -0.274563
     46          1           0        2.418754   -4.667066   -0.348529
     47          1           0        2.467870   -0.430966    0.361392
     48          1           0        0.554969   -1.446932   -0.271673
     49          1           0       -1.015598   -1.564411   -1.893300
     50          1           0       -3.312133   -0.792785   -2.327092
     51          1           0       -4.739750   -3.268685    0.910112
     52          1           0       -2.419754   -4.026981    1.333189
     53          1           0       -5.799175   -1.337323   -2.053983
     54          1           0       -6.347689   -2.208134   -0.619662
     55          1           0       -5.379275    1.010556   -2.048341
     56          1           0       -6.716742    2.169239   -0.696386
     57          1           0       -4.080513    2.677491   -0.593802
     58          1           0       -3.189140    0.884428   -0.454226
     59          1           0       -6.225614    2.959299    1.496241
     60          1           0       -4.724459    3.915792    1.407672
     61          1           0       -5.111154    3.019777    2.886121
     62          1           0       -4.974666    0.580338    2.904085
     63          1           0       -3.691136   -0.443832    1.564093
     64          1           0       -7.281915    0.815521    1.507022
     65          1           0       -6.337705   -1.223181    1.604585
     66          1           0        7.029121   -2.370603    1.104411
     67          1           0        7.092710   -1.971233   -0.621654
     68          1           0        7.006732   -3.652738   -0.104549
 ---------------------------------------------------------------------
 Rotational constants (GHZ):      0.1313380      0.0617706      0.0444004
 Leave Link  202 at Wed Apr  8 22:13:46 2020, MaxMem= 2684354560 cpu:       0.0
 (Enter /opt/g09gh/gaussian/g09/l301.exe)
 Standard basis: 6-31G(d) (6D, 7F)
 Ernie: Thresh=  0.10000D-02 Tol=  0.10000D-05 Strict=F.
 There are   617 symmetry adapted basis functions of A   symmetry.
 Integral buffers will be    131072 words long.
 Raffenetti 2 integral format.
 Two-electron integral symmetry is turned on.
   617 basis functions,  1160 primitive gaussians,   617 cartesian basis functions
   131 alpha electrons      131 beta electrons
       nuclear repulsion energy      3774.6895733867 Hartrees.
 IExCor= 4639 DFT=T Ex+Corr=wB97XD ExCW=0 ScaHFX=  1.000000
 ScaDFX=  1.000000  1.000000  1.000000  1.000000 ScalE2=  1.000000  1.000000
 IRadAn=      0 IRanWt=     -1 IRanGd=            0 ICorTp=0
  HFx wShort=  0.000000 wLong=  0.200000 cFull=  0.222036 cShort=  0.000000 cLong=  0.777964
  DFx wShort=  0.000000 wLong=  0.200000 cFull=  0.000000 cShort=  0.000000 cLong=  1.000000
 NAtoms=   68 NActive=   68 NUniq=   68 SFac= 7.50D-01 NAtFMM=   80 NAOKFM=F Big=T
 R6Disp: Dispersion energy =        -0.0583285190 Hartrees.
 Nuclear repulsion after empirical dispersion term =     3774.6312448677 Hartrees.
 Leave Link  301 at Wed Apr  8 22:13:47 2020, MaxMem= 2684354560 cpu:       0.3
 (Enter /opt/g09gh/gaussian/g09/l302.exe)
 NPDir=0 NMtPBC=     1 NCelOv=     1 NCel=       1 NClECP=     1 NCelD=      1
         NCelK=      1 NCelE2=     1 NClLst=     1 CellRange=     0.0.
 One-electron integrals computed using PRISM.
 NBasis=   617 RedAO= T  NBF=   617
 NBsUse=   617 1.00D-06 NBFU=   617
 Precomputing XC quadrature grid using
 IXCGrd= 2 IRadAn=           0 IRanWt=          -1 IRanGd=           0 AccXCQ= 1.00D-10.
 NRdTot=    4375 NPtTot=      559378 NUsed=      590900 NTot=      590932
 NSgBfM=   605   605   605   605   605 NAtAll=    68    68.
 Leave Link  302 at Wed Apr  8 22:13:48 2020, MaxMem= 2684354560 cpu:       7.4
 (Enter /opt/g09gh/gaussian/g09/l303.exe)
 DipDrv:  MaxL=1.
 Leave Link  303 at Wed Apr  8 22:13:48 2020, MaxMem= 2684354560 cpu:       0.5
 (Enter /opt/g09gh/gaussian/g09/l401.exe)
 Harris functional with IExCor= 4639 diagonalized for initial guess.
 ExpMin= 1.61D-01 ExpMax= 5.48D+03 ExpMxC= 8.25D+02 IAcc=1 IRadAn=         1 AccDes= 0.00D+00
 HarFok:  IExCor= 4639 AccDes= 0.00D+00 IRadAn=         1 IDoV= 1
 ScaDFX=  1.000000  1.000000  1.000000  1.000000
 FoFCou: FMM=F IPFlag=           0 FMFlag=      100000 FMFlg1=           1
         NFxFlg=           0 DoJE=T BraDBF=F KetDBF=T FulRan=T
         Omega=  0.000000  0.000000  1.000000  0.000000  0.000000 ICntrl=     500 IOpCl=  0
         NMat0=    1 NMatS0=    1 NMatT0=    0 NMatD0=    1 NMtDS0=    0 NMtDT0=    0
         I1Cent=           4 NGrid=           0.
 Petite list used in FoFCou.
 Harris En= -1512.40487536131    
 Initial guess orbital symmetries:
       Occupied  (A) (A) (A) (A) (A) (A) (A) (A) (A) (A) (A) (A)
                 (A) (A) (A) (A) (A) (A) (A) (A) (A) (A) (A) (A)
                 (A) (A) (A) (A) (A) (A) (A) (A) (A) (A) (A) (A)
                 (A) (A) (A) (A) (A) (A) (A) (A) (A) (A) (A) (A)
                 (A) (A) (A) (A) (A) (A) (A) (A) (A) (A) (A) (A)
                 (A) (A) (A) (A) (A) (A) (A) (A) (A) (A) (A) (A)
                 (A) (A) (A) (A) (A) (A) (A) (A) (A) (A) (A) (A)
                 (A) (A) (A) (A) (A) (A) (A) (A) (A) (A) (A) (A)
                 (A) (A) (A) (A) (A) (A) (A) (A) (A) (A) (A) (A)
                 (A) (A) (A) (A) (A) (A) (A) (A) (A) (A) (A) (A)
                 (A) (A) (A) (A) (A) (A) (A) (A) (A) (A) (A)
       Virtual   (A) (A) (A) (A) (A) (A) (A) (A) (A) (A) (A) (A)
                 (A) (A) (A) (A) (A) (A) (A) (A) (A) (A) (A) (A)
                 (A) (A) (A) (A) (A) (A) (A) (A) (A) (A) (A) (A)
                 (A) (A) (A) (A) (A) (A) (A) (A) (A) (A) (A) (A)
                 (A) (A) (A) (A) (A) (A) (A) (A) (A) (A) (A) (A)
                 (A) (A) (A) (A) (A) (A) (A) (A) (A) (A) (A) (A)
                 (A) (A) (A) (A) (A) (A) (A) (A) (A) (A) (A) (A)
                 (A) (A) (A) (A) (A) (A) (A) (A) (A) (A) (A) (A)
                 (A) (A) (A) (A) (A) (A) (A) (A) (A) (A) (A) (A)
                 (A) (A) (A) (A) (A) (A) (A) (A) (A) (A) (A) (A)
                 (A) (A) (A) (A) (A) (A) (A) (A) (A) (A) (A) (A)
                 (A) (A) (A) (A) (A) (A) (A) (A) (A) (A) (A) (A)
                 (A) (A) (A) (A) (A) (A) (A) (A) (A) (A) (A) (A)
                 (A) (A) (A) (A) (A) (A) (A) (A) (A) (A) (A) (A)
                 (A) (A) (A) (A) (A) (A) (A) (A) (A) (A) (A) (A)
                 (A) (A) (A) (A) (A) (A) (A) (A) (A) (A) (A) (A)
                 (A) (A) (A) (A) (A) (A) (A) (A) (A) (A) (A) (A)
                 (A) (A) (A) (A) (A) (A) (A) (A) (A) (A) (A) (A)
                 (A) (A) (A) (A) (A) (A) (A) (A) (A) (A) (A) (A)
                 (A) (A) (A) (A) (A) (A) (A) (A) (A) (A) (A) (A)
                 (A) (A) (A) (A) (A) (A) (A) (A) (A) (A) (A) (A)
                 (A) (A) (A) (A) (A) (A) (A) (A) (A) (A) (A) (A)
                 (A) (A) (A) (A) (A) (A) (A) (A) (A) (A) (A) (A)
                 (A) (A) (A) (A) (A) (A) (A) (A) (A) (A) (A) (A)
                 (A) (A) (A) (A) (A) (A) (A) (A) (A) (A) (A) (A)
                 (A) (A) (A) (A) (A) (A) (A) (A) (A) (A) (A) (A)
                 (A) (A) (A) (A) (A) (A) (A) (A) (A) (A) (A) (A)
                 (A) (A) (A) (A) (A) (A) (A) (A) (A) (A) (A) (A)
                 (A) (A) (A) (A) (A) (A) (A) (A) (A) (A) (A) (A)
                 (A) (A) (A) (A) (A) (A) (A) (A) (A) (A) (A) (A)
                 (A) (A) (A) (A) (A) (A) (A) (A) (A) (A) (A) (A)
                 (A) (A) (A) (A) (A) (A) (A) (A) (A) (A) (A) (A)
                 (A) (A) (A) (A) (A) (A) (A) (A) (A) (A) (A) (A)
                 (A) (A) (A) (A) (A) (A) (A) (A) (A) (A) (A) (A)
                 (A) (A) (A) (A) (A) (A) (A) (A) (A) (A) (A) (A)
                 (A) (A) (A) (A) (A) (A) (A) (A) (A) (A) (A) (A)
                 (A) (A) (A) (A) (A) (A) (A) (A) (A) (A) (A) (A)
                 (A) (A) (A) (A) (A) (A) (A) (A) (A) (A) (A) (A)
                 (A) (A) (A) (A) (A) (A) (A) (A) (A) (A) (A) (A)
                 (A) (A) (A) (A) (A) (A) (A) (A) (A) (A) (A) (A)
                 (A) (A) (A) (A) (A) (A)
 The electronic state of the initial guess is 1-A.
 Leave Link  401 at Wed Apr  8 22:13:50 2020, MaxMem= 2684354560 cpu:      14.8
 (Enter /opt/g09gh/gaussian/g09/l502.exe)
 Closed shell SCF:
 Requested convergence on RMS density matrix=1.00D-08 within 128 cycles.
 Requested convergence on MAX density matrix=1.00D-06.
 Requested convergence on             energy=1.00D-06.
 No special actions if energy rises.
 Using DIIS extrapolation, IDIIS=  1040.
 Integral symmetry usage will be decided dynamically.
       590275 words used for storage of precomputed grid.
 IEnd=     1758855 IEndB=     1758855 NGot=  2684354560 MDV=  2682993652
 LenX=  2682993652 LenY=  2682612346
 Fock matrices will be formed incrementally for  20 cycles.
 Integral accuracy reduced to 1.0D-05 until final iterations.

 Cycle   1  Pass 0  IDiag  1:
 FoFJK:  IHMeth= 1 ICntrl=     0 DoSepK=T KAlg= 1 I1Cent= 0 FoldK=F
 FoFCou: FMM=T IPFlag=           0 FMFlag=      100000 FMFlg1=           1
         NFxFlg=           0 DoJE=T BraDBF=F KetDBF=F FulRan=T
         Omega=  0.000000  0.000000  1.000000  0.000000  0.000000 ICntrl=     500 IOpCl=  0
         NMat0=    1 NMatS0=    1 NMatT0=    0 NMatD0=    1 NMtDS0=    0 NMtDT0=    0
         I1Cent=           0 NGrid=           0.
 Symmetry not used in FoFCou.
 FMM levels:  10  Number of levels for PrismC:   9
 E= -1581.16523578006    
 DIIS: error= 5.35D-02 at cycle   1 NSaved=   1.
 NSaved= 1 IEnMin= 1 EnMin= -1581.16523578006     IErMin= 1 ErrMin= 5.35D-02
 ErrMax= 5.35D-02 EMaxC= 1.00D-01 BMatC= 1.46D+00 BMatP= 1.46D+00
 IDIUse=3 WtCom= 4.65D-01 WtEn= 5.35D-01
 Coeff-Com:  0.100D+01
 Coeff-En:   0.100D+01
 Coeff:      0.100D+01
 Gap=     0.271 Goal=   None    Shift=    0.000
 GapD=    0.271 DampG=1.000 DampE=0.500 DampFc=0.5000 IDamp=-1.
 Damping current iteration by 5.00D-01
 RMSDP=1.87D-03 MaxDP=8.92D-02              OVMax= 1.65D-01

 Cycle   2  Pass 0  IDiag  1:
 RMSU=  6.61D-04    CP:  1.00D+00
 FoFJK:  IHMeth= 1 ICntrl=     0 DoSepK=T KAlg= 1 I1Cent= 0 FoldK=F
 E= -1581.34055710697     Delta-E=       -0.175321326910 Rises=F Damp=T
 DIIS: error= 2.68D-02 at cycle   2 NSaved=   2.
 NSaved= 2 IEnMin= 2 EnMin= -1581.34055710697     IErMin= 2 ErrMin= 2.68D-02
 ErrMax= 2.68D-02 EMaxC= 1.00D-01 BMatC= 3.22D-01 BMatP= 1.46D+00
 IDIUse=3 WtCom= 7.32D-01 WtEn= 2.68D-01
 Coeff-Com: -0.654D+00 0.165D+01
 Coeff-En:   0.000D+00 0.100D+01
 Coeff:     -0.479D+00 0.148D+01
 Gap=     0.282 Goal=   None    Shift=    0.000
 RMSDP=8.81D-04 MaxDP=3.85D-02 DE=-1.75D-01 OVMax= 1.21D-01

 Cycle   3  Pass 0  IDiag  1:
 RMSU=  5.73D-04    CP:  1.00D+00  1.37D+00
 FoFJK:  IHMeth= 1 ICntrl=     0 DoSepK=T KAlg= 1 I1Cent= 0 FoldK=F
 E= -1581.46629467350     Delta-E=       -0.125737566529 Rises=F Damp=F
 DIIS: error= 6.52D-03 at cycle   3 NSaved=   3.
 NSaved= 3 IEnMin= 3 EnMin= -1581.46629467350     IErMin= 3 ErrMin= 6.52D-03
 ErrMax= 6.52D-03 EMaxC= 1.00D-01 BMatC= 6.60D-02 BMatP= 3.22D-01
 IDIUse=3 WtCom= 9.35D-01 WtEn= 6.52D-02
 Coeff-Com: -0.371D+00 0.766D+00 0.605D+00
 Coeff-En:   0.000D+00 0.000D+00 0.100D+01
 Coeff:     -0.347D+00 0.716D+00 0.631D+00
 Gap=     0.263 Goal=   None    Shift=    0.000
 RMSDP=4.78D-04 MaxDP=3.21D-02 DE=-1.26D-01 OVMax= 6.24D-02

 Cycle   4  Pass 0  IDiag  1:
 RMSU=  1.41D-04    CP:  1.00D+00  1.67D+00  5.90D-01
 FoFJK:  IHMeth= 1 ICntrl=     0 DoSepK=T KAlg= 1 I1Cent= 0 FoldK=F
 E= -1581.52514796486     Delta-E=       -0.058853291352 Rises=F Damp=F
 DIIS: error= 1.62D-03 at cycle   4 NSaved=   4.
 NSaved= 4 IEnMin= 4 EnMin= -1581.52514796486     IErMin= 4 ErrMin= 1.62D-03
 ErrMax= 1.62D-03 EMaxC= 1.00D-01 BMatC= 3.46D-03 BMatP= 6.60D-02
 IDIUse=3 WtCom= 9.84D-01 WtEn= 1.62D-02
 Coeff-Com: -0.168D+00 0.342D+00 0.337D+00 0.489D+00
 Coeff-En:   0.000D+00 0.000D+00 0.000D+00 0.100D+01
 Coeff:     -0.165D+00 0.336D+00 0.332D+00 0.497D+00
 Gap=     0.256 Goal=   None    Shift=    0.000
 RMSDP=9.93D-05 MaxDP=8.68D-03 DE=-5.89D-02 OVMax= 1.00D-02

 Cycle   5  Pass 0  IDiag  1:
 RMSU=  4.57D-05    CP:  1.00D+00  1.65D+00  6.52D-01  7.26D-01
 FoFJK:  IHMeth= 1 ICntrl=     0 DoSepK=T KAlg= 1 I1Cent= 0 FoldK=F
 E= -1581.52814032728     Delta-E=       -0.002992362422 Rises=F Damp=F
 DIIS: error= 3.68D-04 at cycle   5 NSaved=   5.
 NSaved= 5 IEnMin= 5 EnMin= -1581.52814032728     IErMin= 5 ErrMin= 3.68D-04
 ErrMax= 3.68D-04 EMaxC= 1.00D-01 BMatC= 8.42D-05 BMatP= 3.46D-03
 IDIUse=3 WtCom= 9.96D-01 WtEn= 3.68D-03
 Coeff-Com: -0.151D-01 0.298D-01 0.497D-01 0.151D+00 0.785D+00
 Coeff-En:   0.000D+00 0.000D+00 0.000D+00 0.000D+00 0.100D+01
 Coeff:     -0.151D-01 0.297D-01 0.495D-01 0.150D+00 0.785D+00
 Gap=     0.255 Goal=   None    Shift=    0.000
 RMSDP=2.40D-05 MaxDP=2.43D-03 DE=-2.99D-03 OVMax= 2.76D-03

 Cycle   6  Pass 0  IDiag  1:
 RMSU=  1.30D-05    CP:  1.00D+00  1.66D+00  6.60D-01  7.91D-01  9.99D-01
 FoFJK:  IHMeth= 1 ICntrl=     0 DoSepK=T KAlg= 1 I1Cent= 0 FoldK=F
 E= -1581.52822491942     Delta-E=       -0.000084592147 Rises=F Damp=F
 DIIS: error= 2.08D-04 at cycle   6 NSaved=   6.
 NSaved= 6 IEnMin= 6 EnMin= -1581.52822491942     IErMin= 6 ErrMin= 2.08D-04
 ErrMax= 2.08D-04 EMaxC= 1.00D-01 BMatC= 2.67D-05 BMatP= 8.42D-05
 IDIUse=3 WtCom= 9.98D-01 WtEn= 2.08D-03
 Coeff-Com:  0.240D-01-0.495D-01-0.363D-01-0.187D-01 0.400D+00 0.680D+00
 Coeff-En:   0.000D+00 0.000D+00 0.000D+00 0.000D+00 0.000D+00 0.100D+01
 Coeff:      0.239D-01-0.494D-01-0.363D-01-0.187D-01 0.400D+00 0.681D+00
 Gap=     0.256 Goal=   None    Shift=    0.000
 RMSDP=1.30D-05 MaxDP=8.87D-04 DE=-8.46D-05 OVMax= 1.63D-03

 Cycle   7  Pass 0  IDiag  1:
 RMSU=  5.70D-06    CP:  1.00D+00  1.66D+00  6.63D-01  8.18D-01  1.12D+00
                    CP:  8.90D-01
 FoFJK:  IHMeth= 1 ICntrl=     0 DoSepK=T KAlg= 1 I1Cent= 0 FoldK=F
 E= -1581.52825472768     Delta-E=       -0.000029808253 Rises=F Damp=F
 DIIS: error= 5.40D-05 at cycle   7 NSaved=   7.
 NSaved= 7 IEnMin= 7 EnMin= -1581.52825472768     IErMin= 7 ErrMin= 5.40D-05
 ErrMax= 5.40D-05 EMaxC= 1.00D-01 BMatC= 1.61D-06 BMatP= 2.67D-05
 IDIUse=1 WtCom= 1.00D+00 WtEn= 0.00D+00
 Coeff-Com:  0.970D-02-0.198D-01-0.164D-01-0.207D-01 0.661D-01 0.233D+00
 Coeff-Com:  0.749D+00
 Coeff:      0.970D-02-0.198D-01-0.164D-01-0.207D-01 0.661D-01 0.233D+00
 Coeff:      0.749D+00
 Gap=     0.256 Goal=   None    Shift=    0.000
 RMSDP=3.98D-06 MaxDP=2.63D-04 DE=-2.98D-05 OVMax= 6.41D-04

 Initial convergence to 1.0D-05 achieved.  Increase integral accuracy.
 Cycle   8  Pass 1  IDiag  1:
 FoFJK:  IHMeth= 1 ICntrl=     0 DoSepK=T KAlg= 1 I1Cent= 0 FoldK=F
 E= -1581.52614526537     Delta-E=        0.002109462307 Rises=F Damp=F
 DIIS: error= 9.68D-05 at cycle   1 NSaved=   1.
 NSaved= 1 IEnMin= 1 EnMin= -1581.52614526537     IErMin= 1 ErrMin= 9.68D-05
 ErrMax= 9.68D-05 EMaxC= 1.00D-01 BMatC= 1.39D-05 BMatP= 1.39D-05
 IDIUse=1 WtCom= 1.00D+00 WtEn= 0.00D+00
 Coeff-Com:  0.100D+01
 Coeff:      0.100D+01
 Gap=     0.256 Goal=   None    Shift=    0.000
 RMSDP=3.98D-06 MaxDP=2.63D-04 DE= 2.11D-03 OVMax= 3.91D-04

 Cycle   9  Pass 1  IDiag  1:
 RMSU=  1.77D-05    CP:  1.00D+00
 FoFJK:  IHMeth= 1 ICntrl=     0 DoSepK=T KAlg= 1 I1Cent= 0 FoldK=F
 E= -1581.52615669000     Delta-E=       -0.000011424625 Rises=F Damp=F
 DIIS: error= 2.17D-05 at cycle   2 NSaved=   2.
 NSaved= 2 IEnMin= 2 EnMin= -1581.52615669000     IErMin= 2 ErrMin= 2.17D-05
 ErrMax= 2.17D-05 EMaxC= 1.00D-01 BMatC= 7.51D-07 BMatP= 1.39D-05
 IDIUse=1 WtCom= 1.00D+00 WtEn= 0.00D+00
 Coeff-Com:  0.229D-01 0.977D+00
 Coeff:      0.229D-01 0.977D+00
 Gap=     0.256 Goal=   None    Shift=    0.000
 RMSDP=3.10D-06 MaxDP=1.98D-04 DE=-1.14D-05 OVMax= 2.94D-04

 Cycle  10  Pass 1  IDiag  1:
 RMSU=  2.04D-06    CP:  1.00D+00  1.05D+00
 FoFJK:  IHMeth= 1 ICntrl=     0 DoSepK=T KAlg= 1 I1Cent= 0 FoldK=F
 E= -1581.52615680908     Delta-E=       -0.000000119088 Rises=F Damp=F
 DIIS: error= 3.13D-05 at cycle   3 NSaved=   3.
 NSaved= 3 IEnMin= 3 EnMin= -1581.52615680908     IErMin= 2 ErrMin= 2.17D-05
 ErrMax= 3.13D-05 EMaxC= 1.00D-01 BMatC= 8.54D-07 BMatP= 7.51D-07
 IDIUse=1 WtCom= 1.00D+00 WtEn= 0.00D+00
 Coeff-Com: -0.422D-01 0.534D+00 0.508D+00
 Coeff:     -0.422D-01 0.534D+00 0.508D+00
 Gap=     0.256 Goal=   None    Shift=    0.000
 RMSDP=1.53D-06 MaxDP=1.16D-04 DE=-1.19D-07 OVMax= 1.41D-04

 Cycle  11  Pass 1  IDiag  1:
 RMSU=  6.16D-07    CP:  1.00D+00  1.06D+00  5.74D-01
 FoFJK:  IHMeth= 1 ICntrl=     0 DoSepK=T KAlg= 1 I1Cent= 0 FoldK=F
 E= -1581.52615755948     Delta-E=       -0.000000750400 Rises=F Damp=F
 DIIS: error= 6.22D-06 at cycle   4 NSaved=   4.
 NSaved= 4 IEnMin= 4 EnMin= -1581.52615755948     IErMin= 4 ErrMin= 6.22D-06
 ErrMax= 6.22D-06 EMaxC= 1.00D-01 BMatC= 2.10D-08 BMatP= 7.51D-07
 IDIUse=1 WtCom= 1.00D+00 WtEn= 0.00D+00
 Coeff-Com: -0.167D-01 0.122D+00 0.173D+00 0.722D+00
 Coeff:     -0.167D-01 0.122D+00 0.173D+00 0.722D+00
 Gap=     0.256 Goal=   None    Shift=    0.000
 RMSDP=3.37D-07 MaxDP=3.63D-05 DE=-7.50D-07 OVMax= 3.78D-05

 Cycle  12  Pass 1  IDiag  1:
 RMSU=  2.15D-07    CP:  1.00D+00  1.06D+00  6.23D-01  1.03D+00
 FoFJK:  IHMeth= 1 ICntrl=     0 DoSepK=T KAlg= 1 I1Cent= 0 FoldK=F
 E= -1581.52615757964     Delta-E=       -0.000000020151 Rises=F Damp=F
 DIIS: error= 2.87D-06 at cycle   5 NSaved=   5.
 NSaved= 5 IEnMin= 5 EnMin= -1581.52615757964     IErMin= 5 ErrMin= 2.87D-06
 ErrMax= 2.87D-06 EMaxC= 1.00D-01 BMatC= 5.40D-09 BMatP= 2.10D-08
 IDIUse=1 WtCom= 1.00D+00 WtEn= 0.00D+00
 Coeff-Com:  0.337D-03-0.411D-01-0.142D-01 0.338D+00 0.717D+00
 Coeff:      0.337D-03-0.411D-01-0.142D-01 0.338D+00 0.717D+00
 Gap=     0.256 Goal=   None    Shift=    0.000
 RMSDP=1.79D-07 MaxDP=1.27D-05 DE=-2.02D-08 OVMax= 2.19D-05

 Cycle  13  Pass 1  IDiag  1:
 RMSU=  8.74D-08    CP:  1.00D+00  1.06D+00  6.38D-01  1.16D+00  8.87D-01
 FoFJK:  IHMeth= 1 ICntrl=     0 DoSepK=T KAlg= 1 I1Cent= 0 FoldK=F
 E= -1581.52615758620     Delta-E=       -0.000000006568 Rises=F Damp=F
 DIIS: error= 5.93D-07 at cycle   6 NSaved=   6.
 NSaved= 6 IEnMin= 6 EnMin= -1581.52615758620     IErMin= 6 ErrMin= 5.93D-07
 ErrMax= 5.93D-07 EMaxC= 1.00D-01 BMatC= 5.06D-10 BMatP= 5.40D-09
 IDIUse=1 WtCom= 1.00D+00 WtEn= 0.00D+00
 Coeff-Com:  0.204D-02-0.286D-01-0.257D-01 0.409D-01 0.265D+00 0.746D+00
 Coeff:      0.204D-02-0.286D-01-0.257D-01 0.409D-01 0.265D+00 0.746D+00
 Gap=     0.256 Goal=   None    Shift=    0.000
 RMSDP=6.95D-08 MaxDP=3.83D-06 DE=-6.57D-09 OVMax= 1.39D-05

 Cycle  14  Pass 1  IDiag  1:
 RMSU=  3.34D-08    CP:  1.00D+00  1.06D+00  6.40D-01  1.21D+00  9.94D-01
                    CP:  1.04D+00
 FoFJK:  IHMeth= 1 ICntrl=     0 DoSepK=T KAlg= 1 I1Cent= 0 FoldK=F
 E= -1581.52615758714     Delta-E=       -0.000000000940 Rises=F Damp=F
 DIIS: error= 3.43D-07 at cycle   7 NSaved=   7.
 NSaved= 7 IEnMin= 7 EnMin= -1581.52615758714     IErMin= 7 ErrMin= 3.43D-07
 ErrMax= 3.43D-07 EMaxC= 1.00D-01 BMatC= 1.01D-10 BMatP= 5.06D-10
 IDIUse=1 WtCom= 1.00D+00 WtEn= 0.00D+00
 Coeff-Com:  0.753D-03-0.450D-02-0.872D-02-0.464D-01-0.199D-01 0.299D+00
 Coeff-Com:  0.780D+00
 Coeff:      0.753D-03-0.450D-02-0.872D-02-0.464D-01-0.199D-01 0.299D+00
 Coeff:      0.780D+00
 Gap=     0.256 Goal=   None    Shift=    0.000
 RMSDP=3.65D-08 MaxDP=1.59D-06 DE=-9.40D-10 OVMax= 7.05D-06

 Cycle  15  Pass 1  IDiag  1:
 RMSU=  1.44D-08    CP:  1.00D+00  1.06D+00  6.43D-01  1.23D+00  1.03D+00
                    CP:  1.21D+00  1.04D+00
 FoFJK:  IHMeth= 1 ICntrl=     0 DoSepK=T KAlg= 1 I1Cent= 0 FoldK=F
 E= -1581.52615758738     Delta-E=       -0.000000000232 Rises=F Damp=F
 DIIS: error= 1.38D-07 at cycle   8 NSaved=   8.
 NSaved= 8 IEnMin= 8 EnMin= -1581.52615758738     IErMin= 8 ErrMin= 1.38D-07
 ErrMax= 1.38D-07 EMaxC= 1.00D-01 BMatC= 1.58D-11 BMatP= 1.01D-10
 IDIUse=1 WtCom= 1.00D+00 WtEn= 0.00D+00
 Coeff-Com: -0.944D-04 0.349D-02 0.151D-02-0.224D-01-0.508D-01-0.312D-01
 Coeff-Com:  0.275D+00 0.825D+00
 Coeff:     -0.944D-04 0.349D-02 0.151D-02-0.224D-01-0.508D-01-0.312D-01
 Coeff:      0.275D+00 0.825D+00
 Gap=     0.256 Goal=   None    Shift=    0.000
 RMSDP=1.65D-08 MaxDP=8.94D-07 DE=-2.32D-10 OVMax= 4.51D-06

 Cycle  16  Pass 1  IDiag  1:
 RMSU=  6.30D-09    CP:  1.00D+00  1.06D+00  6.43D-01  1.23D+00  1.05D+00
                    CP:  1.27D+00  1.24D+00  1.09D+00
 FoFJK:  IHMeth= 1 ICntrl=     0 DoSepK=T KAlg= 1 I1Cent= 0 FoldK=F
 E= -1581.52615758739     Delta-E=       -0.000000000014 Rises=F Damp=F
 DIIS: error= 8.09D-08 at cycle   9 NSaved=   9.
 NSaved= 9 IEnMin= 9 EnMin= -1581.52615758739     IErMin= 9 ErrMin= 8.09D-08
 ErrMax= 8.09D-08 EMaxC= 1.00D-01 BMatC= 3.06D-12 BMatP= 1.58D-11
 IDIUse=1 WtCom= 1.00D+00 WtEn= 0.00D+00
 Coeff-Com: -0.178D-03 0.214D-02 0.228D-02 0.880D-03-0.154D-01-0.743D-01
 Coeff-Com: -0.532D-01 0.298D+00 0.839D+00
 Coeff:     -0.178D-03 0.214D-02 0.228D-02 0.880D-03-0.154D-01-0.743D-01
 Coeff:     -0.532D-01 0.298D+00 0.839D+00
 Gap=     0.256 Goal=   None    Shift=    0.000
 RMSDP=7.80D-09 MaxDP=4.43D-07 DE=-1.36D-11 OVMax= 2.01D-06

 SCF Done:  E(RwB97XD) =  -1581.52615759     A.U. after   16 cycles
             Convg  =    0.7800D-08             -V/T =  2.0110
 KE= 1.564329843850D+03 PE=-1.121788983610D+04 EE= 4.297402589791D+03
 Leave Link  502 at Wed Apr  8 22:16:27 2020, MaxMem= 2684354560 cpu:     938.5
 (Enter /opt/g09gh/gaussian/g09/l601.exe)
 Copying SCF densities to generalized density rwf, IOpCl= 0 IROHF=0.

 **********************************************************************

            Population analysis using the SCF density.

 **********************************************************************

 Orbital symmetries:
       Occupied  (A) (A) (A) (A) (A) (A) (A) (A) (A) (A) (A) (A)
                 (A) (A) (A) (A) (A) (A) (A) (A) (A) (A) (A) (A)
                 (A) (A) (A) (A) (A) (A) (A) (A) (A) (A) (A) (A)
                 (A) (A) (A) (A) (A) (A) (A) (A) (A) (A) (A) (A)
                 (A) (A) (A) (A) (A) (A) (A) (A) (A) (A) (A) (A)
                 (A) (A) (A) (A) (A) (A) (A) (A) (A) (A) (A) (A)
                 (A) (A) (A) (A) (A) (A) (A) (A) (A) (A) (A) (A)
                 (A) (A) (A) (A) (A) (A) (A) (A) (A) (A) (A) (A)
                 (A) (A) (A) (A) (A) (A) (A) (A) (A) (A) (A) (A)
                 (A) (A) (A) (A) (A) (A) (A) (A) (A) (A) (A) (A)
                 (A) (A) (A) (A) (A) (A) (A) (A) (A) (A) (A)
       Virtual   (A) (A) (A) (A) (A) (A) (A) (A) (A) (A) (A) (A)
                 (A) (A) (A) (A) (A) (A) (A) (A) (A) (A) (A) (A)
                 (A) (A) (A) (A) (A) (A) (A) (A) (A) (A) (A) (A)
                 (A) (A) (A) (A) (A) (A) (A) (A) (A) (A) (A) (A)
                 (A) (A) (A) (A) (A) (A) (A) (A) (A) (A) (A) (A)
                 (A) (A) (A) (A) (A) (A) (A) (A) (A) (A) (A) (A)
                 (A) (A) (A) (A) (A) (A) (A) (A) (A) (A) (A) (A)
                 (A) (A) (A) (A) (A) (A) (A) (A) (A) (A) (A) (A)
                 (A) (A) (A) (A) (A) (A) (A) (A) (A) (A) (A) (A)
                 (A) (A) (A) (A) (A) (A) (A) (A) (A) (A) (A) (A)
                 (A) (A) (A) (A) (A) (A) (A) (A) (A) (A) (A) (A)
                 (A) (A) (A) (A) (A) (A) (A) (A) (A) (A) (A) (A)
                 (A) (A) (A) (A) (A) (A) (A) (A) (A) (A) (A) (A)
                 (A) (A) (A) (A) (A) (A) (A) (A) (A) (A) (A) (A)
                 (A) (A) (A) (A) (A) (A) (A) (A) (A) (A) (A) (A)
                 (A) (A) (A) (A) (A) (A) (A) (A) (A) (A) (A) (A)
                 (A) (A) (A) (A) (A) (A) (A) (A) (A) (A) (A) (A)
                 (A) (A) (A) (A) (A) (A) (A) (A) (A) (A) (A) (A)
                 (A) (A) (A) (A) (A) (A) (A) (A) (A) (A) (A) (A)
                 (A) (A) (A) (A) (A) (A) (A) (A) (A) (A) (A) (A)
                 (A) (A) (A) (A) (A) (A) (A) (A) (A) (A) (A) (A)
                 (A) (A) (A) (A) (A) (A) (A) (A) (A) (A) (A) (A)
                 (A) (A) (A) (A) (A) (A) (A) (A) (A) (A) (A) (A)
                 (A) (A) (A) (A) (A) (A) (A) (A) (A) (A) (A) (A)
                 (A) (A) (A) (A) (A) (A) (A) (A) (A) (A) (A) (A)
                 (A) (A) (A) (A) (A) (A) (A) (A) (A) (A) (A) (A)
                 (A) (A) (A) (A) (A) (A) (A) (A) (A) (A) (A) (A)
                 (A) (A) (A) (A) (A) (A) (A) (A) (A) (A) (A) (A)
                 (A) (A) (A) (A) (A) (A) (A) (A) (A) (A) (A) (A)
                 (A) (A) (A) (A) (A) (A) (A) (A) (A) (A) (A) (A)
                 (A) (A) (A) (A) (A) (A) (A) (A) (A) (A) (A) (A)
                 (A) (A) (A) (A) (A) (A) (A) (A) (A) (A) (A) (A)
                 (A) (A) (A) (A) (A) (A) (A) (A) (A) (A) (A) (A)
                 (A) (A) (A) (A) (A) (A) (A) (A) (A) (A) (A) (A)
                 (A) (A) (A) (A) (A) (A) (A) (A) (A) (A) (A) (A)
                 (A) (A) (A) (A) (A) (A) (A) (A) (A) (A) (A) (A)
                 (A) (A) (A) (A) (A) (A) (A) (A) (A) (A) (A) (A)
                 (A) (A) (A) (A) (A) (A) (A) (A) (A) (A) (A) (A)
                 (A) (A) (A) (A) (A) (A) (A) (A) (A) (A) (A) (A)
                 (A) (A) (A) (A) (A) (A) (A) (A) (A) (A) (A) (A)
                 (A) (A) (A) (A) (A) (A)
 The electronic state is 1-A.
 Alpha  occ. eigenvalues --  -19.23328 -14.49419 -14.48741 -14.46584 -14.46176
 Alpha  occ. eigenvalues --  -14.46041 -14.45709 -14.44706 -10.41994 -10.40497
 Alpha  occ. eigenvalues --  -10.38112 -10.37367 -10.37062 -10.36316 -10.35783
 Alpha  occ. eigenvalues --  -10.35246 -10.34962 -10.34888 -10.34843 -10.34390
 Alpha  occ. eigenvalues --  -10.34070 -10.34051 -10.33923 -10.32631 -10.32093
 Alpha  occ. eigenvalues --  -10.31805 -10.31784 -10.31483 -10.31479 -10.31429
 Alpha  occ. eigenvalues --  -10.31038 -10.30955 -10.30898 -10.30380 -10.30272
 Alpha  occ. eigenvalues --  -10.29658 -10.29398  -1.13501  -1.11465  -1.05259
 Alpha  occ. eigenvalues --   -1.03676  -1.03321  -1.03014  -0.99992  -0.99568
 Alpha  occ. eigenvalues --   -0.96067  -0.94539  -0.92245  -0.89231  -0.87993
 Alpha  occ. eigenvalues --   -0.86926  -0.86381  -0.84920  -0.83867  -0.83578
 Alpha  occ. eigenvalues --   -0.81873  -0.79545  -0.77888  -0.77724  -0.75891
 Alpha  occ. eigenvalues --   -0.73198  -0.72720  -0.72239  -0.71855  -0.70770
 Alpha  occ. eigenvalues --   -0.70296  -0.69636  -0.68202  -0.66333  -0.64579
 Alpha  occ. eigenvalues --   -0.63277  -0.62331  -0.61507  -0.60667  -0.59617
 Alpha  occ. eigenvalues --   -0.58486  -0.57831  -0.56829  -0.56531  -0.56095
 Alpha  occ. eigenvalues --   -0.55779  -0.55440  -0.54618  -0.54376  -0.54070
 Alpha  occ. eigenvalues --   -0.53806  -0.53276  -0.52578  -0.52039  -0.51656
 Alpha  occ. eigenvalues --   -0.51414  -0.51221  -0.50929  -0.50397  -0.50245
 Alpha  occ. eigenvalues --   -0.49923  -0.49867  -0.49439  -0.49196  -0.48278
 Alpha  occ. eigenvalues --   -0.47506  -0.47243  -0.46425  -0.45962  -0.45625
 Alpha  occ. eigenvalues --   -0.45283  -0.44475  -0.44281  -0.43990  -0.43815
 Alpha  occ. eigenvalues --   -0.43447  -0.42981  -0.42119  -0.41632  -0.41334
 Alpha  occ. eigenvalues --   -0.40051  -0.38244  -0.37672  -0.37027  -0.35482
 Alpha  occ. eigenvalues --   -0.35059  -0.34932  -0.33842  -0.33440  -0.33107
 Alpha  occ. eigenvalues --   -0.32850  -0.32007  -0.31057  -0.29527  -0.27483
 Alpha  occ. eigenvalues --   -0.26068
 Alpha virt. eigenvalues --   -0.00455   0.02781   0.03262   0.04697   0.05799
 Alpha virt. eigenvalues --    0.07276   0.07617   0.08033   0.09996   0.10598
 Alpha virt. eigenvalues --    0.12942   0.13734   0.14156   0.15282   0.15956
 Alpha virt. eigenvalues --    0.16645   0.16991   0.18109   0.18234   0.18550
 Alpha virt. eigenvalues --    0.19558   0.19864   0.20238   0.20932   0.21722
 Alpha virt. eigenvalues --    0.22388   0.22655   0.23116   0.23531   0.23734
 Alpha virt. eigenvalues --    0.24099   0.24484   0.24906   0.25044   0.25393
 Alpha virt. eigenvalues --    0.25420   0.25746   0.26207   0.27272   0.27317
 Alpha virt. eigenvalues --    0.27498   0.27973   0.28168   0.28401   0.28804
 Alpha virt. eigenvalues --    0.29116   0.29608   0.30305   0.30590   0.31048
 Alpha virt. eigenvalues --    0.31618   0.31807   0.32687   0.33200   0.33991
 Alpha virt. eigenvalues --    0.34368   0.35101   0.35912   0.36895   0.37643
 Alpha virt. eigenvalues --    0.37834   0.38475   0.38796   0.39462   0.39759
 Alpha virt. eigenvalues --    0.40124   0.40551   0.41194   0.41438   0.41719
 Alpha virt. eigenvalues --    0.43472   0.45108   0.45186   0.46337   0.47218
 Alpha virt. eigenvalues --    0.47947   0.49413   0.50938   0.52409   0.53472
 Alpha virt. eigenvalues --    0.55174   0.55889   0.57193   0.57324   0.57887
 Alpha virt. eigenvalues --    0.58318   0.59263   0.59413   0.59751   0.59864
 Alpha virt. eigenvalues --    0.60516   0.60932   0.61242   0.61935   0.62197
 Alpha virt. eigenvalues --    0.62364   0.62765   0.62864   0.63578   0.64004
 Alpha virt. eigenvalues --    0.64221   0.64828   0.64885   0.65231   0.65486
 Alpha virt. eigenvalues --    0.65642   0.65908   0.66068   0.66248   0.66757
 Alpha virt. eigenvalues --    0.66885   0.67168   0.67275   0.68108   0.68448
 Alpha virt. eigenvalues --    0.68987   0.69212   0.69413   0.69522   0.70039
 Alpha virt. eigenvalues --    0.70231   0.70721   0.71069   0.71293   0.71898
 Alpha virt. eigenvalues --    0.72363   0.72654   0.72894   0.73818   0.74008
 Alpha virt. eigenvalues --    0.74539   0.75035   0.75294   0.76167   0.76557
 Alpha virt. eigenvalues --    0.77365   0.78304   0.78965   0.80171   0.80684
 Alpha virt. eigenvalues --    0.80766   0.81222   0.81669   0.82250   0.83150
 Alpha virt. eigenvalues --    0.83651   0.83862   0.84505   0.85267   0.86203
 Alpha virt. eigenvalues --    0.86466   0.87034   0.87754   0.87880   0.88338
 Alpha virt. eigenvalues --    0.88811   0.89220   0.90080   0.90261   0.90712
 Alpha virt. eigenvalues --    0.91150   0.91657   0.92027   0.92504   0.93146
 Alpha virt. eigenvalues --    0.93172   0.93440   0.93561   0.93868   0.94056
 Alpha virt. eigenvalues --    0.94130   0.94632   0.94980   0.95294   0.96120
 Alpha virt. eigenvalues --    0.96766   0.97056   0.97345   0.98093   0.98438
 Alpha virt. eigenvalues --    0.98629   0.99269   0.99454   0.99624   1.00353
 Alpha virt. eigenvalues --    1.01140   1.01409   1.01944   1.02173   1.02644
 Alpha virt. eigenvalues --    1.02974   1.04068   1.04607   1.05834   1.06152
 Alpha virt. eigenvalues --    1.06481   1.07137   1.07488   1.07949   1.08841
[...]
                 (A) (A) (A) (A) (A) (A) (A) (A) (A) (A) (A) (A)
                 (A) (A) (A) (A) (A) (A) (A) (A) (A) (A) (A) (A)
                 (A) (A) (A) (A) (A) (A) (A) (A) (A) (A) (A) (A)
                 (A) (A) (A) (A) (A) (A) (A) (A) (A) (A) (A) (A)
                 (A) (A) (A) (A) (A) (A) (A) (A) (A) (A) (A) (A)
                 (A) (A) (A) (A) (A) (A) (A) (A) (A) (A) (A) (A)
                 (A) (A) (A) (A) (A) (A) (A) (A) (A) (A) (A) (A)
                 (A) (A) (A) (A) (A) (A) (A) (A) (A) (A) (A) (A)
                 (A) (A) (A) (A) (A) (A) (A) (A) (A) (A) (A) (A)
                 (A) (A) (A) (A) (A) (A) (A) (A) (A) (A) (A) (A)
                 (A) (A) (A) (A) (A) (A) (A) (A) (A) (A) (A) (A)
                 (A) (A) (A) (A) (A) (A) (A) (A) (A) (A) (A) (A)
                 (A) (A) (A) (A) (A) (A) (A) (A) (A) (A) (A) (A)
                 (A) (A) (A) (A) (A) (A) (A) (A) (A) (A) (A) (A)
                 (A) (A) (A) (A) (A) (A) (A) (A) (A) (A) (A) (A)
                 (A) (A) (A) (A) (A) (A) (A) (A) (A) (A) (A) (A)
                 (A) (A) (A) (A) (A) (A) (A) (A) (A) (A) (A) (A)
                 (A) (A) (A) (A) (A) (A) (A) (A) (A) (A) (A) (A)
                 (A) (A) (A) (A) (A) (A) (A) (A) (A) (A) (A) (A)
                 (A) (A) (A) (A) (A) (A) (A) (A) (A) (A) (A) (A)
                 (A) (A) (A) (A) (A) (A) (A) (A) (A) (A) (A) (A)
                 (A) (A) (A) (A) (A) (A) (A) (A) (A) (A) (A) (A)
                 (A) (A) (A) (A) (A) (A) (A) (A) (A) (A) (A) (A)
                 (A) (A) (A) (A) (A) (A) (A) (A) (A) (A) (A) (A)
                 (A) (A) (A) (A) (A) (A) (A) (A) (A) (A) (A) (A)
                 (A) (A) (A) (A) (A) (A) (A) (A) (A) (A) (A) (A)
                 (A) (A) (A) (A) (A) (A) (A) (A) (A) (A) (A) (A)
                 (A) (A) (A) (A) (A) (A) (A) (A) (A) (A) (A) (A)
                 (A) (A) (A) (A) (A) (A) (A) (A) (A) (A) (A) (A)
                 (A) (A) (A) (A) (A) (A) (A) (A) (A) (A) (A) (A)
                 (A) (A) (A) (A) (A) (A) (A) (A) (A) (A) (A) (A)
                 (A) (A) (A) (A) (A) (A) (A) (A) (A) (A) (A) (A)
                 (A) (A) (A) (A) (A) (A) (A) (A) (A) (A) (A) (A)
                 (A) (A) (A) (A) (A) (A)
 The electronic state is 1-A.
 Alpha  occ. eigenvalues --  -19.23411 -14.49282 -14.48321 -14.46751 -14.46096
 Alpha  occ. eigenvalues --  -14.45764 -14.43616 -14.43135 -10.41778 -10.40081
 Alpha  occ. eigenvalues --  -10.37615 -10.36338 -10.35325 -10.35084 -10.34623
 Alpha  occ. eigenvalues --  -10.34135 -10.34016 -10.33622 -10.32863 -10.32367
 Alpha  occ. eigenvalues --  -10.31860 -10.31492 -10.31179 -10.30935 -10.30708
 Alpha  occ. eigenvalues --  -10.30688 -10.30677 -10.30586 -10.30533 -10.30403
 Alpha  occ. eigenvalues --  -10.30377 -10.30220 -10.30020 -10.29974 -10.29575
 Alpha  occ. eigenvalues --  -10.28740 -10.28405  -1.13443  -1.12295  -1.06322
 Alpha  occ. eigenvalues --   -1.04565  -1.03829  -1.03634  -1.00715  -0.99558
 Alpha  occ. eigenvalues --   -0.96086  -0.94671  -0.93098  -0.89778  -0.88124
 Alpha  occ. eigenvalues --   -0.87388  -0.86228  -0.85400  -0.84542  -0.83783
 Alpha  occ. eigenvalues --   -0.81888  -0.79581  -0.78270  -0.77798  -0.76320
 Alpha  occ. eigenvalues --   -0.73881  -0.73301  -0.73025  -0.72621  -0.70870
 Alpha  occ. eigenvalues --   -0.70314  -0.69615  -0.68039  -0.66413  -0.65150
 Alpha  occ. eigenvalues --   -0.63656  -0.63408  -0.62228  -0.61762  -0.60211
 Alpha  occ. eigenvalues --   -0.58848  -0.58045  -0.57570  -0.56611  -0.56101
 Alpha  occ. eigenvalues --   -0.55817  -0.55236  -0.55134  -0.54965  -0.54255
 Alpha  occ. eigenvalues --   -0.53867  -0.53239  -0.53154  -0.52612  -0.52174
 Alpha  occ. eigenvalues --   -0.51912  -0.51509  -0.51370  -0.50999  -0.50575
 Alpha  occ. eigenvalues --   -0.50365  -0.50117  -0.49974  -0.49497  -0.48335
 Alpha  occ. eigenvalues --   -0.47217  -0.46906  -0.46619  -0.46319  -0.46211
 Alpha  occ. eigenvalues --   -0.45762  -0.45235  -0.44798  -0.44045  -0.43932
 Alpha  occ. eigenvalues --   -0.43328  -0.43016  -0.42141  -0.41766  -0.41439
 Alpha  occ. eigenvalues --   -0.40964  -0.40776  -0.39912  -0.38187  -0.37592
 Alpha  occ. eigenvalues --   -0.35821  -0.35293  -0.34001  -0.33446  -0.33373
 Alpha  occ. eigenvalues --   -0.32818  -0.31904  -0.30772  -0.29115  -0.27079
 Alpha  occ. eigenvalues --   -0.24996
 Alpha virt. eigenvalues --   -0.00292   0.02872   0.03586   0.04480   0.06433
 Alpha virt. eigenvalues --    0.07258   0.08204   0.10371   0.13887   0.14814
 Alpha virt. eigenvalues --    0.15729   0.16386   0.17252   0.17441   0.18251
 Alpha virt. eigenvalues --    0.19198   0.19759   0.20074   0.20198   0.20629
 Alpha virt. eigenvalues --    0.21234   0.21900   0.22614   0.22766   0.23135
 Alpha virt. eigenvalues --    0.23343   0.23537   0.24192   0.24362   0.24839
 Alpha virt. eigenvalues --    0.25118   0.25125   0.26082   0.26488   0.26550
 Alpha virt. eigenvalues --    0.27065   0.27431   0.27680   0.27996   0.28429
 Alpha virt. eigenvalues --    0.28564   0.28864   0.29437   0.29708   0.30282
 Alpha virt. eigenvalues --    0.31015   0.31165   0.31763   0.32124   0.32246
 Alpha virt. eigenvalues --    0.32892   0.33214   0.33675   0.33955   0.34428
 Alpha virt. eigenvalues --    0.35001   0.36036   0.36538   0.37755   0.38123
 Alpha virt. eigenvalues --    0.38651   0.38809   0.39299   0.40138   0.40739
 Alpha virt. eigenvalues --    0.41234   0.41464   0.42064   0.42207   0.42713
 Alpha virt. eigenvalues --    0.43814   0.45043   0.46208   0.47058   0.47330
 Alpha virt. eigenvalues --    0.48355   0.49428   0.51937   0.53014   0.54230
 Alpha virt. eigenvalues --    0.55738   0.56536   0.57256   0.57912   0.58309
 Alpha virt. eigenvalues --    0.59048   0.59371   0.59611   0.60510   0.60896
 Alpha virt. eigenvalues --    0.61370   0.61486   0.61680   0.62222   0.62698
 Alpha virt. eigenvalues --    0.63200   0.63355   0.63864   0.64090   0.64889
 Alpha virt. eigenvalues --    0.64931   0.65336   0.65508   0.65529   0.65821
 Alpha virt. eigenvalues --    0.66022   0.66272   0.66897   0.66982   0.67472
 Alpha virt. eigenvalues --    0.67615   0.67787   0.68307   0.68614   0.69045
 Alpha virt. eigenvalues --    0.69766   0.70017   0.70550   0.71042   0.71240
 Alpha virt. eigenvalues --    0.71763   0.72092   0.72267   0.72585   0.73056
 Alpha virt. eigenvalues --    0.73333   0.73461   0.74255   0.75225   0.75349
 Alpha virt. eigenvalues --    0.75594   0.75946   0.76255   0.76932   0.77677
 Alpha virt. eigenvalues --    0.77802   0.79111   0.80382   0.80454   0.81763
 Alpha virt. eigenvalues --    0.81971   0.82306   0.83130   0.83262   0.84196
 Alpha virt. eigenvalues --    0.84654   0.85716   0.86630   0.86888   0.87423
 Alpha virt. eigenvalues --    0.88278   0.89047   0.89674   0.90200   0.90738
 Alpha virt. eigenvalues --    0.90924   0.91157   0.91468   0.92208   0.92295
 Alpha virt. eigenvalues --    0.92392   0.92543   0.93563   0.93885   0.94046
 Alpha virt. eigenvalues --    0.94341   0.94529   0.94676   0.95250   0.95604
 Alpha virt. eigenvalues --    0.95949   0.96540   0.97598   0.98196   0.98359
 Alpha virt. eigenvalues --    0.98516   0.99007   0.99058   0.99701   0.99825
 Alpha virt. eigenvalues --    1.00450   1.00624   1.01371   1.01926   1.02021
 Alpha virt. eigenvalues --    1.02500   1.02651   1.03218   1.03673   1.04408
 Alpha virt. eigenvalues --    1.05622   1.05882   1.06646   1.06767   1.07380
 Alpha virt. eigenvalues --    1.07618   1.08219   1.08749   1.08901   1.09056
 Alpha virt. eigenvalues --    1.10208   1.10700   1.11026   1.11714   1.12088
 Alpha virt. eigenvalues --    1.12635   1.13094   1.13793   1.14265   1.15632
 Alpha virt. eigenvalues --    1.16460   1.16987   1.17694   1.18300   1.19273
 Alpha virt. eigenvalues --    1.20082   1.21181   1.21738   1.23134   1.23418
 Alpha virt. eigenvalues --    1.24744   1.25513   1.26100   1.26962   1.27423
 Alpha virt. eigenvalues --    1.29018   1.29353   1.29706   1.30411   1.30874
 Alpha virt. eigenvalues --    1.31926   1.33069   1.33760   1.33900   1.34765
 Alpha virt. eigenvalues --    1.35490   1.36943   1.37301   1.37888   1.38646
 Alpha virt. eigenvalues --    1.39297   1.42346   1.43370   1.43714   1.44583
 Alpha virt. eigenvalues --    1.46484   1.47299   1.47751   1.48441   1.48547
 Alpha virt. eigenvalues --    1.48647   1.49181   1.49466   1.50259   1.51635
 Alpha virt. eigenvalues --    1.51969   1.52736   1.53659   1.54082   1.54530
 Alpha virt. eigenvalues --    1.55183   1.55560   1.56281   1.56871   1.56981
 Alpha virt. eigenvalues --    1.57523   1.57807   1.58457   1.59180   1.59302
 Alpha virt. eigenvalues --    1.59661   1.60105   1.60822   1.61988   1.62520
 Alpha virt. eigenvalues --    1.63912   1.64944   1.65122   1.65692   1.67669
 Alpha virt. eigenvalues --    1.68409   1.69749   1.72013   1.75170   1.76229
 Alpha virt. eigenvalues --    1.78748   1.80597   1.81507   1.82526   1.84276
 Alpha virt. eigenvalues --    1.84719   1.85643   1.86429   1.86959   1.87887
 Alpha virt. eigenvalues --    1.87957   1.88948   1.89941   1.90638   1.90826
 Alpha virt. eigenvalues --    1.91214   1.92461   1.92803   1.93435   1.94263
 Alpha virt. eigenvalues --    1.94426   1.94936   1.95569   1.96613   1.97941
 Alpha virt. eigenvalues --    1.98717   1.99604   2.00123   2.00240   2.01197
 Alpha virt. eigenvalues --    2.01310   2.01499   2.01783   2.02573   2.03678
 Alpha virt. eigenvalues --    2.05537   2.06500   2.06637   2.07324   2.08212
 Alpha virt. eigenvalues --    2.08612   2.08851   2.09735   2.10837   2.11394
 Alpha virt. eigenvalues --    2.12241   2.12580   2.13555   2.14167   2.14817
 Alpha virt. eigenvalues --    2.15877   2.16188   2.17688   2.19549   2.20432
 Alpha virt. eigenvalues --    2.21104   2.21286   2.21688   2.22413   2.22784
 Alpha virt. eigenvalues --    2.22977   2.23632   2.23942   2.24603   2.25134
 Alpha virt. eigenvalues --    2.25945   2.26147   2.26369   2.26887   2.28050
 Alpha virt. eigenvalues --    2.28544   2.29387   2.29952   2.31589   2.32594
 Alpha virt. eigenvalues --    2.34099   2.34928   2.36376   2.37132   2.37172
 Alpha virt. eigenvalues --    2.37913   2.38059   2.38212   2.39476   2.39888
 Alpha virt. eigenvalues --    2.40252   2.40811   2.42121   2.42801   2.43234
 Alpha virt. eigenvalues --    2.43391   2.44334   2.44768   2.44890   2.46221
 Alpha virt. eigenvalues --    2.46452   2.47886   2.48104   2.49414   2.49811
 Alpha virt. eigenvalues --    2.50305   2.50933   2.52051   2.53873   2.56001
 Alpha virt. eigenvalues --    2.58455   2.59877   2.60856   2.62125   2.63397
 Alpha virt. eigenvalues --    2.64710   2.65080   2.65953   2.66089   2.67626
 Alpha virt. eigenvalues --    2.68705   2.70008   2.71800   2.72056   2.72665
 Alpha virt. eigenvalues --    2.74011   2.74385   2.75463   2.76174   2.76865
 Alpha virt. eigenvalues --    2.77168   2.78480   2.78950   2.80939   2.81729
 Alpha virt. eigenvalues --    2.82746   2.83151   2.83723   2.84481   2.85526
 Alpha virt. eigenvalues --    2.86030   2.86478   2.87314   2.88411   2.89256
 Alpha virt. eigenvalues --    2.89962   2.91946   2.92699   2.93388   2.94568
 Alpha virt. eigenvalues --    2.94834   2.96132   2.97873   3.01370   3.02992
 Alpha virt. eigenvalues --    3.04142   3.06694   3.09291   3.10084   3.12017
 Alpha virt. eigenvalues --    3.18948   3.26897   3.29153   3.39174   3.41513
 Alpha virt. eigenvalues --    3.45039   3.53455   3.56407   3.57588   4.12659
 Alpha virt. eigenvalues --    4.13540   4.15201   4.16852   4.18260   4.19134
 Alpha virt. eigenvalues --    4.19562   4.20447   4.21989   4.23543   4.25286
 Alpha virt. eigenvalues --    4.26035   4.27472   4.28698   4.30761   4.31718
 Alpha virt. eigenvalues --    4.33381   4.34588   4.36933   4.40132   4.40370
 Alpha virt. eigenvalues --    4.41612   4.44511   4.46129   4.49148   4.49439
 Alpha virt. eigenvalues --    4.49746   4.52846   4.57341   4.60739   4.61923
 Alpha virt. eigenvalues --    4.64161   4.67477   4.69409   4.79024   4.85075
 Alpha virt. eigenvalues --    4.89518
          Condensed to atoms (all electrons):
 Mulliken atomic charges:
              1
     1  C   -0.197839
     2  C   -0.154406
     3  C    0.035511
     4  C    0.009581
     5  N   -0.437517
     6  C    0.035724
     7  C    0.295161
     8  C   -0.254766
     9  C    0.049018
    10  N   -0.493037
    11  C    0.714359
    12  N   -0.568401
    13  N   -0.802050
    14  C    0.291475
    15  C    0.119858
    16  C   -0.240381
    17  C   -0.191299
    18  C    0.358152
    19  C   -0.269693
    20  N   -0.757964
    21  C    0.585724
    22  C    0.015188
    23  C   -0.205354
    24  C   -0.217899
    25  C    0.155968
    26  C   -0.223077
    27  C   -0.178384
    28  C   -0.263560
    29  N   -0.382219
    30  C   -0.183899
    31  C   -0.181772
    32  N   -0.385718
    33  C   -0.349277
    34  C   -0.182632
    35  C   -0.186519
    36  O   -0.513278
    37  C   -0.607377
    38  H    0.186140
    39  H    0.186727
    40  H    0.198121
    41  H    0.179047
    42  H    0.180746
    43  H    0.189490
    44  H    0.369212
    45  H    0.160819
    46  H    0.213080
    47  H    0.199366
    48  H    0.361561
    49  H    0.185470
    50  H    0.172057
    51  H    0.163617
    52  H    0.195608
    53  H    0.170280
    54  H    0.168919
    55  H    0.148152
    56  H    0.158352
    57  H    0.141660
    58  H    0.174888
    59  H    0.135270
    60  H    0.164120
    61  H    0.167873
    62  H    0.153489
    63  H    0.172923
    64  H    0.159408
    65  H    0.154996
    66  H    0.178038
    67  H    0.182749
    68  H    0.190421
 Sum of Mulliken atomic charges =   0.00000
 Mulliken charges with hydrogens summed into heavy atoms:
              1
     1  C   -0.011699
     2  C    0.032321
     3  C    0.035511
     4  C    0.207702
     5  N   -0.437517
     6  C    0.214771
     7  C    0.295161
     8  C   -0.074020
     9  C    0.238508
    10  N   -0.493037
    11  C    0.714359
    12  N   -0.568401
    13  N   -0.432838
    14  C    0.291475
    15  C    0.119858
    16  C   -0.079562
    17  C    0.021781
    18  C    0.358152
    19  C   -0.070327
    20  N   -0.396403
    21  C    0.585724
    22  C    0.015188
    23  C   -0.019884
    24  C   -0.045842
    25  C    0.155968
    26  C   -0.059460
    27  C    0.017224
    28  C    0.075639
    29  N   -0.382219
    30  C    0.122605
    31  C    0.134776
    32  N   -0.385718
    33  C    0.117986
    34  C    0.143780
    35  C    0.127885
    36  O   -0.513278
    37  C   -0.056169
 Sum of Mulliken charges with hydrogens summed into heavy atoms =   0.00000
 Electronic spatial extent (au):  <R**2>=          21211.3672
 Charge=              0.0000 electrons
 Dipole moment (field-independent basis, Debye):
    X=              0.5800    Y=              6.5720    Z=              0.4340  Tot=              6.6118
 Quadrupole moment (field-independent basis, Debye-Ang):
   XX=           -193.2969   YY=           -202.5056   ZZ=           -220.4856
   XY=              3.1065   XZ=             -1.2804   YZ=             -5.2240
 Traceless Quadrupole moment (field-independent basis, Debye-Ang):
   XX=             12.1325   YY=              2.9237   ZZ=            -15.0562
   XY=              3.1065   XZ=             -1.2804   YZ=             -5.2240
 Octapole moment (field-independent basis, Debye-Ang**2):
  XXX=             80.0279  YYY=            204.3952  ZZZ=             11.3509  XYY=             33.4260
  XXY=            -43.1243  XXZ=             31.6379  XZZ=            -22.7194  YZZ=              1.3441
  YYZ=             17.7588  XYZ=              2.2771
 Hexadecapole moment (field-independent basis, Debye-Ang**3):
 XXXX=         -18569.1069 YYYY=          -7865.1885 ZZZZ=          -1607.8464 XXXY=            -50.9186
 XXXZ=           -102.8180 YYYX=            149.1160 YYYZ=            -76.3536 ZZZX=            -50.0454
 ZZZY=             15.0378 XXYY=          -4005.2795 XXZZ=          -3409.0576 YYZZ=          -1721.5336
 XXYZ=            -52.8169 YYXZ=            -15.8910 ZZXY=            -24.6134
 N-N= 3.895100714823D+03 E-N=-1.146179708627D+04  KE= 1.567155853284D+03
 No NMR shielding tensors so no spin-rotation constants.
 Leave Link  601 at Thu Apr  9 00:55:02 2020, MaxMem= 2684354560 cpu:       2.7
 (Enter /opt/g09gh/gaussian/g09/l9999.exe)
 1\1\GINC-NODE61\FOpt\RwB97XD\6-31G(d)\C29H31N7O1\BDW2292\09-Apr-2020\0
 \\#P opt=(,maxcycle=400) wB97XD/6-31G* MaxDisk=100GB\\MOLECULE0 Rotata
 ble Bond Optimization on node37.bme.utexas.edu\\0,1\C,-0.5184921017,4.
 2224939692,1.4192710376\C,0.7674442349,3.9926099926,1.8931846361\C,1.4
 866605989,2.9059721074,1.3984655983\C,0.8623451654,2.1058599436,0.4322
 326035\N,-0.3699000032,2.3122358552,-0.0290408033\C,-1.0426592092,3.35
 46859565,0.4674235025\C,2.8462945828,2.5500615409,1.8775397017\C,3.736
 0333236,3.4616693178,2.4386280193\C,4.9624805552,2.9439937948,2.853707
 0515\N,5.3048527611,1.6687841566,2.7317927558\C,4.3770872425,0.8740530
 745,2.1605684231\N,3.1739302043,1.263104186,1.7390265937\N,4.749578901
 7,-0.4356985524,2.0280036293\C,4.0788367133,-1.5132773954,1.4198042691
 \C,4.8193904492,-2.6702398989,1.1029115823\C,4.1465501325,-3.718207651
 8,0.4804907417\C,2.7946948156,-3.6696991447,0.1449730021\C,2.085429551
 4,-2.5179363607,0.4719211263\C,2.7211381465,-1.4645391696,1.1284735581
 \N,0.7343880665,-2.2887713438,0.1632372675\C,-0.1288082605,-3.01335142
 51,-0.6180339702\C,-1.3993840107,-2.2655661254,-0.9090779998\C,-1.4085
 641073,-0.8806325867,-1.0998959086\C,-2.6030381837,-0.2112579702,-1.32
 1140218\C,-3.8163733534,-0.899154376,-1.3338622537\C,-3.7930758861,-2.
 2901329866,-1.1988826858\C,-2.5986225299,-2.9716029918,-0.9964063264\C
 ,-5.1314758715,-0.1427689802,-1.4277622618\N,-5.6788247597,0.39854735,
 -0.1930003196\C,-5.0487300334,1.5848972058,0.3766138208\C,-3.982415252
 3,1.2869067506,1.4464653813\N,-4.4517624005,0.3731615352,2.4843460255\
 C,-5.3611169965,0.9844437775,3.4372395977\C,-4.9747505715,-0.844635843
 7,1.8691215648\C,-6.0708681627,-0.5681319528,0.8266545896\O,0.08761454
 56,-4.1431263955,-1.0230225105\C,6.2913485993,-2.7682546256,1.41379888
 95\H,-1.1100265888,5.0526456255,1.7900574523\H,1.1910563966,4.63561045
 81,2.6593293825\H,1.4039409225,1.2605845206,0.0152830121\H,-2.05140171
 89,3.4980765327,0.0860883429\H,3.5119586736,4.5165165349,2.5377457179\
 H,5.7087744555,3.5948261134,3.3049367464\H,5.6913590561,-0.6012168708,
 2.3502816512\H,4.7081486063,-4.6150697592,0.2312923182\H,2.3057156823,
 -4.4920660202,-0.3589841608\H,2.1611350432,-0.5787133905,1.3871010355\
 H,0.3694616571,-1.4166803314,0.5167588028\H,-0.486578615,-0.3065211984
 ,-1.0996227242\H,-2.5804615517,0.8664350882,-1.4614194578\H,-4.7276532
 543,-2.8454629097,-1.2377918224\H,-2.5808340384,-4.0514450529,-0.88741
 21307\H,-5.016859182,0.6942816,-2.1270802691\H,-5.8923504856,-0.807993
 6056,-1.8557527254\H,-4.6150190886,2.1779912078,-0.4374424484\H,-5.841
 1423785,2.2012376494,0.827546294\H,-3.6594206812,2.2219893767,1.921786
 8424\H,-3.0988390001,0.8364823681,0.9808240725\H,-6.3125588402,1.35558
 33365,3.0170842106\H,-4.8594168951,1.8310467739,3.9189456358\H,-5.6061
 343564,0.2532701208,4.2153203589\H,-5.3632446368,-1.4994564722,2.65857
 87305\H,-4.13522058,-1.3647460983,1.39334083\H,-6.9663794343,-0.183123
 0426,1.3367993868\H,-6.3675658262,-1.5004817285,0.333298898\H,6.493918
 0671,-2.7072147098,2.4918690765\H,6.8671066231,-1.9732610779,0.9222691
 217\H,6.6950920723,-3.7227237756,1.0667981083\\Version=EM64L-G09RevA.0
 2\State=1-A\HF=-1581.7632161\RMSD=6.523e-09\RMSF=4.275e-06\Dipole=0.15
 59754,2.3754424,1.0485981\Quadrupole=8.792588,2.9952501,-11.7878381,2.
 1420604,2.7747191,1.4550092\PG=C01 [X(C29H31N7O1)]\\@


 MOST BUREAUCRACIES FUNCTION LIKE A SEPTIC TANK.
 THE LARGE CHUNKS RISE TO THE TOP.
 Job cpu time:  0 days 16 hours  2 minutes 54.3 seconds.
 File lengths (MBytes):  RWF=    244 Int=      0 D2E=      0 Chk=     25 Scr=      1
 Normal termination of Gaussian 09 at Thu Apr  9 00:55:02 2020.
