
    -----------------------------------------------------------------------
          Psi4: An Open-Source Ab Initio Electronic Structure Package
                               Psi4 1.3.2 release

                         Git: Rev {HEAD} ecbda83 


    R. M. Parrish, L. A. Burns, D. G. A. Smith, A. C. Simmonett,
    A. E. DePrince III, E. G. Hohenstein, U. Bozkaya, A. Yu. Sokolov,
    R. Di Remigio, R. M. Richard, J. F. Gonthier, A. M. James,
    H. R. McAlexander, A. Kumar, M. Saitow, X. Wang, B. P. Pritchard,
    P. Verma, H. F. Schaefer III, K. Patkowski, R. A. King, E. F. Valeev,
    F. A. Evangelista, J. M. Turney, T. D. Crawford, and C. D. Sherrill,
    J. Chem. Theory Comput. 13(7) pp 3185--3197 (2017).
    (doi: 10.1021/acs.jctc.7b00174)


                         Additional Contributions by
    P. Kraus, H. Kruse, M. H. Lechner, M. C. Schieber, R. A. Shaw,
    A. Alenaizan, R. Galvelis, Z. L. Glick, S. Lehtola, and J. P. Misiewicz

    -----------------------------------------------------------------------


    Psi4 started on: Tuesday, 10 March 2020 10:21AM

    Process ID: 72143
    Host:       node35.bme.utexas.edu
    PSIDATADIR: /home/bdw2292/miniconda3/envs/p4env/share/psi4
    Memory:     500.0 MiB
    Threads:    1
    
  ==> Input File <==

--------------------------------------------------------------------------
molecule { 
0 1
 C    6.513382    1.606558    1.940471
 C    5.958461    0.324883    1.825680
 C    4.837733    0.112255    0.997386
 C    4.354855    1.254053    0.312224
 N    4.873880    2.484429    0.406322
 C    5.933396    2.650324    1.211493
 C    4.174636   -1.231730    0.823153
 C    4.609468   -2.428768    1.415761
 C    3.854427   -3.566076    1.113248
 N    2.778737   -3.566342    0.332778
 C    2.422714   -2.369632   -0.181131
 N    3.079498   -1.226558    0.035968
 N    1.292208   -2.393943   -0.979667
 C    0.573515   -1.401655   -1.737377
 C   -0.401546   -1.833864   -2.688457
 C   -1.105012   -0.840247   -3.387790
 C   -0.925252    0.531420   -3.182756
 C    0.015853    0.934838   -2.230476
 C    0.757042   -0.028077   -1.529613
 N    0.275020    2.282017   -1.875396
 C   -0.631493    3.290530   -1.671099
 C   -1.633193    2.942147   -0.591140
 C   -1.237546    2.355676    0.622043
 C   -2.196744    1.931737    1.541884
 C   -3.571632    2.075069    1.279369
 C   -3.948245    2.746846    0.099954
 C   -2.994332    3.196513   -0.815936
 C   -4.611969    1.457619    2.213456
 N   -4.944732    0.033408    2.013365
 C   -3.982365   -1.001187    2.456791
 C   -3.037916   -1.529267    1.345351
 N   -3.738194   -2.010004    0.131904
 C   -4.290931   -3.368156    0.184596
 C   -4.653690   -0.943081   -0.341885
 C   -5.601475   -0.377248    0.750060
 O   -0.650376    4.346508   -2.277072
 C   -0.720500   -3.294133   -2.962315
 H    7.372344    1.793691    2.578132
 H    6.410371   -0.481253    2.398026
 H    3.509787    1.164524   -0.361451
 H    6.332806    3.661552    1.269055
 H    5.477451   -2.509280    2.058488
 H    4.132792   -4.535956    1.524543
 H    0.964506   -3.344661   -1.062514
 H   -1.858773   -1.135695   -4.116965
 H   -1.510837    1.262059   -3.728655
 H    1.463853    0.288383   -0.777953
 H    1.233268    2.602015   -1.882153
 H   -0.181655    2.180960    0.811470
 H   -1.863427    1.420410    2.444886
 H   -5.003392    2.879578   -0.138441
 H   -3.289601    3.669424   -1.749187
 H   -4.274395    1.570977    3.253631
 H   -5.549505    2.025257    2.126186
 H   -3.464028   -0.686180    3.313133
 H   -4.842944   -2.255286    2.895996
 H   -2.260319   -2.675595    1.932133
 H   -2.259485   -0.693213    1.009551
 H   -5.101745   -3.435868    0.918652
 H   -3.507858   -4.085499    0.455316
 H   -4.681536   -3.654127   -0.798749
 H   -5.220859   -1.307253   -1.227157
 H   -3.781918    0.192179   -0.805833
 H   -6.576225   -1.561089    1.106226
 H   -6.233954    0.449169    0.354737
 H   -1.218878   -3.757968   -2.098852
 H    0.186989   -3.876504   -3.175550
 H   -1.387765   -3.433077   -3.824100
}
memory 20GB
set_num_threads(6)
psi4_io.set_default_path("/scratch/bdw2292")
set freeze_core True
E, wfn = energy('mp2/6-311++G**',return_wfn=True)
oeprop(wfn,"WIBERG_LOWDIN_INDICES")
clean()
--------------------------------------------------------------------------

  Memory set to  18.626 GiB by Python driver.
  Threads set to 6 by Python driver.
    SCF Algorithm Type (re)set to DF.

*** tstart() called on node35.bme.utexas.edu
*** at Tue Mar 10 10:21:27 2020

   => Loading Basis Set <=

    Name: 6-311++G**
    Role: ORBITAL
    Keyword: BASIS
    atoms 1-4, 6-9, 11, 14-19, 21-28, 30-31, 33-35, 37 entry C          line   119 file /home/bdw2292/miniconda3/envs/p4env/share/psi4/basis/6-311ppgss.gbs 
    atoms 5, 10, 12-13, 20, 29, 32                     entry N          line   140 file /home/bdw2292/miniconda3/envs/p4env/share/psi4/basis/6-311ppgss.gbs 
    atoms 36                                           entry O          line   161 file /home/bdw2292/miniconda3/envs/p4env/share/psi4/basis/6-311ppgss.gbs 
    atoms 38-68                                        entry H          line    42 file /home/bdw2292/miniconda3/envs/p4env/share/psi4/basis/6-311ppgss.gbs 


         ---------------------------------------------------------
                                   SCF
               by Justin Turney, Rob Parrish, Andy Simmonett
                          and Daniel G. A. Smith
                              RHF Reference
                        6 Threads,  19073 MiB Core
         ---------------------------------------------------------

  ==> Geometry <==

    Molecular point group: c1
    Full point group: C1

    Geometry (in Angstrom), charge = 0, multiplicity = 1:

       Center              X                  Y                   Z               Mass       
    ------------   -----------------  -----------------  -----------------  -----------------
         C            6.544798358793     1.549980232036     2.031726903646    12.000000000000
         C            5.989877358793     0.268305232036     1.916935903646    12.000000000000
         C            4.869149358793     0.055677232036     1.088641903646    12.000000000000
         C            4.386271358793     1.197475232036     0.403479903646    12.000000000000
         N            4.905296358793     2.427851232036     0.497577903646    14.003074004430
         C            5.964812358793     2.593746232036     1.302748903646    12.000000000000
         C            4.206052358793    -1.288307767964     0.914408903646    12.000000000000
         C            4.640884358793    -2.485345767964     1.507016903646    12.000000000000
         C            3.885843358793    -3.622653767964     1.204503903646    12.000000000000
         N            2.810153358793    -3.622919767964     0.424033903646    14.003074004430
         C            2.454130358793    -2.426209767964    -0.089875096354    12.000000000000
         N            3.110914358793    -1.283135767964     0.127223903646    14.003074004430
         N            1.323624358793    -2.450520767964    -0.888411096354    14.003074004430
         C            0.604931358793    -1.458232767964    -1.646121096354    12.000000000000
         C           -0.370129641207    -1.890441767964    -2.597201096354    12.000000000000
         C           -1.073595641207    -0.896824767964    -3.296534096354    12.000000000000
         C           -0.893835641207     0.474842232036    -3.091500096354    12.000000000000
         C            0.047269358793     0.878260232036    -2.139220096354    12.000000000000
         C            0.788458358793    -0.084654767964    -1.438357096354    12.000000000000
         N            0.306436358793     2.225439232036    -1.784140096354    14.003074004430
         C           -0.600076641207     3.233952232036    -1.579843096354    12.000000000000
         C           -1.601776641207     2.885569232036    -0.499884096354    12.000000000000
         C           -1.206129641207     2.299098232036     0.713298903646    12.000000000000
         C           -2.165327641207     1.875159232036     1.633139903646    12.000000000000
         C           -3.540215641207     2.018491232036     1.370624903646    12.000000000000
         C           -3.916828641207     2.690268232036     0.191209903646    12.000000000000
         C           -2.962915641207     3.139935232036    -0.724680096354    12.000000000000
         C           -4.580552641207     1.401041232036     2.304711903646    12.000000000000
         N           -4.913315641207    -0.023169767964     2.104620903646    14.003074004430
         C           -3.950948641207    -1.057764767964     2.548046903646    12.000000000000
         C           -3.006499641207    -1.585844767964     1.436606903646    12.000000000000
         N           -3.706777641207    -2.066581767964     0.223159903646    14.003074004430
         C           -4.259514641207    -3.424733767964     0.275851903646    12.000000000000
         C           -4.622273641207    -0.999658767964    -0.250629096354    12.000000000000
         C           -5.570058641207    -0.433825767964     0.841315903646    12.000000000000
         O           -0.618959641207     4.289930232036    -2.185816096354    15.994914619570
         C           -0.689083641207    -3.350710767964    -2.871059096354    12.000000000000
         H            7.403760358793     1.737113232036     2.669387903646     1.007825032230
         H            6.441787358793    -0.537830767964     2.489281903646     1.007825032230
         H            3.541203358793     1.107946232036    -0.270195096354     1.007825032230
         H            6.364222358793     3.604974232036     1.360310903646     1.007825032230
         H            5.508867358793    -2.565857767964     2.149743903646     1.007825032230
         H            4.164208358793    -4.592533767964     1.615798903646     1.007825032230
         H            0.995922358793    -3.401238767964    -0.971258096354     1.007825032230
         H           -1.827356641207    -1.192272767964    -4.025709096354     1.007825032230
         H           -1.479420641207     1.205481232036    -3.637399096354     1.007825032230
         H            1.495269358793     0.231805232036    -0.686697096354     1.007825032230
         H            1.264684358793     2.545437232036    -1.790897096354     1.007825032230
         H           -0.150238641207     2.124382232036     0.902725903646     1.007825032230
         H           -1.832010641207     1.363832232036     2.536141903646     1.007825032230
         H           -4.971975641207     2.823000232036    -0.047185096354     1.007825032230
         H           -3.258184641207     3.612846232036    -1.657931096354     1.007825032230
         H           -4.242978641207     1.514399232036     3.344886903646     1.007825032230
         H           -5.518088641207     1.968679232036     2.217441903646     1.007825032230
         H           -3.432611641207    -0.742757767964     3.404388903646     1.007825032230
         H           -4.811527641207    -2.311863767964     2.987251903646     1.007825032230
         H           -2.228902641207    -2.732172767964     2.023388903646     1.007825032230
         H           -2.228068641207    -0.749790767964     1.100806903646     1.007825032230
         H           -5.070328641207    -3.492445767964     1.009907903646     1.007825032230
         H           -3.476441641207    -4.142076767964     0.546571903646     1.007825032230
         H           -4.650119641207    -3.710704767964    -0.707493096354     1.007825032230
         H           -5.189442641207    -1.363830767964    -1.135901096354     1.007825032230
         H           -3.750501641207     0.135601232036    -0.714577096354     1.007825032230
         H           -6.544808641207    -1.617666767964     1.197481903646     1.007825032230
         H           -6.202537641207     0.392591232036     0.445992903646     1.007825032230
         H           -1.187461641207    -3.814545767964    -2.007596096354     1.007825032230
         H            0.218405358793    -3.933081767964    -3.084294096354     1.007825032230
         H           -1.356348641207    -3.489654767964    -3.732844096354     1.007825032230

  Running in c1 symmetry.

  Rotational constants: A =      0.00443  B =      0.00221  C =      0.00192 [cm^-1]
  Rotational constants: A =    132.67396  B =     66.32912  C =     57.65596 [MHz]
  Nuclear repulsion = 3895.534436963057487

  Charge       = 0
  Multiplicity = 1
  Electrons    = 262
  Nalpha       = 131
  Nbeta        = 131

  ==> Algorithm <==

  SCF Algorithm Type is DF.
  DIIS enabled.
  MOM disabled.
  Fractional occupation disabled.
  Guess Type is SAD.
  Energy threshold   = 1.00e-08
  Density threshold  = 1.00e-08
  Integral threshold = 0.00e+00

  ==> Primary Basis <==

  Basis Set: 6-311++G**
    Blend: 6-311++G**
    Number of shells: 525
    Number of basis function: 1031
    Number of Cartesian functions: 1068
    Spherical Harmonics?: true
    Max angular momentum: 2

   => Loading Basis Set <=

    Name: (6-311++G** AUX)
    Role: JKFIT
    Keyword: DF_BASIS_SCF
    atoms 1-4, 6-9, 11, 14-19, 21-28, 30-31, 33-35, 37 entry C          line   162 file /home/bdw2292/miniconda3/envs/p4env/share/psi4/basis/aug-cc-pvtz-jkfit.gbs 
    atoms 5, 10, 12-13, 20, 29, 32                     entry N          line   224 file /home/bdw2292/miniconda3/envs/p4env/share/psi4/basis/aug-cc-pvtz-jkfit.gbs 
    atoms 36                                           entry O          line   286 file /home/bdw2292/miniconda3/envs/p4env/share/psi4/basis/aug-cc-pvtz-jkfit.gbs 
    atoms 38-68                                        entry H          line    70 file /home/bdw2292/miniconda3/envs/p4env/share/psi4/basis/aug-cc-pvtz-jkfit.gbs 

  ==> Pre-Iterations <==

   -------------------------------------------------------
    Irrep   Nso     Nmo     Nalpha   Nbeta   Ndocc  Nsocc
   -------------------------------------------------------
     A       1031    1031       0       0       0       0
   -------------------------------------------------------
    Total    1031    1031     131     131     131       0
   -------------------------------------------------------

  ==> Integral Setup <==

  ==> DiskDFJK: Density-Fitted J/K Matrices <==

    J tasked:                  Yes
    K tasked:                  Yes
    wK tasked:                  No
    OpenMP threads:              6
    Integrals threads:           6
    Memory [MiB]:            14305
    Algorithm:                Disk
    Integral Cache:           NONE
    Schwarz Cutoff:          1E-12
    Fitting Condition:       1E-10

   => Auxiliary Basis Set <=

  Basis Set: (6-311++G** AUX)
    Blend: AUG-CC-PVTZ-JKFIT
    Number of shells: 1544
    Number of basis function: 5274
    Number of Cartesian functions: 6552
    Spherical Harmonics?: true
    Max angular momentum: 4

  Minimum eigenvalue in the overlap matrix is 7.7319098238E-08.
  Using Canonical Orthogonalization with cutoff of 1.0000000000E-07.
  Overall, 1 of 1031 possible MOs eliminated.

  SCF Guess: Superposition of Atomic Densities via on-the-fly atomic UHF.

  ==> Iterations <==

                           Total Energy        Delta E     RMS |[F,P]|

   @DF-RHF iter SAD: -1571.31919091435316   -1.57132e+03   0.00000e+00 
   @DF-RHF iter   1: -1571.31010851334827    9.08240e-03   1.21924e-03 DIIS
   @DF-RHF iter   2: -1572.08433995229484   -7.74231e-01   6.45668e-04 DIIS
   @DF-RHF iter   3: -1572.28333156043914   -1.98992e-01   1.61275e-04 DIIS
   @DF-RHF iter   4: -1572.30048713330029   -1.71556e-02   6.58915e-05 DIIS
   @DF-RHF iter   5: -1572.30312882832141   -2.64170e-03   1.50794e-05 DIIS
   @DF-RHF iter   6: -1572.30331529020555   -1.86462e-04   6.83985e-06 DIIS
   @DF-RHF iter   7: -1572.30336119192725   -4.59017e-05   2.21383e-06 DIIS
   @DF-RHF iter   8: -1572.30336850552408   -7.31360e-06   9.90059e-07 DIIS
   @DF-RHF iter   9: -1572.30336983874986   -1.33323e-06   3.62181e-07 DIIS
   @DF-RHF iter  10: -1572.30337008191191   -2.43162e-07   1.70049e-07 DIIS
   @DF-RHF iter  11: -1572.30337012978703   -4.78751e-08   6.85935e-08 DIIS
   @DF-RHF iter  12: -1572.30337014013230   -1.03453e-08   2.92430e-08 DIIS
   @DF-RHF iter  13: -1572.30337014229372   -2.16141e-09   1.21504e-08 DIIS
   @DF-RHF iter  14: -1572.30337014252586   -2.32149e-10   6.05153e-09 DIIS
  Energy and wave function converged.


  ==> Post-Iterations <==

    Orbital Energies [Eh]
    ---------------------

    Doubly Occupied:                                                      

       1A    -20.542350     2A    -15.603030     3A    -15.580143  
       4A    -15.576164     5A    -15.572668     6A    -15.572374  
       7A    -15.568519     8A    -15.555613     9A    -11.374273  
      10A    -11.364727    11A    -11.332603    12A    -11.312276  
      13A    -11.311433    14A    -11.306399    15A    -11.303616  
      16A    -11.302810    17A    -11.300091    18A    -11.295342  
      19A    -11.294830    20A    -11.289684    21A    -11.284870  
      22A    -11.281126    23A    -11.275662    24A    -11.260528  
      25A    -11.257348    26A    -11.253540    27A    -11.251931  
      28A    -11.251677    29A    -11.250324    30A    -11.250167  
      31A    -11.247145    32A    -11.246467    33A    -11.245481  
      34A    -11.243595    35A    -11.236196    36A    -11.234750  
      37A    -11.231747    38A     -1.395658    39A     -1.343510  
      40A     -1.272601    41A     -1.252202    42A     -1.246576  
      43A     -1.241475    44A     -1.207974    45A     -1.201269  
      46A     -1.161832    47A     -1.140844    48A     -1.111888  
      49A     -1.072626    50A     -1.057487    51A     -1.045451  
      52A     -1.038832    53A     -1.025628    54A     -1.010954  
      55A     -1.001320    56A     -0.978728    57A     -0.944656  
      58A     -0.930821    59A     -0.923274    60A     -0.899855  
      61A     -0.870507    62A     -0.867870    63A     -0.854893  
      64A     -0.848633    65A     -0.837855    66A     -0.833675  
      67A     -0.823328    68A     -0.813079    69A     -0.778572  
      70A     -0.750430    71A     -0.745938    72A     -0.723422  
      73A     -0.711742    74A     -0.708051    75A     -0.703514  
      76A     -0.682548    77A     -0.678708    78A     -0.666358  
      79A     -0.665943    80A     -0.656846    81A     -0.653964  
      82A     -0.651528    83A     -0.646008    84A     -0.632559  
      85A     -0.625224    86A     -0.618927    87A     -0.618128  
      88A     -0.613226    89A     -0.608746    90A     -0.604262  
      91A     -0.601510    92A     -0.600907    93A     -0.596098  
      94A     -0.590251    95A     -0.583732    96A     -0.582790  
      97A     -0.579308    98A     -0.574318    99A     -0.556903  
     100A     -0.554815   101A     -0.541398   102A     -0.540204  
     103A     -0.539692   104A     -0.530238   105A     -0.526100  
     106A     -0.524267   107A     -0.515625   108A     -0.511413  
     109A     -0.508461   110A     -0.501478   111A     -0.496467  
     112A     -0.493476   113A     -0.486302   114A     -0.479767  
     115A     -0.456239   116A     -0.449635   117A     -0.436997  
     118A     -0.436110   119A     -0.423579   120A     -0.416140  
     121A     -0.412435   122A     -0.396281   123A     -0.393579  
     124A     -0.379526   125A     -0.372811   126A     -0.344731  
     127A     -0.343353   128A     -0.342049   129A     -0.320113  
     130A     -0.310813   131A     -0.294569  

    Virtual:                                                              

     132A      0.028097   133A      0.036258   134A      0.038789  
     135A      0.041977   136A      0.044811   137A      0.045588  
     138A      0.050579   139A      0.052757   140A      0.056383  
     141A      0.060424   142A      0.062156   143A      0.064053  
     144A      0.068829   145A      0.072303   146A      0.074650  
     147A      0.075236   148A      0.077039   149A      0.078482  
     150A      0.082917   151A      0.085965   152A      0.087023  
     153A      0.090549   154A      0.094377   155A      0.095503  
     156A      0.097811   157A      0.099880   158A      0.106206  
     159A      0.107626   160A      0.108537   161A      0.112004  
     162A      0.113156   163A      0.117223   164A      0.118260  
     165A      0.121610   166A      0.123061   167A      0.125028  
     168A      0.127964   169A      0.129972   170A      0.132165  
     171A      0.135219   172A      0.137831   173A      0.140147  
     174A      0.143951   175A      0.145856   176A      0.146562  
     177A      0.150583   178A      0.152860   179A      0.155810  
     180A      0.156910   181A      0.160234   182A      0.161410  
     183A      0.163260   184A      0.163606   185A      0.165878  
     186A      0.166914   187A      0.169536   188A      0.172432  
     189A      0.175474   190A      0.176742   191A      0.178836  
     192A      0.180010   193A      0.181107   194A      0.182405  
     195A      0.184222   196A      0.184744   197A      0.186488  
     198A      0.189231   199A      0.190294   200A      0.191621  
     201A      0.193662   202A      0.197122   203A      0.198494  
     204A      0.201467   205A      0.201806   206A      0.205103  
     207A      0.205607   208A      0.206991   209A      0.210570  
     210A      0.212859   211A      0.215496   212A      0.216463  
     213A      0.217581   214A      0.218184   215A      0.219815  
     216A      0.221503   217A      0.224269   218A      0.226760  
     219A      0.227610   220A      0.229181   221A      0.231669  
     222A      0.232433   223A      0.234326   224A      0.237128  
     225A      0.237316   226A      0.239980   227A      0.243022  
     228A      0.244144   229A      0.246707   230A      0.248743  
     231A      0.249661   232A      0.252416   233A      0.253455  
     234A      0.257769   235A      0.258513   236A      0.261691  
     237A      0.263511   238A      0.267298   239A      0.270439  
     240A      0.273246   241A      0.275510   242A      0.277549  
     243A      0.280531   244A      0.283189   245A      0.284006  
     246A      0.285646   247A      0.288995   248A      0.290410  
     249A      0.292541   250A      0.298078   251A      0.299933  
     252A      0.302874   253A      0.304488   254A      0.307923  
     255A      0.308752   256A      0.312150   257A      0.313607  
     258A      0.315260   259A      0.318081   260A      0.320346  
     261A      0.325395   262A      0.327408   263A      0.329315  
     264A      0.329840   265A      0.332998   266A      0.334273  
     267A      0.335788   268A      0.336343   269A      0.339870  
     270A      0.341359   271A      0.345356   272A      0.348051  
     273A      0.349158   274A      0.351250   275A      0.352217  
     276A      0.356060   277A      0.356124   278A      0.358848  
     279A      0.360464   280A      0.361272   281A      0.364945  
     282A      0.366324   283A      0.367553   284A      0.370660  
     285A      0.372787   286A      0.373636   287A      0.374741  
     288A      0.377227   289A      0.379126   290A      0.382217  
     291A      0.383440   292A      0.385768   293A      0.388956  
     294A      0.390156   295A      0.391123   296A      0.394093  
     297A      0.395044   298A      0.395767   299A      0.398865  
     300A      0.401022   301A      0.402565   302A      0.404681  
     303A      0.406855   304A      0.408626   305A      0.410569  
     306A      0.412045   307A      0.414564   308A      0.417674  
     309A      0.418455   310A      0.419452   311A      0.421982  
     312A      0.424194   313A      0.426121   314A      0.426573  
     315A      0.430889   316A      0.431782   317A      0.434931  
     318A      0.435613   319A      0.437649   320A      0.439317  
     321A      0.441973   322A      0.442419   323A      0.444763  
     324A      0.447059   325A      0.451390   326A      0.454260  
     327A      0.456281   328A      0.457413   329A      0.458280  
     330A      0.461430   331A      0.464731   332A      0.465344  
     333A      0.466095   334A      0.469566   335A      0.472046  
     336A      0.475673   337A      0.480443   338A      0.481897  
     339A      0.484636   340A      0.488611   341A      0.489084  
     342A      0.491751   343A      0.495816   344A      0.499378  
     345A      0.503759   346A      0.504603   347A      0.507430  
     348A      0.508410   349A      0.510171   350A      0.512121  
     351A      0.516563   352A      0.518609   353A      0.520324  
     354A      0.520708   355A      0.526860   356A      0.530034  
     357A      0.532373   358A      0.532729   359A      0.537406  
     360A      0.540935   361A      0.542688   362A      0.545618  
     363A      0.548413   364A      0.553456   365A      0.556435  
     366A      0.558943   367A      0.562292   368A      0.566865  
     369A      0.569819   370A      0.573961   371A      0.578612  
     372A      0.583418   373A      0.591278   374A      0.595487  
     375A      0.597960   376A      0.602223   377A      0.604484  
     378A      0.609228   379A      0.616447   380A      0.619922  
     381A      0.633482   382A      0.637150   383A      0.651262  
     384A      0.655845   385A      0.664976   386A      0.671007  
     387A      0.677860   388A      0.687709   389A      0.692955  
     390A      0.697289   391A      0.701228   392A      0.707316  
     393A      0.709726   394A      0.716957   395A      0.720706  
     396A      0.723589   397A      0.729580   398A      0.732822  
     399A      0.740138   400A      0.744500   401A      0.748309  
     402A      0.752818   403A      0.758269   404A      0.761138  
     405A      0.763368   406A      0.764191   407A      0.766631  
     408A      0.771531   409A      0.777136   410A      0.781890  
     411A      0.789392   412A      0.792028   413A      0.795123  
     414A      0.798113   415A      0.799384   416A      0.806205  
     417A      0.815350   418A      0.817234   419A      0.818401  
     420A      0.821303   421A      0.826355   422A      0.828983  
     423A      0.831611   424A      0.834461   425A      0.840421  
     426A      0.845172   427A      0.848628   428A      0.852358  
     429A      0.853832   430A      0.857161   431A      0.860891  
     432A      0.862350   433A      0.870953   434A      0.874521  
     435A      0.880447   436A      0.881786   437A      0.888641  
     438A      0.892522   439A      0.892749   440A      0.895415  
     441A      0.899851   442A      0.905707   443A      0.910078  
     444A      0.913783   445A      0.914056   446A      0.919986  
     447A      0.920386   448A      0.924514   449A      0.929051  
     450A      0.933003   451A      0.938316   452A      0.939071  
     453A      0.941047   454A      0.941327   455A      0.944861  
     456A      0.950344   457A      0.952786   458A      0.955405  
     459A      0.960030   460A      0.964005   461A      0.964746  
     462A      0.967819   463A      0.973503   464A      0.974739  
     465A      0.977142   466A      0.978964   467A      0.981796  
     468A      0.985429   469A      0.989631   470A      0.990433  
     471A      0.992883   472A      0.997962   473A      1.001016  
     474A      1.002687   475A      1.005297   476A      1.009367  
     477A      1.013193   478A      1.016679   479A      1.023034  
     480A      1.025983   481A      1.029447   482A      1.033666  
     483A      1.035380   484A      1.038203   485A      1.042058  
     486A      1.047914   487A      1.050654   488A      1.054566  
     489A      1.059784   490A      1.061607   491A      1.066115  
     492A      1.067746   493A      1.074088   494A      1.074651  
     495A      1.082759   496A      1.083875   497A      1.089372  
     498A      1.092998   499A      1.097177   500A      1.102580  
     501A      1.107851   502A      1.109755   503A      1.116436  
     504A      1.122652   505A      1.128812   506A      1.131729  
     507A      1.138064   508A      1.142857   509A      1.151839  
     510A      1.154704   511A      1.157829   512A      1.161941  
     513A      1.165335   514A      1.168228   515A      1.171277  
     516A      1.176287   517A      1.178745   518A      1.179939  
     519A      1.184047   520A      1.191844   521A      1.197217  
     522A      1.197733   523A      1.201469   524A      1.205451  
     525A      1.211866   526A      1.213379   527A      1.218501  
     528A      1.223934   529A      1.232364   530A      1.235016  
     531A      1.236989   532A      1.240199   533A      1.242998  
     534A      1.247562   535A      1.253504   536A      1.256209  
     537A      1.258274   538A      1.262198   539A      1.265151  
     540A      1.268096   541A      1.271226   542A      1.276213  
     543A      1.285706   544A      1.287309   545A      1.293245  
     546A      1.293658   547A      1.297122   548A      1.302002  
     549A      1.308335   550A      1.312796   551A      1.318087  
     552A      1.319735   553A      1.328444   554A      1.334815  
     555A      1.339307   556A      1.346324   557A      1.351384  
     558A      1.355821   559A      1.358101   560A      1.365358  
     561A      1.373622   562A      1.379041   563A      1.388647  
     564A      1.395486   565A      1.403311   566A      1.412425  
     567A      1.415559   568A      1.426136   569A      1.433549  
     570A      1.438292   571A      1.443893   572A      1.447733  
     573A      1.455605   574A      1.458958   575A      1.466134  
     576A      1.468646   577A      1.481483   578A      1.490462  
     579A      1.497484   580A      1.503097   581A      1.510570  
     582A      1.521712   583A      1.526886   584A      1.533565  
     585A      1.534671   586A      1.545468   587A      1.547822  
     588A      1.557522   589A      1.577686   590A      1.582480  
     591A      1.597699   592A      1.605163   593A      1.616961  
     594A      1.623687   595A      1.633436   596A      1.636973  
     597A      1.640071   598A      1.649151   599A      1.661515  
     600A      1.666389   601A      1.674324   602A      1.679977  
     603A      1.691022   604A      1.699664   605A      1.713067  
     606A      1.715782   607A      1.727924   608A      1.732018  
     609A      1.746665   610A      1.749501   611A      1.753027  
     612A      1.757322   613A      1.759411   614A      1.763383  
     615A      1.769768   616A      1.774125   617A      1.783520  
     618A      1.785609   619A      1.789227   620A      1.797801  
     621A      1.802990   622A      1.808670   623A      1.813457  
     624A      1.818617   625A      1.822371   626A      1.826933  
     627A      1.828296   628A      1.831370   629A      1.838682  
     630A      1.840569   631A      1.843721   632A      1.845842  
     633A      1.853798   634A      1.859458   635A      1.861828  
     636A      1.865756   637A      1.867969   638A      1.870068  
     639A      1.871890   640A      1.878347   641A      1.884574  
     642A      1.892669   643A      1.894935   644A      1.897431  
     645A      1.901550   646A      1.908669   647A      1.913281  
     648A      1.922678   649A      1.930899   650A      1.939028  
     651A      1.942122   652A      1.946273   653A      1.950349  
     654A      1.954257   655A      1.959317   656A      1.960825  
     657A      1.967610   658A      1.970737   659A      1.973892  
     660A      1.979202   661A      1.983896   662A      1.989467  
     663A      1.996246   664A      2.000572   665A      2.004050  
     666A      2.005382   667A      2.010665   668A      2.012224  
     669A      2.012505   670A      2.018483   671A      2.025901  
     672A      2.031918   673A      2.037014   674A      2.037251  
     675A      2.046232   676A      2.051372   677A      2.057137  
     678A      2.063102   679A      2.068806   680A      2.073304  
     681A      2.075421   682A      2.078899   683A      2.082028  
     684A      2.084499   685A      2.089942   686A      2.100494  
     687A      2.102875   688A      2.110122   689A      2.117681  
     690A      2.122262   691A      2.125454   692A      2.136343  
     693A      2.146341   694A      2.154997   695A      2.161193  
     696A      2.170953   697A      2.175017   698A      2.178036  
     699A      2.183393   700A      2.184478   701A      2.195011  
     702A      2.200678   703A      2.205955   704A      2.210738  
     705A      2.216466   706A      2.227986   707A      2.229078  
     708A      2.231993   709A      2.240363   710A      2.247144  
     711A      2.254730   712A      2.256880   713A      2.259955  
     714A      2.262648   715A      2.273163   716A      2.275839  
     717A      2.278358   718A      2.281371   719A      2.292066  
     720A      2.294001   721A      2.297740   722A      2.307774  
     723A      2.308661   724A      2.318735   725A      2.322043  
     726A      2.325795   727A      2.330331   728A      2.332528  
     729A      2.342652   730A      2.347009   731A      2.351188  
     732A      2.356851   733A      2.358200   734A      2.364411  
     735A      2.375416   736A      2.384300   737A      2.395300  
     738A      2.397676   739A      2.405603   740A      2.409823  
     741A      2.414311   742A      2.421738   743A      2.423875  
     744A      2.447100   745A      2.448575   746A      2.455378  
     747A      2.462078   748A      2.470089   749A      2.479207  
     750A      2.479919   751A      2.487544   752A      2.491637  
     753A      2.500870   754A      2.506825   755A      2.517921  
     756A      2.534277   757A      2.541238   758A      2.544333  
     759A      2.548485   760A      2.563301   761A      2.570653  
     762A      2.577781   763A      2.585963   764A      2.589762  
     765A      2.599689   766A      2.604879   767A      2.626813  
     768A      2.632118   769A      2.648529   770A      2.656579  
     771A      2.658984   772A      2.673402   773A      2.685204  
     774A      2.701218   775A      2.708449   776A      2.721061  
     777A      2.721613   778A      2.739180   779A      2.749058  
     780A      2.759417   781A      2.764666   782A      2.769446  
     783A      2.783638   784A      2.794268   785A      2.807809  
     786A      2.814142   787A      2.826051   788A      2.831939  
     789A      2.837886   790A      2.843534   791A      2.851293  
     792A      2.856777   793A      2.863717   794A      2.870954  
     795A      2.874591   796A      2.888854   797A      2.893406  
     798A      2.899923   799A      2.905622   800A      2.907902  
     801A      2.912211   802A      2.921951   803A      2.940102  
     804A      2.949161   805A      2.953739   806A      2.962077  
     807A      2.964651   808A      2.971231   809A      2.973818  
     810A      2.979244   811A      2.981636   812A      2.992070  
     813A      2.995483   814A      3.003519   815A      3.005251  
     816A      3.009286   817A      3.012667   818A      3.022720  
     819A      3.028972   820A      3.038353   821A      3.039381  
     822A      3.047826   823A      3.058830   824A      3.063144  
     825A      3.065999   826A      3.070012   827A      3.074113  
     828A      3.076353   829A      3.080312   830A      3.085473  
     831A      3.096774   832A      3.098591   833A      3.103895  
     834A      3.108392   835A      3.113932   836A      3.122278  
     837A      3.127172   838A      3.131300   839A      3.136340  
     840A      3.147576   841A      3.153225   842A      3.156532  
     843A      3.161235   844A      3.167614   845A      3.177023  
     846A      3.179598   847A      3.180763   848A      3.183699  
     849A      3.187949   850A      3.199243   851A      3.201216  
     852A      3.206278   853A      3.214632   854A      3.229156  
     855A      3.231747   856A      3.242801   857A      3.243625  
     858A      3.253426   859A      3.261831   860A      3.270954  
     861A      3.272741   862A      3.278166   863A      3.285632  
     864A      3.296289   865A      3.298393   866A      3.310845  
     867A      3.315402   868A      3.321048   869A      3.325260  
     870A      3.327980   871A      3.330614   872A      3.333067  
     873A      3.339623   874A      3.350333   875A      3.352191  
     876A      3.358433   877A      3.361127   878A      3.366235  
     879A      3.375073   880A      3.380198   881A      3.390519  
     882A      3.397376   883A      3.402395   884A      3.409003  
     885A      3.413491   886A      3.420053   887A      3.426669  
     888A      3.430719   889A      3.448412   890A      3.465101  
     891A      3.474716   892A      3.482832   893A      3.524021  
     894A      3.538935   895A      3.547969   896A      3.589087  
     897A      3.607167   898A      3.613318   899A      3.620049  
     900A      3.640593   901A      3.641832   902A      3.650406  
     903A      3.653885   904A      3.663970   905A      3.679171  
     906A      3.682950   907A      3.692669   908A      3.743168  
     909A      3.764353   910A      3.766254   911A      3.775492  
     912A      3.793353   913A      3.802772   914A      3.820020  
     915A      3.827093   916A      3.845490   917A      3.861821  
     918A      3.874636   919A      3.883826   920A      3.900531  
     921A      3.919281   922A      3.931558   923A      3.943279  
     924A      3.953709   925A      3.965563   926A      3.978200  
     927A      3.982864   928A      3.988007   929A      3.988666  
     930A      4.008448   931A      4.019539   932A      4.026507  
     933A      4.052846   934A      4.063941   935A      4.084171  
     936A      4.106964   937A      4.127544   938A      4.132303  
     939A      4.142242   940A      4.157493   941A      4.168588  
     942A      4.184838   943A      4.193693   944A      4.197071  
     945A      4.209331   946A      4.215866   947A      4.225285  
     948A      4.246226   949A      4.332544   950A      4.358274  
     951A      4.359555   952A      4.388347   953A      4.417128  
     954A      4.420915   955A      4.428484   956A      4.429545  
     957A      4.438949   958A      4.449050   959A      4.466225  
     960A      4.493755   961A      4.526183   962A      4.545159  
     963A      4.556071   964A      4.578721   965A      4.584401  
     966A      4.600484   967A      4.609079   968A      4.622857  
     969A      4.667370   970A      4.736978   971A      4.764465  
     972A      4.769652   973A      4.772778   974A      4.911030  
     975A      4.933813   976A      5.009631   977A      5.045021  
     978A      5.245585   979A      5.253168   980A      5.263090  
     981A      5.279477   982A      5.294230   983A      5.306890  
     984A      5.342452   985A      5.384411   986A      5.423274  
     987A      5.567661   988A      5.691312   989A      5.722146  
     990A      5.802076   991A      5.820448   992A      5.861521  
     993A      6.367448   994A     24.806577   995A     24.825045  
     996A     24.846060   997A     24.855418   998A     24.916561  
     999A     24.931319  1000A     24.941902  1001A     25.020558  
    1002A     25.023301  1003A     25.027970  1004A     25.038278  
    1005A     25.074566  1006A     25.081931  1007A     25.099537  
    1008A     25.108169  1009A     25.131943  1010A     25.134004  
    1011A     25.136406  1012A     25.151381  1013A     25.173791  
    1014A     25.178151  1015A     25.209432  1016A     25.215879  
    1017A     25.239614  1018A     25.249905  1019A     25.251668  
    1020A     25.253531  1021A     25.321577  1022A     25.326220  
    1023A     36.957608  1024A     36.995942  1025A     37.026792  
    1026A     37.079032  1027A     37.097389  1028A     37.135871  
    1029A     37.158123  1030A     51.735308  

    Final Occupation by Irrep:
              A 
    DOCC [   131 ]

  @DF-RHF Final Energy: -1572.30337014252586

   => Energetics <=

    Nuclear Repulsion Energy =           3895.5344369630574874
    One-Electron Energy =               -9889.2637809133757401
    Two-Electron Energy =                4421.4259738077926158
    Total Energy =                      -1572.3033701425256368

Computation Completed


Properties will be evaluated at   0.000000,   0.000000,   0.000000 [a0]

Properties computed using the SCF density matrix

  Nuclear Dipole Moment: [e a0]
     X:   -33.7734      Y:   -18.7357      Z:     7.0480

  Electronic Dipole Moment: [e a0]
     X:    34.7611      Y:    17.0921      Z:    -5.8140

  Dipole Moment: [e a0]
     X:     0.9878      Y:    -1.6436      Z:     1.2340     Total:     2.2804

  Dipole Moment: [D]
     X:     2.5107      Y:    -4.1777      Z:     3.1366     Total:     5.7961


*** tstop() called on node35.bme.utexas.edu at Tue Mar 10 10:41:50 2020
Module time:
	user time   =    6056.60 seconds =     100.94 minutes
	system time =     206.71 seconds =       3.45 minutes
	total time  =       1223 seconds =      20.38 minutes
Total time:
	user time   =    6056.60 seconds =     100.94 minutes
	system time =     206.71 seconds =       3.45 minutes
	total time  =       1223 seconds =      20.38 minutes

*** tstart() called on node35.bme.utexas.edu
*** at Tue Mar 10 10:41:50 2020


  //>>>>>>>>>>>>>>>>>>>>>>>>>>>>>>>>>>>//
  //               DFMP2               //
  //<<<<<<<<<<<<<<<<<<<<<<<<<<<<<<<<<<<//

   => Loading Basis Set <=

    Name: (6-311++G** AUX)
    Role: RIFIT
    Keyword: DF_BASIS_MP2
    atoms 1-4, 6-9, 11, 14-19, 21-28, 30-31, 33-35, 37 entry C          line   148 file /home/bdw2292/miniconda3/envs/p4env/share/psi4/basis/aug-cc-pvtz-ri.gbs 
    atoms 5, 10, 12-13, 20, 29, 32                     entry N          line   206 file /home/bdw2292/miniconda3/envs/p4env/share/psi4/basis/aug-cc-pvtz-ri.gbs 
    atoms 36                                           entry O          line   264 file /home/bdw2292/miniconda3/envs/p4env/share/psi4/basis/aug-cc-pvtz-ri.gbs 
    atoms 38-68                                        entry H          line    30 file /home/bdw2292/miniconda3/envs/p4env/share/psi4/basis/aug-cc-pvtz-ri.gbs 

	 --------------------------------------------------------
	                          DF-MP2                         
	      2nd-Order Density-Fitted Moller-Plesset Theory     
	              RMP2 Wavefunction,   6 Threads             
	                                                         
	        Rob Parrish, Justin Turney, Andy Simmonett,      
	           Ed Hohenstein, and C. David Sherrill          
	 --------------------------------------------------------

   => Auxiliary Basis Set <=

  Basis Set: (6-311++G** AUX)
    Blend: AUG-CC-PVTZ-RI
    Number of shells: 1470
    Number of basis function: 5348
    Number of Cartesian functions: 6737
    Spherical Harmonics?: true
    Max angular momentum: 4

	 --------------------------------------------------------
	                 NBF =  1031, NAUX =  5348
	 --------------------------------------------------------
	   CLASS    FOCC     OCC    AOCC    AVIR     VIR    FVIR
	   PAIRS      37     131      94     899     899       0
	 --------------------------------------------------------

	-----------------------------------------------------------
	 ==================> DF-MP2 Energies <==================== 
	-----------------------------------------------------------
	 Reference Energy          =   -1572.3033701425258641 [Eh]
	 Singles Energy            =      -0.0000000000000000 [Eh]
	 Same-Spin Energy          =      -1.4741176507366536 [Eh]
	 Opposite-Spin Energy      =      -4.0534144838328654 [Eh]
	 Correlation Energy        =      -5.5275321345695190 [Eh]
	 Total Energy              =   -1577.8309022770954471 [Eh]
	-----------------------------------------------------------
	 ================> DF-SCS-MP2 Energies <================== 
	-----------------------------------------------------------
	 SCS Same-Spin Scale       =       0.3333333333333333 [-]
	 SCS Opposite-Spin Scale   =       1.2000000000000000 [-]
	 SCS Same-Spin Energy      =      -0.4913725502455512 [Eh]
	 SCS Opposite-Spin Energy  =      -4.8640973805994383 [Eh]
	 SCS Correlation Energy    =      -5.3554699308449898 [Eh]
	 SCS Total Energy          =   -1577.6588400733708113 [Eh]
	-----------------------------------------------------------


*** tstop() called on node35.bme.utexas.edu at Tue Mar 10 10:52:34 2020
Module time:
	user time   =    3624.79 seconds =      60.41 minutes
	system time =      38.88 seconds =       0.65 minutes
	total time  =        644 seconds =      10.73 minutes
Total time:
	user time   =    9681.40 seconds =     161.36 minutes
	system time =     245.59 seconds =       4.09 minutes
	total time  =       1867 seconds =      31.12 minutes


Properties will be evaluated at   0.000000,   0.000000,   0.000000 [a0]
OEProp: No title given, name of density matrix used for the following properties is 'SCF density'


  Wiberg Bond Indices using Orthogonal Lowdin Orbitals:

  Irrep: 1 Size: 68 x 68

                 1                   2                   3                   4                   5

    1     0.00000000000000     1.46757979296273     0.12482787668064     0.14042489547387     0.12441581528921
    2     1.46757979296273     0.00000000000000     1.39918869400960     0.12786134763633     0.12226411378695
    3     0.12482787668064     1.39918869400960     0.00000000000000     1.36239575984806     0.12015448537254
    4     0.14042489547387     0.12786134763633     1.36239575984806     0.00000000000000     1.67022540184257
    5     0.12441581528921     0.12226411378695     0.12015448537254     1.67022540184257     0.00000000000000
    6     1.46397146581669     0.13794891711353     0.13552197608060     0.15394130724958     1.63468082355859
    7     0.01469993980112     0.10332598521918     1.02254743728267     0.10356587191327     0.01398605416937
    8     0.00364859303168     0.04222806892661     0.09852352912879     0.02391004710861     0.00220922804923
    9     0.00037143130580     0.00483976066466     0.01490229859168     0.00414002840853     0.00070692438681
   10     0.00041598781989     0.00541904196687     0.00579431061001     0.00610508632013     0.00032351756942
   11     0.00089719118923     0.00337387524480     0.01817830178211     0.00684151939681     0.00043077572935
   12     0.00280250403946     0.02201309537149     0.11922974423188     0.06181413773210     0.00400893536871
   13     0.00017067676510     0.00048115378809     0.00164354510811     0.00088318239068     0.00008533391410
   14     0.00002934891358     0.00009192405979     0.00053391035254     0.00114389526105     0.00008505211494
   15     0.00001130082408     0.00002216444690     0.00006722959278     0.00013850276713     0.00001858246709
   16     0.00000185948907     0.00000477968303     0.00003798700792     0.00020236358030     0.00000945336750
   17     0.00001227084492     0.00001768175139     0.00004760376390     0.00024691346874     0.00003419311363
   18     0.00002514393017     0.00004973971546     0.00024213123950     0.00129867267830     0.00017201976177
   19     0.00013205806053     0.00023665510695     0.00174564963215     0.00946479260195     0.00050323424039
   20     0.00003843519470     0.00005256304567     0.00020613295809     0.00189208605732     0.00025348918697
   21     0.00001828593970     0.00001629162862     0.00002938395974     0.00020349479234     0.00009056267417
   22     0.00000518560304     0.00000322116151     0.00001549087065     0.00010189466444     0.00002153779168
   23     0.00007512960410     0.00004638839858     0.00003225858913     0.00025357239139     0.00007394845671
   24     0.00000287961527     0.00000648934747     0.00001543328814     0.00005926749042     0.00001048767316
   25     0.00000082140527     0.00000041067090     0.00000247241810     0.00002068443922     0.00000336246599
   26     0.00000047734985     0.00000044433589     0.00000201892927     0.00001101832224     0.00000180923405
   27     0.00000103087066     0.00000166137459     0.00000385005418     0.00002956256674     0.00000743357840
   28     0.00000011168216     0.00000018638823     0.00000052727566     0.00000197069588     0.00000062667379
   29     0.00000005718333     0.00000008621784     0.00000029701651     0.00000135217081     0.00000014884666
   30     0.00000014732079     0.00000013380760     0.00000067578452     0.00000208761594     0.00000027203014
   31     0.00000057268204     0.00000098081925     0.00000432598652     0.00000568860642     0.00000187775160
   32     0.00000008926405     0.00000026160722     0.00000158694155     0.00000261638278     0.00000102847708
   33     0.00000006236997     0.00000010850094     0.00000061041486     0.00000068375259     0.00000014741668
   34     0.00000008883324     0.00000019560048     0.00000110805048     0.00000445824235     0.00000106316089
   35     0.00000002885256     0.00000004401243     0.00000027995359     0.00000097709309     0.00000019888200
   36     0.00000169198456     0.00000282087263     0.00001250891412     0.00014460136687     0.00004784887427
   37     0.00000211144005     0.00000777909668     0.00003295821710     0.00003451954644     0.00000307735799
   38     0.88649337082882     0.07938125600045     0.01178850604858     0.00637113537362     0.01071768507683
   39     0.07799584506212     0.87065527400151     0.07257227034482     0.01167149131480     0.00392531011394
   40     0.00574014651517     0.01074873266482     0.07006913088492     0.85307087525980     0.08693084402293
   41     0.07744257636743     0.01188975234328     0.00607516206074     0.01578450656682     0.08748552859114
   42     0.00113686463463     0.01464580225971     0.01440772873481     0.00137626109133     0.00029970847337
   43     0.00004487423783     0.00028838717859     0.00144947829613     0.00031487755366     0.00007984938974
   44     0.00002550505144     0.00008310387628     0.00035072674743     0.00008675104372     0.00000765475924
   45     0.00000029758432     0.00000083739997     0.00000602476472     0.00001807323835     0.00000119218665
   46     0.00000087537596     0.00000142600846     0.00000608313644     0.00002906358094     0.00001012337470
   47     0.00010842495660     0.00019915416574     0.00178205984044     0.00718399784697     0.00052513859064
   48     0.00004053286935     0.00004677243225     0.00009782604713     0.00109941089475     0.00035798235652
   49     0.00007800290175     0.00002849327244     0.00003584244107     0.00025635185825     0.00009848586438
   50     0.00000154914013     0.00000217500057     0.00000491087344     0.00001048149395     0.00000079011985
   51     0.00000003424042     0.00000005660313     0.00000041876610     0.00000323092488     0.00000022169156
   52     0.00000019016610     0.00000018211485     0.00000034985011     0.00000315222136     0.00000156053071
   53     0.00000003406548     0.00000002404740     0.00000006188843     0.00000017857611     0.00000005735939
   54     0.00000001916698     0.00000001105256     0.00000006649582     0.00000042099030     0.00000009736092
   55     0.00000003283705     0.00000001668034     0.00000019546888     0.00000033769300     0.00000004170640
   56     0.00000001281412     0.00000004990493     0.00000016393720     0.00000091714867     0.00000005202797
   57     0.00000009922979     0.00000142976977     0.00000130682054     0.00000103124067     0.00000026640586
   58     0.00000062759188     0.00000075279659     0.00000390271097     0.00000395060268     0.00000164198030
   59     0.00000000389470     0.00000001210228     0.00000006474164     0.00000015034765     0.00000001648027
   60     0.00000006893929     0.00000010167116     0.00000047931910     0.00000035143382     0.00000005351023
   61     0.00000000354218     0.00000000681017     0.00000004672344     0.00000005090624     0.00000001386169
   62     0.00000000534503     0.00000001492490     0.00000012039048     0.00000050184280     0.00000007638806
   63     0.00000013523632     0.00000012723994     0.00000069156217     0.00000322018365     0.00000107974888
   64     0.00000000587355     0.00000001145288     0.00000013029627     0.00000075537430     0.00000015455919
   65     0.00000000912003     0.00000000684973     0.00000004267743     0.00000027148526     0.00000004763656
   66     0.00000081138636     0.00000179447025     0.00001059883747     0.00000810399093     0.00000071189727
   67     0.00000129667530     0.00000315534374     0.00001174015197     0.00001010509806     0.00000095010503
   68     0.00000024328623     0.00000086361391     0.00000430287030     0.00000715784977     0.00000057729711

                 6                   7                   8                   9                  10

    1     1.46397146581669     0.01469993980112     0.00364859303168     0.00037143130580     0.00041598781989
    2     0.13794891711353     0.10332598521918     0.04222806892661     0.00483976066466     0.00541904196687
    3     0.13552197608060     1.02254743728267     0.09852352912879     0.01490229859168     0.00579431061001
    4     0.15394130724958     0.10356587191327     0.02391004710861     0.00414002840853     0.00610508632013
    5     1.63468082355859     0.01398605416937     0.00220922804923     0.00070692438681     0.00032351756942
    6     0.00000000000000     0.00984653250994     0.00688278299322     0.00125775291244     0.00340811342288
    7     0.00984653250994     0.00000000000000     1.38752413118929     0.14698070863930     0.11218389865304
    8     0.00688278299322     1.38752413118929     0.00000000000000     1.43357182963225     0.13151860784124
    9     0.00125775291244     0.14698070863930     1.43357182963225     0.00000000000000     1.66344768429322
   10     0.00340811342288     0.11218389865304     0.13151860784124     1.66344768429322     0.00000000000000
   11     0.00086055996711     0.14243478539803     0.11304626910216     0.15243253962992     1.50349227590476
   12     0.00602497544319     1.52808472283550     0.12500165058237     0.11007395697740     0.10948304605985
   13     0.00007235741241     0.01928493496845     0.02041848516283     0.02442917131014     0.16137760050521
   14     0.00003737278590     0.00280591483016     0.00251731926747     0.00329233511734     0.01732865812613
   15     0.00000454719734     0.00049394709191     0.00145784480984     0.00095036604959     0.00318948551739
   16     0.00000289242433     0.00014669334693     0.00021060769924     0.00015437939087     0.00049283042785
   17     0.00000588232797     0.00024428992460     0.00131825670793     0.00044425528437     0.00130404361176
   18     0.00003897524618     0.00048493265266     0.00025433233287     0.00014377876984     0.00042422737773
   19     0.00017072007471     0.00524218577246     0.00305143943162     0.00152426202681     0.00429652476593
   20     0.00004187412265     0.00011096931126     0.00002781510168     0.00001557456983     0.00005763677414
   21     0.00001476657288     0.00001584015898     0.00001156155392     0.00000494845088     0.00001959220797
   22     0.00000796057810     0.00001385560163     0.00001371253236     0.00000458725885     0.00001869090058
   23     0.00002316049557     0.00003089708790     0.00006741858602     0.00001549297414     0.00002402971837
   24     0.00000344151153     0.00001684580062     0.00001492267626     0.00000419014586     0.00000691494518
   25     0.00000108879390     0.00000309029495     0.00000249139841     0.00000068933152     0.00000257685561
   26     0.00000076827301     0.00000283782583     0.00000498927196     0.00000102499017     0.00000405406945
   27     0.00000205330297     0.00000391580520     0.00000904397805     0.00000218714212     0.00000819309977
   28     0.00000015237362     0.00000064245885     0.00000030791515     0.00000025543945     0.00000055727536
   29     0.00000005846954     0.00000069807465     0.00000044038717     0.00000125734540     0.00000206377389
   30     0.00000019422515     0.00000291224860     0.00000162420418     0.00000311121900     0.00001104425414
   31     0.00000109654722     0.00002444861100     0.00001065924544     0.00002038410012     0.00007155300423
   32     0.00000032725389     0.00000471285560     0.00000743711189     0.00000577092522     0.00001573795962
   33     0.00000008570506     0.00000199259722     0.00000358220035     0.00000257372678     0.00001070996216
   34     0.00000033765269     0.00000171718573     0.00000142677798     0.00000145845962     0.00000349961166
   35     0.00000006881558     0.00000051852875     0.00000040186064     0.00000053889665     0.00000158980908
   36     0.00000606978016     0.00000623941333     0.00000223884314     0.00000149730016     0.00000414297170
   37     0.00000183960154     0.00014875250479     0.00013875039470     0.00014532922102     0.00082553692624
   38     0.08234644412245     0.00130013482130     0.00025434075945     0.00003955047357     0.00002611293823
   39     0.01163574888243     0.01612373369838     0.01527401346776     0.00119428314729     0.00040218424835
   40     0.01474245629971     0.01588396960249     0.00168984021759     0.00039912796008     0.00062282674298
   41     0.87969936074294     0.00054901184616     0.00027133501844     0.00005413596833     0.00010479569013
   42     0.00049778350902     0.07542104114693     0.87581919349570     0.08065092699907     0.01046212613056
   43     0.00004456879613     0.01179058667866     0.07638312043719     0.87518947312339     0.08912383306375
   44     0.00001174321775     0.00207306957516     0.00203512236478     0.00380205977468     0.03250460931801
   45     0.00000038321356     0.00001809223251     0.00000706800848     0.00002305913333     0.00005118835017
   46     0.00000141821039     0.00002286771748     0.00004499113389     0.00001759010018     0.00005719851114
   47     0.00019765143877     0.00376471992564     0.00083942112411     0.00039972360544     0.00072520262601
   48     0.00004418485204     0.00003690618863     0.00001260343746     0.00000548830485     0.00001197541719
   49     0.00001491521812     0.00001644135852     0.00003282138033     0.00001521760162     0.00000687418963
   50     0.00000102090753     0.00000736502019     0.00000668836693     0.00000301047242     0.00000177956856
   51     0.00000009981349     0.00000033067238     0.00000025776958     0.00000003952638     0.00000018112298
   52     0.00000053888409     0.00000043440923     0.00000140348549     0.00000024934301     0.00000117696359
   53     0.00000003126941     0.00000007289187     0.00000011231496     0.00000010101735     0.00000011370129
   54     0.00000001676888     0.00000005509605     0.00000003662911     0.00000005963219     0.00000016374129
   55     0.00000004663291     0.00000088594113     0.00000088270500     0.00000107359660     0.00000106392815
   56     0.00000004566005     0.00000074862351     0.00000015642332     0.00000059440108     0.00000308688787
   57     0.00000077215876     0.00001982951338     0.00000850026214     0.00000732293415     0.00002589558237
   58     0.00000169420494     0.00000900567624     0.00000797600680     0.00001185685245     0.00001696478782
   59     0.00000000833690     0.00000018617323     0.00000012191510     0.00000015831974     0.00000045909916
   60     0.00000008802249     0.00000117245059     0.00000143950114     0.00000138348024     0.00000415248447
   61     0.00000000595855     0.00000008974880     0.00000012415888     0.00000014590705     0.00000040157349
   62     0.00000002228607     0.00000018870407     0.00000012738889     0.00000015492891     0.00000047023651
   63     0.00000028922675     0.00000077893557     0.00000216466295     0.00000079596877     0.00000296954939
   64     0.00000003438285     0.00000016146170     0.00000021823196     0.00000024298524     0.00000087506285
   65     0.00000002316922     0.00000015123367     0.00000005696919     0.00000010979083     0.00000017408496
   66     0.00000049349430     0.00004016977663     0.00007328451970     0.00004305018500     0.00024837148948
   67     0.00000155492806     0.00005246981288     0.00011781555234     0.00005082590862     0.00040660413000
   68     0.00000015124534     0.00001496335658     0.00000773481422     0.00000535610717     0.00003860265420

                11                  12                  13                  14                  15

    1     0.00089719118923     0.00280250403946     0.00017067676510     0.00002934891358     0.00001130082408
    2     0.00337387524480     0.02201309537149     0.00048115378809     0.00009192405979     0.00002216444690
    3     0.01817830178211     0.11922974423188     0.00164354510811     0.00053391035254     0.00006722959278
    4     0.00684151939681     0.06181413773210     0.00088318239068     0.00114389526105     0.00013850276713
    5     0.00043077572935     0.00400893536871     0.00008533391410     0.00008505211494     0.00001858246709
    6     0.00086055996711     0.00602497544319     0.00007235741241     0.00003737278590     0.00000454719734
    7     0.14243478539803     1.52808472283550     0.01928493496845     0.00280591483016     0.00049394709191
    8     0.11304626910216     0.12500165058237     0.02041848516283     0.00251731926747     0.00145784480984
    9     0.15243253962992     0.11007395697740     0.02442917131014     0.00329233511734     0.00095036604959
   10     1.50349227590476     0.10948304605985     0.16137760050521     0.01732865812613     0.00318948551739
   11     0.00000000000000     1.53816691378685     1.27001758080510     0.08266264721177     0.01798361334805
   12     1.53816691378685     0.00000000000000     0.14202219531270     0.02895813470922     0.00345286367770
   13     1.27001758080510     0.14202219531270     0.00000000000000     1.12983666477188     0.10798087775271
   14     0.08266264721177     0.02895813470922     1.12983666477188     0.00000000000000     1.30902817343372
   15     0.01798361334805     0.00345286367770     0.10798087775271     1.30902817343372     0.00000000000000
   16     0.00239920867736     0.00105906011216     0.01489610587306     0.12655633180319     1.44366747694532
   17     0.00411802627265     0.00248109490089     0.01236591835165     0.11993694136560     0.12468994602958
   18     0.00243714893254     0.00434203382055     0.01372432695308     0.12537362942669     0.12207593020459
   19     0.02808372457945     0.05162175674352     0.11119575872180     1.39925633198836     0.12013321883198
   20     0.00033652326953     0.00104294711620     0.00138861350554     0.01579521235108     0.01083025513397
   21     0.00007242899740     0.00010556375034     0.00032300517763     0.00287553695635     0.00376530832458
   22     0.00005454216811     0.00007411371867     0.00018945485661     0.00162621082146     0.00132030662638
   23     0.00006576484404     0.00019178888072     0.00026744594129     0.00207433049792     0.00063784945462
   24     0.00003183609824     0.00005209534243     0.00008750528125     0.00057706429551     0.00019981841029
   25     0.00001345592496     0.00001026469986     0.00002254027175     0.00017997897795     0.00022376385512
   26     0.00001582561233     0.00001298763085     0.00003698399552     0.00046605756721     0.00025130282763
   27     0.00002303829053     0.00002016144659     0.00007905951905     0.00055054598841     0.00064663995423
   28     0.00000337459932     0.00000121047615     0.00000402775993     0.00001891345972     0.00002005149498
   29     0.00003334527860     0.00000222990317     0.00003719531211     0.00004815444712     0.00004304132793
   30     0.00010850367556     0.00000815509118     0.00012810851800     0.00028729011720     0.00017910215383
   31     0.00031875078458     0.00009353341689     0.00075489076272     0.00231517830521     0.00133905056282
   32     0.00012026348579     0.00002467193556     0.00024072149656     0.00185434063858     0.00562013619915
   33     0.00002748531727     0.00001340397429     0.00009421456942     0.00016293150693     0.00058265712436
   34     0.00002767836871     0.00000784183109     0.00007290477837     0.00031108374551     0.00162731498477
   35     0.00000571861738     0.00000117532641     0.00001772464445     0.00007331243807     0.00015700671825
   36     0.00001566413573     0.00002167574092     0.00007663315769     0.00057983082936     0.00117313817812
   37     0.00381108118494     0.00080406033154     0.03897041104781     0.09655059842589     1.05902702180726
   38     0.00009117510458     0.00031574660623     0.00001611984070     0.00000678971985     0.00000079519682
   39     0.00028901601280     0.00108736152864     0.00006731391582     0.00002530927851     0.00000402194351
   40     0.00279088957251     0.02569635251532     0.00038799475179     0.00111107205447     0.00014989597820
   41     0.00004423219936     0.00025269306851     0.00000546400998     0.00000384049441     0.00000055862645
   42     0.00573814282622     0.01060358529503     0.00103549451731     0.00012083120133     0.00006455633396
   43     0.01582834597813     0.00396433347366     0.00135810038706     0.00038797473509     0.00006245821551
   44     0.07384558949252     0.01152416106682     0.93129031891439     0.06032746433976     0.01574541159466
   45     0.00037019302270     0.00005836948269     0.00115338108298     0.01158691387770     0.07547823968523
   46     0.00015780413087     0.00015419709864     0.00056488501724     0.00550087347621     0.01089126376621
   47     0.00942681693676     0.03361382189936     0.01581208891099     0.07306932179627     0.00981009336698
   48     0.00007406439155     0.00024967667235     0.00017243004988     0.00173481237320     0.00290147505768
   49     0.00002539256608     0.00011566971914     0.00007603255192     0.00050834495088     0.00012948597358
   50     0.00001226019977     0.00001816581147     0.00001269145432     0.00004636491600     0.00002232517181
   51     0.00000091570853     0.00000099076896     0.00000219212557     0.00001823718734     0.00002362349955
   52     0.00000300101324     0.00000249830639     0.00001217107744     0.00006976793986     0.00009230279542
   53     0.00000039135061     0.00000021964148     0.00000069950436     0.00000239622630     0.00000402478209
   54     0.00000128142499     0.00000017540740     0.00000078584562     0.00000512568536     0.00000441224449
   55     0.00000919939739     0.00000158946084     0.00000384164416     0.00001777275410     0.00001085054941
   56     0.00002023989376     0.00000342999646     0.00002610621887     0.00016413877546     0.00012119274901
   57     0.00021629524386     0.00003073594605     0.00025162346651     0.00018905450497     0.00005805361579
   58     0.00004916220315     0.00002526525041     0.00016042494622     0.00125853211368     0.00038245628168
   59     0.00000189541650     0.00000031266124     0.00000450127735     0.00004550788221     0.00007647401605
   60     0.00001145960735     0.00000731085182     0.00006023717293     0.00004154700793     0.00008650903049
   61     0.00000135954234     0.00000030664618     0.00000283700096     0.00003114128959     0.00006141662488
   62     0.00000127405361     0.00000055284758     0.00000719026106     0.00002968517553     0.00011714243645
   63     0.00000721882141     0.00000426688959     0.00003377824757     0.00018101915518     0.00058105484681
   64     0.00000316136672     0.00000034888732     0.00000734679558     0.00005584967396     0.00013051630726
   65     0.00000287518382     0.00000016273082     0.00000169943747     0.00000519052759     0.00000995060229
   66     0.00066994899067     0.00024133537568     0.00797128446547     0.01681664436356     0.05893849612870
   67     0.00117651151789     0.00033932203878     0.01218528680579     0.01665978323819     0.05839906837786
   68     0.00024857120753     0.00006787920156     0.00206232435108     0.00902792075288     0.05972690336150

                16                  17                  18                  19                  20

    1     0.00000185948907     0.00001227084492     0.00002514393017     0.00013205806053     0.00003843519470
    2     0.00000477968303     0.00001768175139     0.00004973971546     0.00023665510695     0.00005256304567
    3     0.00003798700792     0.00004760376390     0.00024213123950     0.00174564963215     0.00020613295809
    4     0.00020236358030     0.00024691346874     0.00129867267830     0.00946479260195     0.00189208605732
    5     0.00000945336750     0.00003419311363     0.00017201976177     0.00050323424039     0.00025348918697
    6     0.00000289242433     0.00000588232797     0.00003897524618     0.00017072007471     0.00004187412265
    7     0.00014669334693     0.00024428992460     0.00048493265266     0.00524218577246     0.00011096931126
    8     0.00021060769924     0.00131825670793     0.00025433233287     0.00305143943162     0.00002781510168
    9     0.00015437939087     0.00044425528437     0.00014377876984     0.00152426202681     0.00001557456983
   10     0.00049283042785     0.00130404361176     0.00042422737773     0.00429652476593     0.00005763677414
   11     0.00239920867736     0.00411802627265     0.00243714893254     0.02808372457945     0.00033652326953
   12     0.00105906011216     0.00248109490089     0.00434203382055     0.05162175674352     0.00104294711620
   13     0.01489610587306     0.01236591835165     0.01372432695308     0.11119575872180     0.00138861350554
   14     0.12655633180319     0.11993694136560     0.12537362942669     1.39925633198836     0.01579521235108
   15     1.44366747694532     0.12468994602958     0.12207593020459     0.12013321883198     0.01083025513397
   16     0.00000000000000     1.43581161372348     0.13304855662417     0.12592386975529     0.01416475551448
   17     1.43581161372348     0.00000000000000     1.40030305411666     0.12327709495783     0.11167877941265
   18     0.13304855662417     1.40030305411666     0.00000000000000     1.36371198826610     1.13543807256136
   19     0.12592386975529     0.12327709495783     1.36371198826610     0.00000000000000     0.13059229659429
   20     0.01416475551448     0.11167877941265     1.13543807256136     0.13059229659429     0.00000000000000
   21     0.00331772749172     0.03187041280753     0.09463675028140     0.01996665136628     1.25296961595106
   22     0.00237110544174     0.01729128058978     0.02955139826998     0.00944954268548     0.11658819521712
   23     0.00124422676118     0.00658628644991     0.01865528887737     0.01372192684669     0.04300739400074
   24     0.00033603484208     0.00111521920845     0.00332838511950     0.00273947806191     0.00440987075923
   25     0.00029394802245     0.00086309073462     0.00143257148763     0.00052331342266     0.00223890998011
   26     0.00029454614875     0.00145778748648     0.00172069694188     0.00079809161002     0.00252783823650
   27     0.00113353201450     0.00855877200583     0.00756264072082     0.00172858837502     0.01738236179105
   28     0.00003209326689     0.00008689986511     0.00012436434225     0.00005299542570     0.00018245492316
   29     0.00005436091356     0.00006840146673     0.00006565934112     0.00003571884336     0.00008996241053
   30     0.00009765179479     0.00007806353692     0.00013680791081     0.00026426431088     0.00002907383014
   31     0.00047541834134     0.00026637494576     0.00058092279783     0.00170660794733     0.00012220643768
   32     0.00283483182911     0.00062016810175     0.00042914607915     0.00038823706964     0.00006143957538
   33     0.00028664135461     0.00010344712698     0.00010225665907     0.00008355234052     0.00001221004169
   34     0.00439773888690     0.00416525055748     0.00113768245022     0.00047067973799     0.00007717693968
   35     0.00040312821445     0.00045237564470     0.00017213502349     0.00005988521373     0.00004067747365
   36     0.00059202698108     0.00770654253743     0.02444033803269     0.00400729587632     0.18156236497311
   37     0.11726845763391     0.01485631485182     0.00752074706510     0.01409622356184     0.00066071756491
   38     0.00000027715895     0.00000068219212     0.00000397779615     0.00002167880369     0.00000362217311
   39     0.00000135886626     0.00000172311560     0.00000488664360     0.00003368721726     0.00000417419068
   40     0.00018170706421     0.00020081483744     0.00129992890713     0.00788888534935     0.00133080467982
   41     0.00000034037900     0.00000061828185     0.00000225558909     0.00001265141876     0.00000357494423
   42     0.00001119143921     0.00004665874464     0.00002801947506     0.00019005209938     0.00000618543758
   43     0.00001582807906     0.00001092007106     0.00001483813295     0.00010183414751     0.00000147607348
   44     0.00168625089454     0.00109806699321     0.00136132998756     0.01062618963584     0.00026572304472
   45     0.86898587194824     0.07981535586835     0.01180515082926     0.00582069786239     0.00111200850809
   46     0.07758382310672     0.86585664213343     0.07643876668319     0.01149934434940     0.01695420358022
   47     0.00559187671576     0.01021942717049     0.07070490972605     0.83565419628171     0.02470648937604
   48     0.00146908319606     0.01432921873772     0.06281982155223     0.01886989774151     0.93455810226821
   49     0.00025060397647     0.00105096085156     0.00615718698983     0.00562901796426     0.01501655734220
   50     0.00003112155949     0.00004263276309     0.00019172807032     0.00020508541738     0.00024905296925
   51     0.00002403857360     0.00009259490897     0.00009418027320     0.00003820564721     0.00035013542452
   52     0.00008940312208     0.00139706197629     0.00089172728095     0.00010170813819     0.00165747285702
   53     0.00000308794285     0.00000681736578     0.00001656574532     0.00000809331869     0.00003368142213
   54     0.00000413133560     0.00001004555303     0.00001767247339     0.00000959618501     0.00003923690558
   55     0.00000749729096     0.00000647414190     0.00001057799465     0.00002366122567     0.00000478410433
   56     0.00007071249758     0.00005123896995     0.00009647909687     0.00019476994872     0.00000413394557
   57     0.00003120484574     0.00001755927156     0.00002736634237     0.00003633511401     0.00000384345997
   58     0.00015980339730     0.00020103115626     0.00052656300440     0.00148799627923     0.00011588370509
   59     0.00005751715532     0.00002462760787     0.00001628683691     0.00001789815139     0.00000256250830
   60     0.00004483817834     0.00000821786651     0.00000931443341     0.00001080935581     0.00000195525183
   61     0.00002999692981     0.00001250542997     0.00000559532972     0.00001213761569     0.00000086842330
   62     0.00032949013603     0.00017330464151     0.00005981947858     0.00008040185875     0.00000402680575
   63     0.00296202076323     0.00417395686567     0.00117984054411     0.00026881560700     0.00013516964086
   64     0.00035329336178     0.00045299791983     0.00015866938649     0.00004244286232     0.00000636880112
   65     0.00003178203603     0.00004881284631     0.00001566328624     0.00000399495031     0.00001189232608
   66     0.01689249633823     0.00137101807059     0.00322481967541     0.00136069164724     0.00033136085477
   67     0.01401248995580     0.00128298407509     0.00252061586258     0.00124933120242     0.00030112220257
   68     0.02435020664159     0.00198583782172     0.00065197249362     0.00110265394801     0.00009752183511

                21                  22                  23                  24                  25

    1     0.00001828593970     0.00000518560304     0.00007512960410     0.00000287961527     0.00000082140527
    2     0.00001629162862     0.00000322116151     0.00004638839858     0.00000648934747     0.00000041067090
    3     0.00002938395974     0.00001549087065     0.00003225858913     0.00001543328814     0.00000247241810
    4     0.00020349479234     0.00010189466444     0.00025357239139     0.00005926749042     0.00002068443922
    5     0.00009056267417     0.00002153779168     0.00007394845671     0.00001048767316     0.00000336246599
    6     0.00001476657288     0.00000796057810     0.00002316049557     0.00000344151153     0.00000108879390
    7     0.00001584015898     0.00001385560163     0.00003089708790     0.00001684580062     0.00000309029495
    8     0.00001156155392     0.00001371253236     0.00006741858602     0.00001492267626     0.00000249139841
    9     0.00000494845088     0.00000458725885     0.00001549297414     0.00000419014586     0.00000068933152
   10     0.00001959220797     0.00001869090058     0.00002402971837     0.00000691494518     0.00000257685561
   11     0.00007242899740     0.00005454216811     0.00006576484404     0.00003183609824     0.00001345592496
   12     0.00010556375034     0.00007411371867     0.00019178888072     0.00005209534243     0.00001026469986
   13     0.00032300517763     0.00018945485661     0.00026744594129     0.00008750528125     0.00002254027175
   14     0.00287553695635     0.00162621082146     0.00207433049792     0.00057706429551     0.00017997897795
   15     0.00376530832458     0.00132030662638     0.00063784945462     0.00019981841029     0.00022376385512
   16     0.00331772749172     0.00237110544174     0.00124422676118     0.00033603484208     0.00029394802245
   17     0.03187041280753     0.01729128058978     0.00658628644991     0.00111521920845     0.00086309073462
   18     0.09463675028140     0.02955139826998     0.01865528887737     0.00332838511950     0.00143257148763
   19     0.01996665136628     0.00944954268548     0.01372192684669     0.00273947806191     0.00052331342266
   20     1.25296961595106     0.11658819521712     0.04300739400074     0.00440987075923     0.00223890998011
   21     0.00000000000000     0.96995516048580     0.10574000847508     0.01450695363729     0.01194534312660
   22     0.96995516048580     0.00000000000000     1.38078091832169     0.12781746185403     0.12417847352306
   23     0.10574000847508     1.38078091832169     0.00000000000000     1.46470139517801     0.12776075290205
   24     0.01450695363729     0.12781746185403     1.46470139517801     0.00000000000000     1.39444406613592
   25     0.01194534312660     0.12417847352306     0.12776075290205     1.39444406613592     0.00000000000000
   26     0.01501375035009     0.12856210725095     0.13024581975588     0.12530986749776     1.40061678549138
   27     0.11262064218054     1.39316551090576     0.12349843381343     0.12990134831300     0.12692905548109
   28     0.00078395147337     0.00933865021015     0.01476773406193     0.10881589729676     1.01759607111690
   29     0.00043832664016     0.00460085141228     0.00228277251708     0.02353008898964     0.08931599794798
   30     0.00010087371842     0.00096774265543     0.00200213376996     0.01553497879161     0.01944308956102
   31     0.00008458134531     0.00145308535317     0.00901574197110     0.02320081842086     0.01482364329811
   32     0.00009248012262     0.00072116722085     0.00098354810658     0.00283762895204     0.00381847543184
   33     0.00001465253141     0.00014006287040     0.00024405051288     0.00066741678159     0.00102924934491
   34     0.00025393474921     0.00392660930871     0.00320468829708     0.00814525571164     0.02219510001626
   35     0.00014267171997     0.00123757574084     0.00121945810428     0.00559779544696     0.02309250032522
   36     2.26885604502551     0.13736748947663     0.02606615822301     0.00285611433234     0.00695766350841
[...]
   15     0.00012119274901     0.00005805361579     0.00038245628168     0.00007647401605     0.00008650903049
   16     0.00007071249758     0.00003120484574     0.00015980339730     0.00005751715532     0.00004483817834
   17     0.00005123896995     0.00001755927156     0.00020103115626     0.00002462760787     0.00000821786651
   18     0.00009647909687     0.00002736634237     0.00052656300440     0.00001628683691     0.00000931443341
   19     0.00019476994872     0.00003633511401     0.00148799627923     0.00001789815139     0.00001080935581
   20     0.00000413394557     0.00000384345997     0.00011588370509     0.00000256250830     0.00000195525183
   21     0.00002366592236     0.00000605104491     0.00009173918305     0.00000219734221     0.00000088559505
   22     0.00020704070408     0.00008789111883     0.00124410152931     0.00001433904777     0.00001201539292
   23     0.00027903769144     0.00021269352509     0.00750201262866     0.00002464016647     0.00002635010412
   24     0.00076090259027     0.00075934753794     0.01802672299367     0.00008802507807     0.00007518632322
   25     0.00152549620063     0.00053358345480     0.00817640945503     0.00018277175731     0.00009643353083
   26     0.00049270768011     0.00014383206044     0.00204760885650     0.00008515200992     0.00003675871904
   27     0.00013167598634     0.00011440286524     0.00174994859050     0.00002567169330     0.00002643985808
   28     0.01230013960876     0.00100064949820     0.00470372039591     0.00068730936845     0.00011084325953
   29     0.06698383940833     0.01368136666481     0.01169114180466     0.00343524033991     0.00074158561082
   30     0.77080374666742     0.05900629223847     0.04833730725209     0.01333574274941     0.00418236371022
   31     0.05348549571865     0.81337310970318     0.84559468122725     0.01638745986436     0.02274352118879
   32     0.01482810257784     0.05202002914479     0.06137584019508     0.06777777176753     0.06302559075833
   33     0.01689087303787     0.02572702268241     0.01122939521130     0.91012392492158     0.91840897338645
   34     0.00820112796024     0.01587972551516     0.01977696454975     0.01618476259884     0.01251732118308
   35     0.02318520107477     0.00175723669136     0.00694306007917     0.01263190713163     0.00169882193489
   36     0.00001531375353     0.00000359509265     0.00002289797484     0.00000101557647     0.00000021958736
   37     0.00004281269430     0.00009862298790     0.00005326517863     0.00015660123375     0.00089716904508
   38     0.00000000491112     0.00000000336473     0.00000002072372     0.00000000057003     0.00000000241922
   39     0.00000000307379     0.00000009436817     0.00000013025267     0.00000000429609     0.00000001095365
   40     0.00000052430654     0.00000009041868     0.00000175128719     0.00000011365904     0.00000013817825
   41     0.00000000205243     0.00000002538319     0.00000004063112     0.00000000040065     0.00000000306006
   42     0.00000000520191     0.00000024464781     0.00000029440373     0.00000001816281     0.00000010794560
   43     0.00000003478885     0.00000135301931     0.00000045770278     0.00000000671784     0.00000015144677
   44     0.00000700175822     0.00011573161024     0.00001184481773     0.00000433629711     0.00000604242462
   45     0.00001512968178     0.00000216061973     0.00000528178867     0.00000337958687     0.00000378549890
   46     0.00000642866153     0.00000131645834     0.00000698520315     0.00000180747823     0.00000071847307
   47     0.00003495098890     0.00000345384161     0.00011476517212     0.00000079878350     0.00000044760605
   48     0.00000228500972     0.00000062514886     0.00000899186234     0.00000018144845     0.00000048945337
   49     0.00003602705704     0.00001703875214     0.00084125063277     0.00000222779295     0.00000207620520
   50     0.00011755681281     0.00028046572460     0.00415509080383     0.00004492151649     0.00002323611815
   51     0.00012730792401     0.00001614224648     0.00010930330984     0.00003006337379     0.00000505141597
   52     0.00001437884010     0.00000374200875     0.00005280687714     0.00000255159600     0.00000148913135
   53     0.00123041210819     0.00008078847962     0.00073413990791     0.00006418933164     0.00001883150782
   54     0.00044860005925     0.00044437106096     0.00028690623593     0.00006792058142     0.00002420596680
   55     0.02523086371517     0.00607162904223     0.00735642653877     0.00063437188972     0.00017902526239
   56     0.00000000000000     0.01061640064259     0.01487102772687     0.00872302242749     0.00166439318020
   57     0.01061640064259     0.00000000000000     0.02260462822443     0.00343746197118     0.00880169349570
   58     0.01487102772687     0.02260462822443     0.00000000000000     0.00093929187457     0.00111683141995
   59     0.00872302242749     0.00343746197118     0.00093929187457     0.00000000000000     0.03493651634784
   60     0.00166439318020     0.00880169349570     0.00111683141995     0.03493651634784     0.00000000000000
   61     0.00070607036021     0.00133237427097     0.00075047986763     0.03517130196675     0.03782363115847
   62     0.00049260176025     0.00132819378673     0.00098169708684     0.00276682146727     0.00117699541417
   63     0.00071493659807     0.00124980151160     0.00536828341879     0.00100259441481     0.00065369067303
   64     0.00609545764173     0.00042112222178     0.00092495980392     0.00801899008939     0.00060511319934
   65     0.00089624859136     0.00043284820995     0.00041078912996     0.00053193303218     0.00022087261438
   66     0.00002700491347     0.00015319471078     0.00003064816561     0.00007884331245     0.00086189255162
   67     0.00000350514279     0.00001405080298     0.00000757388968     0.00000479735928     0.00007086362174
   68     0.00001316162276     0.00000777768568     0.00000351465512     0.00001040393481     0.00002035606517

                61                  62                  63                  64                  65

    1     0.00000000354218     0.00000000534503     0.00000013523632     0.00000000587355     0.00000000912003
    2     0.00000000681017     0.00000001492490     0.00000012723994     0.00000001145288     0.00000000684973
    3     0.00000004672344     0.00000012039048     0.00000069156217     0.00000013029627     0.00000004267743
    4     0.00000005090624     0.00000050184280     0.00000322018365     0.00000075537430     0.00000027148526
    5     0.00000001386169     0.00000007638806     0.00000107974888     0.00000015455919     0.00000004763656
    6     0.00000000595855     0.00000002228607     0.00000028922675     0.00000003438285     0.00000002316922
    7     0.00000008974880     0.00000018870407     0.00000077893557     0.00000016146170     0.00000015123367
    8     0.00000012415888     0.00000012738889     0.00000216466295     0.00000021823196     0.00000005696919
    9     0.00000014590705     0.00000015492891     0.00000079596877     0.00000024298524     0.00000010979083
   10     0.00000040157349     0.00000047023651     0.00000296954939     0.00000087506285     0.00000017408496
   11     0.00000135954234     0.00000127405361     0.00000721882141     0.00000316136672     0.00000287518382
   12     0.00000030664618     0.00000055284758     0.00000426688959     0.00000034888732     0.00000016273082
   13     0.00000283700096     0.00000719026106     0.00003377824757     0.00000734679558     0.00000169943747
   14     0.00003114128959     0.00002968517553     0.00018101915518     0.00005584967396     0.00000519052759
   15     0.00006141662488     0.00011714243645     0.00058105484681     0.00013051630726     0.00000995060229
   16     0.00002999692981     0.00032949013603     0.00296202076323     0.00035329336178     0.00003178203603
   17     0.00001250542997     0.00017330464151     0.00417395686567     0.00045299791983     0.00004881284631
   18     0.00000559532972     0.00005981947858     0.00117984054411     0.00015866938649     0.00001566328624
   19     0.00001213761569     0.00008040185875     0.00026881560700     0.00004244286232     0.00000399495031
   20     0.00000086842330     0.00000402680575     0.00013516964086     0.00000636880112     0.00001189232608
   21     0.00000178538280     0.00001680812117     0.00043239948126     0.00005043319064     0.00003026595185
   22     0.00001478609458     0.00015734753983     0.00465537719417     0.00029697247142     0.00025702346156
   23     0.00002419895629     0.00014648542287     0.00371236319478     0.00031156445000     0.00030415012545
   24     0.00004726716580     0.00030915288368     0.00662823568693     0.00060428756682     0.00070455482255
   25     0.00010047865606     0.00096242608921     0.01564774101407     0.00152418363886     0.00660953420230
   26     0.00006024720980     0.00092602468084     0.01980530064244     0.00093087020802     0.00663106069736
   27     0.00003421336040     0.00032462191003     0.01050884943887     0.00037977458054     0.00061768337081
   28     0.00010993792397     0.00114761379341     0.00642272220225     0.01176611916123     0.01937915733601
   29     0.00062428099485     0.00988581740264     0.01181326800947     0.06552248586469     0.05766963523999
   30     0.00181393060425     0.00251442500426     0.00725527802205     0.02292542395340     0.01203018344103
   31     0.01300872391909     0.01316923661571     0.01881267644107     0.00805821806612     0.00251803143920
   32     0.06390295300009     0.05952578535744     0.05905950817777     0.01415274943694     0.01015447159970
   33     0.91850175740549     0.02002513518968     0.01265755503411     0.01602370389768     0.00160254459018
   34     0.01868575495692     0.89040304084338     0.75216627385715     0.04996562756760     0.05961620297720
   35     0.00372208152173     0.06074458275644     0.04269506827966     0.76956398135102     0.88783596551667
   36     0.00000061948643     0.00000442373483     0.00013119805919     0.00001123849290     0.00000933553659
   37     0.00056002012247     0.00003022876008     0.00004120721527     0.00004471630528     0.00000545043289
   38     0.00000000033861     0.00000000225661     0.00000002382452     0.00000000152299     0.00000000109767
   39     0.00000000141461     0.00000000690203     0.00000002289103     0.00000000694172     0.00000000102691
   40     0.00000003169498     0.00000044070324     0.00000096081692     0.00000052314339     0.00000003204446
   41     0.00000000062942     0.00000000357769     0.00000001889024     0.00000000582721     0.00000000212057
   42     0.00000000943053     0.00000000905978     0.00000007614540     0.00000000824110     0.00000000285051
   43     0.00000003003534     0.00000001772112     0.00000008468736     0.00000003648690     0.00000000709426
   44     0.00000224228297     0.00000041043844     0.00000380504635     0.00000899073384     0.00000067814016
   45     0.00000143477354     0.00004067221512     0.00025346139332     0.00005193122994     0.00000380623968
   46     0.00000077390056     0.00001120584883     0.00048981929354     0.00006623711841     0.00000703443408
   47     0.00000051933937     0.00000261728236     0.00000822499608     0.00000446969950     0.00000038513122
   48     0.00000013952947     0.00000107162826     0.00002348727816     0.00000295540523     0.00000132617934
   49     0.00000098732780     0.00000734786442     0.00019464431515     0.00002004852265     0.00002482140884
   50     0.00001358629031     0.00002676164400     0.00067437091250     0.00016512206877     0.00008055478892
   51     0.00001317225008     0.00012584623101     0.00310740488029     0.00011465767498     0.00260970789179
   52     0.00000334915987     0.00002445912883     0.00102852564677     0.00004113930047     0.00003243467904
   53     0.00001845075242     0.00026156702832     0.00041159836925     0.00054559436675     0.00106948262838
   54     0.00002167287205     0.00011734946963     0.00083016736663     0.00119331581461     0.00533976261193
   55     0.00021933209287     0.00029173319832     0.00049317634321     0.00089308288490     0.00112248342864
   56     0.00070607036021     0.00049260176025     0.00071493659807     0.00609545764173     0.00089624859136
   57     0.00133237427097     0.00132819378673     0.00124980151160     0.00042112222178     0.00043284820995
   58     0.00075047986763     0.00098169708684     0.00536828341879     0.00092495980392     0.00041078912996
   59     0.03517130196675     0.00276682146727     0.00100259441481     0.00801899008939     0.00053193303218
   60     0.03782363115847     0.00117699541417     0.00065369067303     0.00060511319934     0.00022087261438
   61     0.00000000000000     0.00629188008497     0.00106469599655     0.00168513229521     0.00013324094903
   62     0.00629188008497     0.00000000000000     0.02301585376748     0.00962730137364     0.00573749699999
   63     0.00106469599655     0.02301585376748     0.00000000000000     0.02449845277233     0.00864222689707
   64     0.00168513229521     0.00962730137364     0.02449845277233     0.00000000000000     0.02337547418500
   65     0.00013324094903     0.00573749699999     0.00864222689707     0.02337547418500     0.00000000000000
   66     0.00045765476313     0.00001185454112     0.00001267817633     0.00004259098226     0.00000414822709
   67     0.00005676007632     0.00000351540627     0.00000658483468     0.00000580994725     0.00000036801058
   68     0.00003358122441     0.00000188068995     0.00000274361668     0.00000833863645     0.00000044005447

                66                  67                  68

    1     0.00000081138636     0.00000129667530     0.00000024328623
    2     0.00000179447025     0.00000315534374     0.00000086361391
    3     0.00001059883747     0.00001174015197     0.00000430287030
    4     0.00000810399093     0.00001010509806     0.00000715784977
    5     0.00000071189727     0.00000095010503     0.00000057729711
    6     0.00000049349430     0.00000155492806     0.00000015124534
    7     0.00004016977663     0.00005246981288     0.00001496335658
    8     0.00007328451970     0.00011781555234     0.00000773481422
    9     0.00004305018500     0.00005082590862     0.00000535610717
   10     0.00024837148948     0.00040660413000     0.00003860265420
   11     0.00066994899067     0.00117651151789     0.00024857120753
   12     0.00024133537568     0.00033932203878     0.00006787920156
   13     0.00797128446547     0.01218528680579     0.00206232435108
   14     0.01681664436356     0.01665978323819     0.00902792075288
   15     0.05893849612870     0.05839906837786     0.05972690336150
   16     0.01689249633823     0.01401248995580     0.02435020664159
   17     0.00137101807059     0.00128298407509     0.00198583782172
   18     0.00322481967541     0.00252061586258     0.00065197249362
   19     0.00136069164724     0.00124933120242     0.00110265394801
   20     0.00033136085477     0.00030112220257     0.00009752183511
   21     0.00014652251403     0.00011289602068     0.00003339218320
   22     0.00004766585719     0.00003161607277     0.00001286589717
   23     0.00002505871124     0.00001647124262     0.00000963159874
   24     0.00000760057710     0.00000333981194     0.00000144168237
   25     0.00000872296414     0.00000612073339     0.00000177589235
   26     0.00000836083973     0.00000448988251     0.00000091540047
   27     0.00002873640079     0.00001062433371     0.00000331139545
   28     0.00000772526957     0.00000118740852     0.00000148681643
   29     0.00003230363041     0.00000172705671     0.00000471464096
   30     0.00005712917468     0.00000661259433     0.00001606234919
   31     0.00029982507458     0.00005350671778     0.00003231496826
   32     0.00109974851782     0.00021371552208     0.00027464238788
   33     0.00243249239018     0.00031186281690     0.00011813000868
   34     0.00010851777505     0.00002450101351     0.00001743108591
   35     0.00007366250132     0.00000738304524     0.00000843211984
   36     0.00005088159216     0.00003033595195     0.00000550586724
   37     0.91519381447942     0.91674294213218     0.91826266253895
   38     0.00000007681706     0.00000010681484     0.00000003746806
   39     0.00000022157782     0.00000036334332     0.00000010427643
   40     0.00000736633434     0.00000810118725     0.00000770725342
   41     0.00000004323655     0.00000008649909     0.00000003357324
   42     0.00000318814081     0.00000474203224     0.00000056965204
   43     0.00000275831362     0.00000372091033     0.00000060138212
   44     0.00419355513868     0.00559006206764     0.00115551000161
   45     0.00160440296444     0.00125777035331     0.00782778888680
   46     0.00021475976132     0.00025889783646     0.00014366658989
   47     0.00019965045526     0.00021288080551     0.00034940566791
   48     0.00013681576720     0.00007414613866     0.00003196714957
   49     0.00000547607524     0.00000454686312     0.00000348991465
   50     0.00000089652493     0.00000025802952     0.00000005436091
   51     0.00000132007119     0.00000054756885     0.00000007479320
   52     0.00000564202295     0.00000075658471     0.00000074385866
   53     0.00000063870639     0.00000024769646     0.00000019481139
   54     0.00000137586549     0.00000013780474     0.00000010320760
   55     0.00000396047397     0.00000070702228     0.00000065504256
   56     0.00002700491347     0.00000350514279     0.00001316162276
   57     0.00015319471078     0.00001405080298     0.00000777768568
   58     0.00003064816561     0.00000757388968     0.00000351465512
   59     0.00007884331245     0.00000479735928     0.00001040393481
   60     0.00086189255162     0.00007086362174     0.00002035606517
   61     0.00045765476313     0.00005676007632     0.00003358122441
   62     0.00001185454112     0.00000351540627     0.00000188068995
   63     0.00001267817633     0.00000658483468     0.00000274361668
   64     0.00004259098226     0.00000580994725     0.00000833863645
   65     0.00000414822709     0.00000036801058     0.00000044005447
   66     0.00000000000000     0.03537316385175     0.03842264444842
   67     0.03537316385175     0.00000000000000     0.03886762592425
   68     0.03842264444842     0.03886762592425     0.00000000000000



  Atomic Valences: 

 #  #
 Irrep: 1
      1:  4.3936979
      2:  4.4250666
      3:  4.6046248
      4:  4.5746914
      5:  3.8852808
      6:  4.5440269
      7:  4.7414235
      8:  4.3705048
      9:  4.5258115
     10:  3.8659455
     11:  5.0040609
     12:  3.9515095
     13:  4.0484240
     14:  4.6748704
     15:  4.6370949
     16:  4.4494876
     17:  4.4184754
     18:  4.7355430
     19:  4.4528594
     20:  4.0432405
     21:  5.0414853
     22:  4.6638261
     23:  4.4576527
     24:  4.4792233
     25:  4.7181656
     26:  4.4740579
     27:  4.4503265
     28:  4.4893946
     29:  4.2499928
     30:  4.5605315
     31:  4.5811082
     32:  4.2309055
     33:  4.2987682
     34:  4.5604478
     35:  4.5421053
     36:  2.7560120
     37:  4.1567144
     38:  1.0985485
     39:  1.1026246
     40:  1.1114861
     41:  1.0908341
     42:  1.1101207
     43:  1.0861776
     44:  1.1784577
     45:  1.1022526
     46:  1.1010647
     47:  1.1310349
     48:  1.1676420
     49:  1.1050002
     50:  1.1079741
     51:  1.1064311
     52:  1.0990119
     53:  1.1061110
     54:  1.1070506
     55:  1.1385112
     56:  1.0430108
     57:  1.0427728
     58:  1.1146885
     59:  1.1378722
     60:  1.1131106
     61:  1.1071746
     62:  1.1134453
     63:  1.0557368
     64:  1.0417628
     65:  1.1167868
     66:  1.1097327
     67:  1.1081951
     68:  1.1051216


    Psi4 stopped on: Tuesday, 10 March 2020 10:52AM
    Psi4 wall time for execution: 0:31:10.49

*** Psi4 exiting successfully. Buy a developer a beer!
