
    -----------------------------------------------------------------------
          Psi4: An Open-Source Ab Initio Electronic Structure Package
                               Psi4 1.3.2 release

                         Git: Rev {HEAD} ecbda83 


    R. M. Parrish, L. A. Burns, D. G. A. Smith, A. C. Simmonett,
    A. E. DePrince III, E. G. Hohenstein, U. Bozkaya, A. Yu. Sokolov,
    R. Di Remigio, R. M. Richard, J. F. Gonthier, A. M. James,
    H. R. McAlexander, A. Kumar, M. Saitow, X. Wang, B. P. Pritchard,
    P. Verma, H. F. Schaefer III, K. Patkowski, R. A. King, E. F. Valeev,
    F. A. Evangelista, J. M. Turney, T. D. Crawford, and C. D. Sherrill,
    J. Chem. Theory Comput. 13(7) pp 3185--3197 (2017).
    (doi: 10.1021/acs.jctc.7b00174)


                         Additional Contributions by
    P. Kraus, H. Kruse, M. H. Lechner, M. C. Schieber, R. A. Shaw,
    A. Alenaizan, R. Galvelis, Z. L. Glick, S. Lehtola, and J. P. Misiewicz

    -----------------------------------------------------------------------


    Psi4 started on: Tuesday, 14 April 2020 12:43PM

    Process ID: 94204
    Host:       node57.bme.utexas.edu
    PSIDATADIR: /home/bdw2292/miniconda3/envs/p4env/share/psi4
    Memory:     500.0 MiB
    Threads:    1
    
  ==> Input File <==

--------------------------------------------------------------------------
molecule { 
0 1
 C   -0.787605    4.747047    0.372085
 C   -2.085628    4.259873    0.570720
 C   -2.384345    2.912923    0.284803
 C   -1.316308    2.139447   -0.233945
 N   -0.071889    2.592413   -0.444094
 C    0.180525    3.872424   -0.132114
 C   -3.753369    2.308049    0.471496
 C   -4.928766    3.048352    0.685138
 C   -6.112761    2.307152    0.762250
 N   -6.174156    0.981377    0.667844
 C   -4.995746    0.348305    0.491052
 N   -3.816637    0.965180    0.397381
 N   -5.088161   -1.032128    0.427130
 C   -4.134588   -2.096265    0.241123
 C   -4.552906   -3.450357    0.424542
 C   -3.603068   -4.458368    0.188546
 C   -2.275472   -4.214275   -0.182667
 C   -1.867999   -2.883519   -0.317366
 C   -2.803168   -1.857822   -0.117308
 N   -0.540864   -2.463653   -0.620789
 C   -0.064141   -1.525320   -1.507856
 C    1.432547   -1.285695   -1.558889
 C    2.397220   -2.283011   -1.339269
 C    3.759198   -1.973926   -1.386479
 C    4.209339   -0.670530   -1.670389
 C    3.232078    0.311950   -1.919444
 C    1.869142    0.011468   -1.876895
 C    5.699066   -0.322593   -1.688987
 N    6.354707    0.153530   -0.459123
 C    6.541440   -0.794603    0.662532
 C    5.422020   -0.758118    1.734350
 N    5.147702    0.594366    2.275728
 C    6.045321    1.072906    3.333536
 C    4.906087    1.521551    1.143399
 C    6.018011    1.498864    0.061591
 O   -0.813385   -0.876118   -2.219464
 C   -5.966114   -3.836838    0.828317
 H   -0.532221    5.777141    0.601791
 H   -2.836679    4.933557    0.976469
 H   -1.481889    1.110486   -0.535876
 H    1.203772    4.200743   -0.308928
 H   -4.970002    4.129056    0.743418
 H   -7.082644    2.783709    0.902306
 H   -6.052399   -1.302220    0.547790
 H   -3.895297   -5.500828    0.309377
 H   -1.574387   -5.025093   -0.338314
 H   -2.488027   -0.837789   -0.251288
 H    0.151684   -2.950790   -0.070502
 H    2.076296   -3.302227   -1.140104
 H    4.482407   -2.764679   -1.187715
 H    3.535169    1.335821   -2.135855
 H    1.129992    0.789136   -2.050742
 H    6.255170   -1.212313   -2.017424
 H    5.859206    0.451512   -2.452732
 H    6.692478   -1.915569    0.242624
 H    7.812097   -0.426576    1.332812
 H    5.722842   -1.558527    2.724174
 H    4.227676   -1.220609    1.172408
 H    7.063223    1.210191    2.951690
 H    6.071979    0.354539    4.161048
 H    5.685055    2.028791    3.730848
 H    4.754263    2.658557    1.580173
 H    3.678440    1.138807    0.561049
 H    7.254478    2.041196    0.687780
 H    5.744307    2.239139   -0.843615
 H   -6.722073   -3.501965    0.103644
 H   -6.230670   -3.399520    1.795171
 H   -6.096570   -4.917500    0.928326
}
memory 20GB
set_num_threads(6)
psi4_io.set_default_path("/scratch/bdw2292")
set freeze_core True
E, wfn = energy('mp2/6-311++G**',return_wfn=True)
oeprop(wfn,"WIBERG_LOWDIN_INDICES")
clean()
--------------------------------------------------------------------------

  Memory set to  18.626 GiB by Python driver.
  Threads set to 6 by Python driver.
    SCF Algorithm Type (re)set to DF.

*** tstart() called on node57.bme.utexas.edu
*** at Tue Apr 14 12:43:53 2020

   => Loading Basis Set <=

    Name: 6-311++G**
    Role: ORBITAL
    Keyword: BASIS
    atoms 1-4, 6-9, 11, 14-19, 21-28, 30-31, 33-35, 37 entry C          line   119 file /home/bdw2292/miniconda3/envs/p4env/share/psi4/basis/6-311ppgss.gbs 
    atoms 5, 10, 12-13, 20, 29, 32                     entry N          line   140 file /home/bdw2292/miniconda3/envs/p4env/share/psi4/basis/6-311ppgss.gbs 
    atoms 36                                           entry O          line   161 file /home/bdw2292/miniconda3/envs/p4env/share/psi4/basis/6-311ppgss.gbs 
    atoms 38-68                                        entry H          line    42 file /home/bdw2292/miniconda3/envs/p4env/share/psi4/basis/6-311ppgss.gbs 


         ---------------------------------------------------------
                                   SCF
               by Justin Turney, Rob Parrish, Andy Simmonett
                          and Daniel G. A. Smith
                              RHF Reference
                        6 Threads,  19073 MiB Core
         ---------------------------------------------------------

  ==> Geometry <==

    Molecular point group: c1
    Full point group: C1

    Geometry (in Angstrom), charge = 0, multiplicity = 1:

       Center              X                  Y                   Z               Mass       
    ------------   -----------------  -----------------  -----------------  -----------------
         C           -0.724825251593     4.779927240963     0.395136501971    12.000000000000
         C           -2.022848251593     4.292753240963     0.593771501971    12.000000000000
         C           -2.321565251593     2.945803240963     0.307854501971    12.000000000000
         C           -1.253528251593     2.172327240963    -0.210893498029    12.000000000000
         N           -0.009109251593     2.625293240963    -0.421042498029    14.003074004430
         C            0.243304748407     3.905304240963    -0.109062498029    12.000000000000
         C           -3.690589251593     2.340929240963     0.494547501971    12.000000000000
         C           -4.865986251593     3.081232240963     0.708189501971    12.000000000000
         C           -6.049981251593     2.340032240963     0.785301501971    12.000000000000
         N           -6.111376251593     1.014257240963     0.690895501971    14.003074004430
         C           -4.932966251593     0.381185240963     0.514103501971    12.000000000000
         N           -3.753857251593     0.998060240963     0.420432501971    14.003074004430
         N           -5.025381251593    -0.999247759037     0.450181501971    14.003074004430
         C           -4.071808251593    -2.063384759037     0.264174501971    12.000000000000
         C           -4.490126251593    -3.417476759037     0.447593501971    12.000000000000
         C           -3.540288251593    -4.425487759037     0.211597501971    12.000000000000
         C           -2.212692251593    -4.181394759037    -0.159615498029    12.000000000000
         C           -1.805219251593    -2.850638759037    -0.294314498029    12.000000000000
         C           -2.740388251593    -1.824941759037    -0.094256498029    12.000000000000
         N           -0.478084251593    -2.430772759037    -0.597737498029    14.003074004430
         C           -0.001361251593    -1.492439759037    -1.484804498029    12.000000000000
         C            1.495326748407    -1.252814759037    -1.535837498029    12.000000000000
         C            2.459999748407    -2.250130759037    -1.316217498029    12.000000000000
         C            3.821977748407    -1.941045759037    -1.363427498029    12.000000000000
         C            4.272118748407    -0.637649759037    -1.647337498029    12.000000000000
         C            3.294857748407     0.344830240963    -1.896392498029    12.000000000000
         C            1.931921748407     0.044348240963    -1.853843498029    12.000000000000
         C            5.761845748407    -0.289712759037    -1.665935498029    12.000000000000
         N            6.417486748407     0.186410240963    -0.436071498029    14.003074004430
         C            6.604219748407    -0.761722759037     0.685583501971    12.000000000000
         C            5.484799748407    -0.725237759037     1.757401501971    12.000000000000
         N            5.210481748407     0.627246240963     2.298779501971    14.003074004430
         C            6.108100748407     1.105786240963     3.356587501971    12.000000000000
         C            4.968866748407     1.554431240963     1.166450501971    12.000000000000
         C            6.080790748407     1.531744240963     0.084642501971    12.000000000000
         O           -0.750605251593    -0.843237759037    -2.196412498029    15.994914619570
         C           -5.903334251593    -3.803957759037     0.851368501971    12.000000000000
         H           -0.469441251593     5.810021240963     0.624842501971     1.007825032230
         H           -2.773899251593     4.966437240963     0.999520501971     1.007825032230
         H           -1.419109251593     1.143366240963    -0.512824498029     1.007825032230
         H            1.266551748407     4.233623240963    -0.285876498029     1.007825032230
         H           -4.907222251593     4.161936240963     0.766469501971     1.007825032230
         H           -7.019864251593     2.816589240963     0.925357501971     1.007825032230
         H           -5.989619251593    -1.269339759037     0.570841501971     1.007825032230
         H           -3.832517251593    -5.467947759037     0.332428501971     1.007825032230
         H           -1.511607251593    -4.992212759037    -0.315262498029     1.007825032230
         H           -2.425247251593    -0.804908759037    -0.228236498029     1.007825032230
         H            0.214463748407    -2.917909759037    -0.047450498029     1.007825032230
         H            2.139075748407    -3.269346759037    -1.117052498029     1.007825032230
         H            4.545186748407    -2.731798759037    -1.164663498029     1.007825032230
         H            3.597948748407     1.368701240963    -2.112803498029     1.007825032230
         H            1.192771748407     0.822016240963    -2.027690498029     1.007825032230
         H            6.317949748407    -1.179432759037    -1.994372498029     1.007825032230
         H            5.921985748407     0.484392240963    -2.429680498029     1.007825032230
         H            6.755257748407    -1.882688759037     0.265675501971     1.007825032230
         H            7.874876748407    -0.393695759037     1.355863501971     1.007825032230
         H            5.785621748407    -1.525646759037     2.747225501971     1.007825032230
         H            4.290455748407    -1.187728759037     1.195459501971     1.007825032230
         H            7.126002748407     1.243071240963     2.974741501971     1.007825032230
         H            6.134758748407     0.387419240963     4.184099501971     1.007825032230
         H            5.747834748407     2.061671240963     3.753899501971     1.007825032230
         H            4.817042748407     2.691437240963     1.603224501971     1.007825032230
         H            3.741219748407     1.171687240963     0.584100501971     1.007825032230
         H            7.317257748407     2.074076240963     0.710831501971     1.007825032230
         H            5.807086748407     2.272019240963    -0.820563498029     1.007825032230
         H           -6.659293251593    -3.469084759037     0.126695501971     1.007825032230
         H           -6.167890251593    -3.366639759037     1.818222501971     1.007825032230
         H           -6.033790251593    -4.884619759037     0.951377501971     1.007825032230

  Running in c1 symmetry.

  Rotational constants: A =      0.00480  B =      0.00183  C =      0.00149 [cm^-1]
  Rotational constants: A =    143.92802  B =     54.95432  C =     44.61908 [MHz]
  Nuclear repulsion = 3772.594433993548137

  Charge       = 0
  Multiplicity = 1
  Electrons    = 262
  Nalpha       = 131
  Nbeta        = 131

  ==> Algorithm <==

  SCF Algorithm Type is DF.
  DIIS enabled.
  MOM disabled.
  Fractional occupation disabled.
  Guess Type is SAD.
  Energy threshold   = 1.00e-08
  Density threshold  = 1.00e-08
  Integral threshold = 0.00e+00

  ==> Primary Basis <==

  Basis Set: 6-311++G**
    Blend: 6-311++G**
    Number of shells: 525
    Number of basis function: 1031
    Number of Cartesian functions: 1068
    Spherical Harmonics?: true
    Max angular momentum: 2

   => Loading Basis Set <=

    Name: (6-311++G** AUX)
    Role: JKFIT
    Keyword: DF_BASIS_SCF
    atoms 1-4, 6-9, 11, 14-19, 21-28, 30-31, 33-35, 37 entry C          line   162 file /home/bdw2292/miniconda3/envs/p4env/share/psi4/basis/aug-cc-pvtz-jkfit.gbs 
    atoms 5, 10, 12-13, 20, 29, 32                     entry N          line   224 file /home/bdw2292/miniconda3/envs/p4env/share/psi4/basis/aug-cc-pvtz-jkfit.gbs 
    atoms 36                                           entry O          line   286 file /home/bdw2292/miniconda3/envs/p4env/share/psi4/basis/aug-cc-pvtz-jkfit.gbs 
    atoms 38-68                                        entry H          line    70 file /home/bdw2292/miniconda3/envs/p4env/share/psi4/basis/aug-cc-pvtz-jkfit.gbs 

  ==> Pre-Iterations <==

   -------------------------------------------------------
    Irrep   Nso     Nmo     Nalpha   Nbeta   Ndocc  Nsocc
   -------------------------------------------------------
     A       1031    1031       0       0       0       0
   -------------------------------------------------------
    Total    1031    1031     131     131     131       0
   -------------------------------------------------------

  ==> Integral Setup <==

  ==> DiskDFJK: Density-Fitted J/K Matrices <==

    J tasked:                  Yes
    K tasked:                  Yes
    wK tasked:                  No
    OpenMP threads:              6
    Integrals threads:           6
    Memory [MiB]:            14305
    Algorithm:                Disk
    Integral Cache:           NONE
    Schwarz Cutoff:          1E-12
    Fitting Condition:       1E-10

   => Auxiliary Basis Set <=

  Basis Set: (6-311++G** AUX)
    Blend: AUG-CC-PVTZ-JKFIT
    Number of shells: 1544
    Number of basis function: 5274
    Number of Cartesian functions: 6552
    Spherical Harmonics?: true
    Max angular momentum: 4

  Minimum eigenvalue in the overlap matrix is 1.0782556778E-07.
  Using Symmetric Orthogonalization.

  SCF Guess: Superposition of Atomic Densities via on-the-fly atomic UHF.

  ==> Iterations <==

                           Total Energy        Delta E     RMS |[F,P]|

   @DF-RHF iter SAD: -1571.22808002722491   -1.57123e+03   0.00000e+00 
   @DF-RHF iter   1: -1571.37080215325750   -1.42722e-01   1.21515e-03 DIIS
   @DF-RHF iter   2: -1572.13740369119068   -7.66602e-01   6.40647e-04 DIIS
   @DF-RHF iter   3: -1572.32997260941329   -1.92569e-01   1.65322e-04 DIIS
   @DF-RHF iter   4: -1572.34690274019567   -1.69301e-02   6.49902e-05 DIIS
   @DF-RHF iter   5: -1572.34942182139434   -2.51908e-03   1.31014e-05 DIIS
   @DF-RHF iter   6: -1572.34956981775645   -1.47996e-04   5.87381e-06 DIIS
   @DF-RHF iter   7: -1572.34960396648739   -3.41487e-05   1.93067e-06 DIIS
   @DF-RHF iter   8: -1572.34960962949435   -5.66301e-06   7.75913e-07 DIIS
   @DF-RHF iter   9: -1572.34961061576928   -9.86275e-07   3.28642e-07 DIIS
   @DF-RHF iter  10: -1572.34961082910900   -2.13340e-07   1.49417e-07 DIIS
   @DF-RHF iter  11: -1572.34961087523925   -4.61303e-08   7.15039e-08 DIIS
   @DF-RHF iter  12: -1572.34961088660407   -1.13648e-08   3.05249e-08 DIIS
   @DF-RHF iter  13: -1572.34961088924888   -2.64481e-09   1.23256e-08 DIIS
   @DF-RHF iter  14: -1572.34961088954242   -2.93539e-10   6.24604e-09 DIIS
  Energy and wave function converged.


  ==> Post-Iterations <==

    Orbital Energies [Eh]
    ---------------------

    Doubly Occupied:                                                      

       1A    -20.517223     2A    -15.597823     3A    -15.595082  
       4A    -15.571512     5A    -15.568493     6A    -15.564971  
       7A    -15.560099     8A    -15.554318     9A    -11.366606  
      10A    -11.363247    11A    -11.324725    12A    -11.312663  
      13A    -11.312444    14A    -11.307818    15A    -11.304756  
      16A    -11.300501    17A    -11.297309    18A    -11.288724  
      19A    -11.286226    20A    -11.284493    21A    -11.277238  
      22A    -11.276382    23A    -11.266625    24A    -11.256571  
      25A    -11.255308    26A    -11.255053    27A    -11.253097  
      28A    -11.250826    29A    -11.246466    30A    -11.246128  
      31A    -11.243288    32A    -11.243176    33A    -11.242399  
      34A    -11.241235    35A    -11.236675    36A    -11.234866  
      37A    -11.223480    38A     -1.384554    39A     -1.336560  
      40A     -1.263781    41A     -1.246974    42A     -1.243739  
      43A     -1.235809    44A     -1.200136    45A     -1.198518  
      46A     -1.159913    47A     -1.138656    48A     -1.104729  
      49A     -1.066728    50A     -1.056971    51A     -1.038719  
      52A     -1.034494    53A     -1.021772    54A     -1.006761  
      55A     -0.989844    56A     -0.975360    57A     -0.945313  
      58A     -0.926466    59A     -0.915429    60A     -0.894638  
      61A     -0.865312    62A     -0.860800    63A     -0.847834  
      64A     -0.839770    65A     -0.830031    66A     -0.824625  
      67A     -0.820519    68A     -0.802846    69A     -0.779098  
      70A     -0.749712    71A     -0.736261    72A     -0.724120  
      73A     -0.714200    74A     -0.694675    75A     -0.691212  
      76A     -0.676933    77A     -0.669130    78A     -0.659061  
      79A     -0.655487    80A     -0.652780    81A     -0.647134  
      82A     -0.639169    83A     -0.633642    84A     -0.629863  
      85A     -0.621534    86A     -0.616021    87A     -0.611022  
      88A     -0.603565    89A     -0.600396    90A     -0.595533  
      91A     -0.592954    92A     -0.592515    93A     -0.584853  
      94A     -0.583063    95A     -0.580569    96A     -0.576651  
      97A     -0.575367    98A     -0.570696    99A     -0.563021  
     100A     -0.548418   101A     -0.547885   102A     -0.530860  
     103A     -0.529242   104A     -0.522097   105A     -0.520408  
     106A     -0.516680   107A     -0.513828   108A     -0.508825  
     109A     -0.505049   110A     -0.503952   111A     -0.501603  
     112A     -0.491587   113A     -0.480687   114A     -0.472197  
     115A     -0.458407   116A     -0.441169   117A     -0.433527  
     118A     -0.428051   119A     -0.426895   120A     -0.415782  
     121A     -0.405279   122A     -0.403529   123A     -0.388653  
     124A     -0.380590   125A     -0.366896   126A     -0.344920  
     127A     -0.338037   128A     -0.335796   129A     -0.316656  
     130A     -0.311303   131A     -0.292423  

    Virtual:                                                              

     132A      0.032052   133A      0.035533   134A      0.038461  
     135A      0.043392   136A      0.045146   137A      0.048522  
     138A      0.052962   139A      0.053296   140A      0.055598  
     141A      0.062333   142A      0.064607   143A      0.067223  
     144A      0.068608   145A      0.069467   146A      0.075169  
     147A      0.077394   148A      0.080090   149A      0.082096  
     150A      0.085155   151A      0.086743   152A      0.088898  
     153A      0.090787   154A      0.092948   155A      0.095857  
     156A      0.098029   157A      0.102312   158A      0.105229  
     159A      0.107385   160A      0.108538   161A      0.111723  
     162A      0.113117   163A      0.116649   164A      0.118226  
     165A      0.119418   166A      0.120654   167A      0.123077  
     168A      0.125168   169A      0.127338   170A      0.131649  
     171A      0.137859   172A      0.138283   173A      0.141547  
     174A      0.143936   175A      0.148495   176A      0.149847  
     177A      0.151896   178A      0.155007   179A      0.156742  
     180A      0.157933   181A      0.158994   182A      0.160858  
     183A      0.162137   184A      0.164496   185A      0.167407  
     186A      0.168706   187A      0.169721   188A      0.171274  
     189A      0.177214   190A      0.177991   191A      0.179082  
     192A      0.180425   193A      0.182023   194A      0.183420  
     195A      0.185487   196A      0.187865   197A      0.189858  
     198A      0.190788   199A      0.191289   200A      0.192740  
     201A      0.196263   202A      0.200096   203A      0.201967  
     204A      0.203342   205A      0.204793   206A      0.205620  
     207A      0.207879   208A      0.210094   209A      0.211791  
     210A      0.212662   211A      0.215219   212A      0.216138  
     213A      0.218224   214A      0.220470   215A      0.221602  
     216A      0.223864   217A      0.225391   218A      0.226346  
     219A      0.230223   220A      0.230720   221A      0.231531  
     222A      0.232845   223A      0.236049   224A      0.237548  
     225A      0.239303   226A      0.240029   227A      0.242769  
     228A      0.244613   229A      0.246173   230A      0.247359  
     231A      0.251842   232A      0.252241   233A      0.253572  
     234A      0.258405   235A      0.260125   236A      0.261307  
     237A      0.264117   238A      0.266621   239A      0.269141  
     240A      0.271935   241A      0.275223   242A      0.276216  
     243A      0.278000   244A      0.281528   245A      0.283444  
     246A      0.284521   247A      0.287670   248A      0.291343  
     249A      0.292487   250A      0.296496   251A      0.297256  
     252A      0.300856   253A      0.301252   254A      0.305776  
     255A      0.307696   256A      0.309559   257A      0.311157  
     258A      0.315800   259A      0.316198   260A      0.319604  
     261A      0.321153   262A      0.324174   263A      0.325809  
     264A      0.327263   265A      0.330138   266A      0.331568  
     267A      0.333866   268A      0.334687   269A      0.336463  
     270A      0.339107   271A      0.341827   272A      0.343761  
     273A      0.344368   274A      0.347326   275A      0.348798  
     276A      0.353018   277A      0.355659   278A      0.356579  
     279A      0.357120   280A      0.362159   281A      0.363630  
     282A      0.366689   283A      0.367877   284A      0.368908  
     285A      0.369036   286A      0.372726   287A      0.374131  
     288A      0.377365   289A      0.377652   290A      0.379953  
     291A      0.382221   292A      0.383825   293A      0.385933  
     294A      0.386425   295A      0.389525   296A      0.390390  
     297A      0.393279   298A      0.395265   299A      0.395585  
     300A      0.397296   301A      0.399228   302A      0.401658  
     303A      0.402503   304A      0.405807   305A      0.407694  
     306A      0.409559   307A      0.411037   308A      0.413205  
     309A      0.414052   310A      0.415212   311A      0.415807  
     312A      0.419966   313A      0.421363   314A      0.422386  
     315A      0.425933   316A      0.428670   317A      0.429724  
     318A      0.432434   319A      0.432858   320A      0.433091  
     321A      0.436348   322A      0.438684   323A      0.440882  
     324A      0.443833   325A      0.444256   326A      0.446808  
     327A      0.449667   328A      0.451511   329A      0.453499  
     330A      0.455918   331A      0.457905   332A      0.459953  
     333A      0.463098   334A      0.467374   335A      0.469265  
     336A      0.473224   337A      0.477898   338A      0.480129  
     339A      0.481525   340A      0.486066   341A      0.487185  
     342A      0.491325   343A      0.492935   344A      0.495615  
     345A      0.496102   346A      0.499188   347A      0.500079  
     348A      0.503708   349A      0.506615   350A      0.511522  
     351A      0.513215   352A      0.514741   353A      0.518691  
     354A      0.519723   355A      0.523497   356A      0.526465  
     357A      0.529400   358A      0.531944   359A      0.536207  
     360A      0.538546   361A      0.540506   362A      0.544373  
     363A      0.549502   364A      0.551470   365A      0.555107  
     366A      0.556427   367A      0.561998   368A      0.564132  
     369A      0.568484   370A      0.570821   371A      0.573847  
     372A      0.577245   373A      0.588298   374A      0.594215  
     375A      0.598876   376A      0.604915   377A      0.606716  
     378A      0.610101   379A      0.613540   380A      0.615792  
     381A      0.623451   382A      0.626488   383A      0.628985  
     384A      0.635519   385A      0.643004   386A      0.647784  
     387A      0.652232   388A      0.673092   389A      0.681682  
     390A      0.693405   391A      0.700888   392A      0.702742  
     393A      0.708649   394A      0.714866   395A      0.719135  
     396A      0.724299   397A      0.730117   398A      0.733745  
     399A      0.736000   400A      0.737351   401A      0.745334  
     402A      0.749355   403A      0.753693   404A      0.760888  
     405A      0.761957   406A      0.767193   407A      0.771113  
     408A      0.773316   409A      0.776607   410A      0.779163  
     411A      0.781223   412A      0.784885   413A      0.786871  
     414A      0.792456   415A      0.799069   416A      0.801265  
     417A      0.801819   418A      0.807887   419A      0.810782  
     420A      0.812607   421A      0.815541   422A      0.818575  
     423A      0.824853   424A      0.829633   425A      0.831795  
     426A      0.834052   427A      0.839896   428A      0.843063  
     429A      0.849309   430A      0.850957   431A      0.855784  
     432A      0.860348   433A      0.863868   434A      0.867260  
     435A      0.870996   436A      0.873727   437A      0.876442  
     438A      0.877387   439A      0.880713   440A      0.881964  
     441A      0.883202   442A      0.887673   443A      0.891383  
     444A      0.894635   445A      0.896559   446A      0.902191  
     447A      0.904826   448A      0.906625   449A      0.913001  
     450A      0.913879   451A      0.918691   452A      0.920529  
     453A      0.922711   454A      0.926207   455A      0.929433  
     456A      0.930479   457A      0.934639   458A      0.937833  
     459A      0.941429   460A      0.943431   461A      0.946207  
     462A      0.949156   463A      0.957634   464A      0.957895  
     465A      0.961412   466A      0.965116   467A      0.967618  
     468A      0.969568   469A      0.976067   470A      0.978532  
     471A      0.982410   472A      0.986250   473A      0.992854  
     474A      0.993931   475A      1.000722   476A      1.003880  
     477A      1.005525   478A      1.009757   479A      1.012361  
     480A      1.012808   481A      1.015065   482A      1.027371  
     483A      1.030066   484A      1.031069   485A      1.035534  
     486A      1.037836   487A      1.042035   488A      1.048304  
     489A      1.050397   490A      1.053485   491A      1.062404  
     492A      1.064572   493A      1.069404   494A      1.076280  
     495A      1.077138   496A      1.083082   497A      1.086761  
     498A      1.092963   499A      1.101366   500A      1.102301  
     501A      1.106550   502A      1.107480   503A      1.115183  
     504A      1.119341   505A      1.126470   506A      1.129002  
     507A      1.134388   508A      1.136024   509A      1.143359  
     510A      1.149474   511A      1.155053   512A      1.157938  
     513A      1.159416   514A      1.160895   515A      1.165000  
     516A      1.168548   517A      1.169561   518A      1.175560  
     519A      1.179053   520A      1.186844   521A      1.191302  
     522A      1.197674   523A      1.199567   524A      1.201422  
     525A      1.207742   526A      1.211789   527A      1.213893  
     528A      1.217500   529A      1.222778   530A      1.224690  
     531A      1.229055   532A      1.230802   533A      1.235902  
     534A      1.245498   535A      1.246882   536A      1.248013  
     537A      1.253429   538A      1.256681   539A      1.261969  
     540A      1.265188   541A      1.267950   542A      1.269658  
     543A      1.274840   544A      1.277367   545A      1.281530  
     546A      1.284521   547A      1.292900   548A      1.296013  
     549A      1.299703   550A      1.304639   551A      1.316634  
     552A      1.324844   553A      1.328147   554A      1.330798  
     555A      1.340068   556A      1.344376   557A      1.345183  
     558A      1.352603   559A      1.363032   560A      1.364639  
     561A      1.371858   562A      1.379955   563A      1.387717  
     564A      1.391125   565A      1.396617   566A      1.400147  
     567A      1.406068   568A      1.410688   569A      1.413767  
     570A      1.432508   571A      1.437293   572A      1.447884  
     573A      1.454556   574A      1.460093   575A      1.462596  
     576A      1.467665   577A      1.472753   578A      1.482810  
     579A      1.492578   580A      1.496178   581A      1.503403  
     582A      1.510090   583A      1.515199   584A      1.521190  
     585A      1.527462   586A      1.543321   587A      1.554227  
     588A      1.566632   589A      1.571064   590A      1.582099  
     591A      1.585656   592A      1.598315   593A      1.610509  
     594A      1.615425   595A      1.625488   596A      1.627760  
     597A      1.634632   598A      1.640602   599A      1.646406  
     600A      1.647865   601A      1.667697   602A      1.668820  
     603A      1.675820   604A      1.699429   605A      1.704763  
     606A      1.707609   607A      1.713520   608A      1.716233  
     609A      1.726055   610A      1.735438   611A      1.738124  
     612A      1.755618   613A      1.758202   614A      1.763546  
     615A      1.764820   616A      1.767281   617A      1.773439  
     618A      1.777088   619A      1.781479   620A      1.792651  
     621A      1.798693   622A      1.799866   623A      1.803055  
     624A      1.807660   625A      1.812713   626A      1.815331  
     627A      1.820967   628A      1.826233   629A      1.827235  
     630A      1.830234   631A      1.835053   632A      1.835806  
     633A      1.841733   634A      1.845278   635A      1.852803  
     636A      1.857345   637A      1.861711   638A      1.863144  
     639A      1.867754   640A      1.869555   641A      1.874263  
     642A      1.877819   643A      1.884406   644A      1.892158  
     645A      1.895655   646A      1.897175   647A      1.903424  
     648A      1.910692   649A      1.920741   650A      1.929176  
     651A      1.932545   652A      1.935067   653A      1.937592  
     654A      1.946746   655A      1.950404   656A      1.958418  
     657A      1.962482   658A      1.968785   659A      1.969180  
     660A      1.972855   661A      1.974810   662A      1.982696  
     663A      1.985839   664A      1.986627   665A      1.989794  
     666A      1.992484   667A      1.996546   668A      2.006806  
     669A      2.009835   670A      2.012611   671A      2.018195  
     672A      2.025796   673A      2.029500   674A      2.033602  
     675A      2.038770   676A      2.039904   677A      2.047106  
     678A      2.054376   679A      2.057289   680A      2.060288  
     681A      2.064219   682A      2.070707   683A      2.073926  
     684A      2.078783   685A      2.091208   686A      2.094666  
     687A      2.095969   688A      2.103487   689A      2.106106  
     690A      2.113690   691A      2.117162   692A      2.128850  
     693A      2.133545   694A      2.142617   695A      2.153482  
     696A      2.163384   697A      2.164102   698A      2.172214  
     699A      2.182605   700A      2.185087   701A      2.188050  
     702A      2.191557   703A      2.197193   704A      2.201961  
     705A      2.208234   706A      2.216210   707A      2.221092  
     708A      2.224904   709A      2.227835   710A      2.238350  
     711A      2.238542   712A      2.245682   713A      2.252262  
     714A      2.255007   715A      2.261121   716A      2.266185  
     717A      2.269030   718A      2.270633   719A      2.274405  
     720A      2.282670   721A      2.292712   722A      2.296125  
     723A      2.297239   724A      2.300043   725A      2.304756  
     726A      2.313285   727A      2.316666   728A      2.318663  
     729A      2.331102   730A      2.337679   731A      2.341148  
     732A      2.351143   733A      2.356346   734A      2.358896  
     735A      2.374321   736A      2.378303   737A      2.386856  
     738A      2.388688   739A      2.390890   740A      2.398635  
     741A      2.407942   742A      2.415353   743A      2.417130  
     744A      2.420135   745A      2.423339   746A      2.448695  
     747A      2.452984   748A      2.453621   749A      2.467917  
     750A      2.472884   751A      2.476971   752A      2.488191  
     753A      2.513742   754A      2.514649   755A      2.519757  
     756A      2.524340   757A      2.526216   758A      2.533663  
     759A      2.541176   760A      2.548798   761A      2.553866  
     762A      2.571527   763A      2.583271   764A      2.585693  
     765A      2.592615   766A      2.596167   767A      2.608003  
     768A      2.624177   769A      2.630079   770A      2.635509  
     771A      2.653852   772A      2.661141   773A      2.664629  
     774A      2.674432   775A      2.695451   776A      2.702050  
     777A      2.706924   778A      2.719136   779A      2.729389  
     780A      2.734616   781A      2.750716   782A      2.753288  
     783A      2.762687   784A      2.768887   785A      2.780669  
     786A      2.783746   787A      2.792685   788A      2.795434  
     789A      2.804554   790A      2.814396   791A      2.822287  
     792A      2.832157   793A      2.845394   794A      2.850565  
     795A      2.853814   796A      2.866209   797A      2.874165  
     798A      2.874305   799A      2.876705   800A      2.879918  
     801A      2.882988   802A      2.908689   803A      2.919533  
     804A      2.935292   805A      2.936628   806A      2.937982  
     807A      2.944615   808A      2.948619   809A      2.962073  
     810A      2.963820   811A      2.976670   812A      2.982197  
     813A      2.983140   814A      2.986117   815A      2.993396  
     816A      2.998834   817A      3.012311   818A      3.020054  
     819A      3.026535   820A      3.027864   821A      3.031823  
     822A      3.043015   823A      3.045100   824A      3.048428  
     825A      3.053760   826A      3.059921   827A      3.065577  
     828A      3.066511   829A      3.070866   830A      3.081910  
     831A      3.082971   832A      3.093966   833A      3.100292  
     834A      3.105151   835A      3.108254   836A      3.116949  
     837A      3.118459   838A      3.122969   839A      3.124289  
     840A      3.130112   841A      3.134823   842A      3.143652  
     843A      3.149425   844A      3.152898   845A      3.159990  
     846A      3.162548   847A      3.175293   848A      3.183013  
     849A      3.185644   850A      3.198020   851A      3.203110  
     852A      3.207054   853A      3.212113   854A      3.224001  
     855A      3.229456   856A      3.235279   857A      3.245635  
     858A      3.249739   859A      3.255526   860A      3.265100  
     861A      3.271050   862A      3.272551   863A      3.282763  
     864A      3.287774   865A      3.296364   866A      3.302119  
     867A      3.307509   868A      3.308194   869A      3.310804  
     870A      3.317116   871A      3.320115   872A      3.331314  
     873A      3.337258   874A      3.342617   875A      3.347366  
     876A      3.352204   877A      3.359001   878A      3.360786  
     879A      3.363554   880A      3.374882   881A      3.378206  
     882A      3.386592   883A      3.395436   884A      3.395970  
     885A      3.400327   886A      3.404367   887A      3.419460  
     888A      3.424118   889A      3.439556   890A      3.446749  
     891A      3.455409   892A      3.461296   893A      3.479004  
     894A      3.520504   895A      3.527158   896A      3.546523  
     897A      3.561673   898A      3.591894   899A      3.594525  
     900A      3.613792   901A      3.625499   902A      3.646679  
     903A      3.657712   904A      3.663970   905A      3.667285  
     906A      3.670485   907A      3.686158   908A      3.691982  
     909A      3.766430   910A      3.771648   911A      3.791206  
     912A      3.795141   913A      3.801921   914A      3.820205  
     915A      3.837740   916A      3.859009   917A      3.867569  
     918A      3.875090   919A      3.875513   920A      3.890361  
     921A      3.897360   922A      3.909699   923A      3.918454  
     924A      3.928050   925A      3.939163   926A      3.943147  
     927A      3.949856   928A      3.963236   929A      3.973585  
     930A      3.978496   931A      3.986562   932A      4.010788  
     933A      4.048033   934A      4.066067   935A      4.072282  
     936A      4.081555   937A      4.095522   938A      4.108131  
     939A      4.128896   940A      4.134257   941A      4.140790  
     942A      4.171228   943A      4.175939   944A      4.188235  
     945A      4.202204   946A      4.207149   947A      4.217678  
     948A      4.218858   949A      4.251234   950A      4.285280  
     951A      4.371188   952A      4.373492   953A      4.389084  
     954A      4.397038   955A      4.414253   956A      4.425464  
     957A      4.430903   958A      4.439895   959A      4.447807  
     960A      4.453117   961A      4.460134   962A      4.499897  
     963A      4.540411   964A      4.552211   965A      4.561458  
     966A      4.586253   967A      4.592833   968A      4.604797  
     969A      4.635030   970A      4.675325   971A      4.712737  
     972A      4.768146   973A      4.788057   974A      4.802371  
     975A      4.916497   976A      4.960451   977A      5.018341  
     978A      5.058500   979A      5.215824   980A      5.254056  
     981A      5.261602   982A      5.279077   983A      5.290695  
     984A      5.316669   985A      5.331616   986A      5.383115  
     987A      5.431893   988A      5.601375   989A      5.701674  
     990A      5.758438   991A      5.807733   992A      5.870865  
     993A      5.880770   994A      6.413377   995A     24.770794  
     996A     24.784173   997A     24.816896   998A     24.819973  
     999A     24.847916  1000A     24.856575  1001A     24.946016  
    1002A     24.948447  1003A     25.027409  1004A     25.032544  
    1005A     25.045098  1006A     25.073182  1007A     25.081125  
    1008A     25.097623  1009A     25.110784  1010A     25.119683  
    1011A     25.127751  1012A     25.141888  1013A     25.153147  
    1014A     25.156452  1015A     25.189694  1016A     25.204566  
    1017A     25.209890  1018A     25.245754  1019A     25.249673  
    1020A     25.258598  1021A     25.260955  1022A     25.324225  
    1023A     25.329272  1024A     36.952200  1025A     36.987137  
    1026A     37.031256  1027A     37.078001  1028A     37.091459  
    1029A     37.141997  1030A     37.163236  1031A     51.776942  

    Final Occupation by Irrep:
              A 
    DOCC [   131 ]

  @DF-RHF Final Energy: -1572.34961088954242

   => Energetics <=

    Nuclear Repulsion Energy =           3772.5944339935481366
    One-Electron Energy =               -9644.6742724394662218
    Two-Electron Energy =                4299.7302275563752119
    Total Energy =                      -1572.3496108895424186

Computation Completed


Properties will be evaluated at   0.000000,   0.000000,   0.000000 [a0]

Properties computed using the SCF density matrix

  Nuclear Dipole Moment: [e a0]
     X:    38.8034      Y:    -1.5423      Z:    12.5768

  Electronic Dipole Moment: [e a0]
     X:   -38.7674      Y:     1.9736      Z:   -11.4877

  Dipole Moment: [e a0]
     X:     0.0360      Y:     0.4314      Z:     1.0891     Total:     1.1720

  Dipole Moment: [D]
     X:     0.0914      Y:     1.0965      Z:     2.7683     Total:     2.9790


*** tstop() called on node57.bme.utexas.edu at Tue Apr 14 13:35:06 2020
Module time:
	user time   =    4469.84 seconds =      74.50 minutes
	system time =     331.97 seconds =       5.53 minutes
	total time  =       3073 seconds =      51.22 minutes
Total time:
	user time   =    4469.84 seconds =      74.50 minutes
	system time =     331.97 seconds =       5.53 minutes
	total time  =       3073 seconds =      51.22 minutes

*** tstart() called on node57.bme.utexas.edu
*** at Tue Apr 14 13:35:06 2020


  //>>>>>>>>>>>>>>>>>>>>>>>>>>>>>>>>>>>//
  //               DFMP2               //
  //<<<<<<<<<<<<<<<<<<<<<<<<<<<<<<<<<<<//

   => Loading Basis Set <=

    Name: (6-311++G** AUX)
    Role: RIFIT
    Keyword: DF_BASIS_MP2
    atoms 1-4, 6-9, 11, 14-19, 21-28, 30-31, 33-35, 37 entry C          line   148 file /home/bdw2292/miniconda3/envs/p4env/share/psi4/basis/aug-cc-pvtz-ri.gbs 
    atoms 5, 10, 12-13, 20, 29, 32                     entry N          line   206 file /home/bdw2292/miniconda3/envs/p4env/share/psi4/basis/aug-cc-pvtz-ri.gbs 
    atoms 36                                           entry O          line   264 file /home/bdw2292/miniconda3/envs/p4env/share/psi4/basis/aug-cc-pvtz-ri.gbs 
    atoms 38-68                                        entry H          line    30 file /home/bdw2292/miniconda3/envs/p4env/share/psi4/basis/aug-cc-pvtz-ri.gbs 

	 --------------------------------------------------------
	                          DF-MP2                         
	      2nd-Order Density-Fitted Moller-Plesset Theory     
	              RMP2 Wavefunction,   6 Threads             
	                                                         
	        Rob Parrish, Justin Turney, Andy Simmonett,      
	           Ed Hohenstein, and C. David Sherrill          
	 --------------------------------------------------------

   => Auxiliary Basis Set <=

  Basis Set: (6-311++G** AUX)
    Blend: AUG-CC-PVTZ-RI
    Number of shells: 1470
    Number of basis function: 5348
    Number of Cartesian functions: 6737
    Spherical Harmonics?: true
    Max angular momentum: 4

	 --------------------------------------------------------
	                 NBF =  1031, NAUX =  5348
	 --------------------------------------------------------
	   CLASS    FOCC     OCC    AOCC    AVIR     VIR    FVIR
	   PAIRS      37     131      94     900     900       0
	 --------------------------------------------------------

	-----------------------------------------------------------
	 ==================> DF-MP2 Energies <==================== 
	-----------------------------------------------------------
	 Reference Energy          =   -1572.3496108895424186 [Eh]
	 Singles Energy            =      -0.0000000000000000 [Eh]
	 Same-Spin Energy          =      -1.4724606583070943 [Eh]
	 Opposite-Spin Energy      =      -4.0505410621247000 [Eh]
	 Correlation Energy        =      -5.5230017204317940 [Eh]
	 Total Energy              =   -1577.8726126099741123 [Eh]
	-----------------------------------------------------------
	 ================> DF-SCS-MP2 Energies <================== 
	-----------------------------------------------------------
	 SCS Same-Spin Scale       =       0.3333333333333333 [-]
	 SCS Opposite-Spin Scale   =       1.2000000000000000 [-]
	 SCS Same-Spin Energy      =      -0.4908202194356981 [Eh]
	 SCS Opposite-Spin Energy  =      -4.8606492745496395 [Eh]
	 SCS Correlation Energy    =      -5.3514694939853378 [Eh]
	 SCS Total Energy          =   -1577.7010803835278239 [Eh]
	-----------------------------------------------------------


*** tstop() called on node57.bme.utexas.edu at Tue Apr 14 13:43:43 2020
Module time:
	user time   =    2791.62 seconds =      46.53 minutes
	system time =      31.57 seconds =       0.53 minutes
	total time  =        517 seconds =       8.62 minutes
Total time:
	user time   =    7261.48 seconds =     121.02 minutes
	system time =     363.54 seconds =       6.06 minutes
	total time  =       3590 seconds =      59.83 minutes


Properties will be evaluated at   0.000000,   0.000000,   0.000000 [a0]
OEProp: No title given, name of density matrix used for the following properties is 'SCF density'


  Wiberg Bond Indices using Orthogonal Lowdin Orbitals:

  Irrep: 1 Size: 68 x 68

                 1                   2                   3                   4                   5

    1     0.00000000000000     1.46492236818219     0.12506095753922     0.13972243510165     0.12446360117815
    2     1.46492236818219     0.00000000000000     1.40089737080603     0.12904672298519     0.12168032621344
    3     0.12506095753922     1.40089737080603     0.00000000000000     1.36022094916602     0.11827719971886
    4     0.13972243510165     0.12904672298519     1.36022094916602     0.00000000000000     1.65163465391254
    5     0.12446360117815     0.12168032621344     0.11827719971886     1.65163465391254     0.00000000000000
    6     1.46437339113080     0.13800974375197     0.13530761873673     0.15269297054518     1.62928991255693
    7     0.01474469713581     0.10372949431964     1.02128089065543     0.10419609595215     0.01378672973498
    8     0.00370976539533     0.04261082729339     0.09937746583563     0.02362848948112     0.00217905446830
    9     0.00038758118660     0.00492665608810     0.01495253518337     0.00414263044572     0.00063431557917
   10     0.00043506770116     0.00537171894059     0.00588312256903     0.00592952935622     0.00031155480878
   11     0.00082605691646     0.00334810586661     0.01787026793520     0.00650092475044     0.00039719591172
   12     0.00279226878491     0.02181847661138     0.11812976857068     0.05850836025994     0.00368658161810
   13     0.00014793531623     0.00046102346439     0.00159417594719     0.00080302867471     0.00007508483985
   14     0.00003027811890     0.00008947999600     0.00049113157341     0.00082035165723     0.00007041492231
   15     0.00001075841375     0.00001938805782     0.00006069807611     0.00012703329497     0.00001524706915
   16     0.00000185105288     0.00000365670928     0.00003081026487     0.00009573247746     0.00000581571617
   17     0.00001067957073     0.00001493447369     0.00004126714008     0.00016593748141     0.00002123431611
   18     0.00002206938705     0.00003428181172     0.00018526993013     0.00092392984139     0.00012001748752
   19     0.00012973988418     0.00019809895860     0.00154772464518     0.00773355772421     0.00045844308460
   20     0.00003938763964     0.00003682389578     0.00016200780084     0.00121423075449     0.00047460396152
   21     0.00021442755221     0.00019691522206     0.00057169926200     0.00764820542713     0.00304289684179
   22     0.00016990826469     0.00011260334802     0.00015970894304     0.00224482847143     0.00511391673926
   23     0.00001980560941     0.00001411399264     0.00002760041511     0.00019618075794     0.00051235634145
   24     0.00001577499032     0.00000755986034     0.00001955165151     0.00030894171774     0.00098830302334
   25     0.00001108172722     0.00000763711983     0.00001710632665     0.00015410220191     0.00040857571635
   26     0.00011978745358     0.00009507130412     0.00015761574612     0.00086958322106     0.00649582582378
   27     0.00061423552317     0.00037345235343     0.00059049841796     0.00705627267917     0.03185784834353
   28     0.00000240021088     0.00000121113417     0.00000191620310     0.00001921265840     0.00004295799663
   29     0.00000224731077     0.00000105038537     0.00000156814917     0.00000877196620     0.00001696538473
   30     0.00000127841330     0.00000043900046     0.00000085174939     0.00000324366732     0.00001086584717
   31     0.00000240844375     0.00000113294645     0.00000153503984     0.00001125437094     0.00003204326583
   32     0.00001528450201     0.00000481779612     0.00000354865189     0.00003369075522     0.00014685135441
   33     0.00000311404711     0.00000109546204     0.00000081872969     0.00000382392883     0.00001833177438
   34     0.00007515672679     0.00009204611921     0.00011205624383     0.00006724653261     0.00044171284197
   35     0.00002049389472     0.00000526177393     0.00000448172689     0.00002941098764     0.00014250770756
   36     0.00020846182392     0.00027258444744     0.00126865249318     0.01570464810301     0.00302823213757
   37     0.00000196136012     0.00000687401580     0.00003053524295     0.00003095988769     0.00000354995032
   38     0.88657671254133     0.07956395871894     0.01178624976616     0.00643310361876     0.01076530316049
   39     0.07759409606580     0.87039067110100     0.07276711633116     0.01180245020014     0.00399978853845
   40     0.00543359659924     0.01031875149154     0.06902820454433     0.84500597221366     0.08511967632346
   41     0.07695841243303     0.01181714422497     0.00605089645548     0.01601133957768     0.08825598891137
   42     0.00111904694759     0.01444388655510     0.01466858405855     0.00143466225211     0.00031062393983
   43     0.00004576258821     0.00028396683791     0.00143609045483     0.00032283032623     0.00007640494977
   44     0.00002343245246     0.00008080402116     0.00034499332256     0.00008501890428     0.00000749107010
   45     0.00000027723547     0.00000086741410     0.00000548664967     0.00001172464294     0.00000066372732
   46     0.00000079712984     0.00000135707858     0.00000666747675     0.00002069320107     0.00000246889291
   47     0.00008170469451     0.00018080880589     0.00169940902702     0.00674234172043     0.00050136363749
   48     0.00000724060919     0.00000449760434     0.00001263208534     0.00007711539469     0.00002942939040
   49     0.00000251031057     0.00000204753659     0.00000403011791     0.00002994164728     0.00004658927519
   50     0.00000106363878     0.00000058036720     0.00000141089610     0.00001719593277     0.00003578898229
   51     0.00002675169459     0.00002475338400     0.00003077677445     0.00007743526823     0.00059475134676
   52     0.00046329538003     0.00021821573463     0.00037121650793     0.00494478117479     0.02056108015431
   53     0.00000052290294     0.00000011836664     0.00000025715889     0.00000530006957     0.00001013407902
   54     0.00000061419721     0.00000018294640     0.00000037350392     0.00000369343223     0.00001198167629
   55     0.00000030564908     0.00000011851400     0.00000011410150     0.00000070209493     0.00000384803865
   56     0.00000064915372     0.00000009722272     0.00000019145404     0.00000034329733     0.00000146316692
   57     0.00000021565599     0.00000008326440     0.00000011257040     0.00000068094224     0.00000288949995
   58     0.00000144029028     0.00000173869191     0.00000099634468     0.00000892436975     0.00001769037723
   59     0.00000024792335     0.00000010352704     0.00000014043080     0.00000052873393     0.00000248758147
   60     0.00000015162282     0.00000005099538     0.00000006936084     0.00000014981038     0.00000092939752
   61     0.00000152963200     0.00000074170839     0.00000030716107     0.00000047098630     0.00000154811661
   62     0.00002311401584     0.00001497757144     0.00003548165580     0.00001322988790     0.00004901808936
   63     0.00002593922396     0.00007247567878     0.00005223920591     0.00009878565040     0.00084831190616
   64     0.00000341596847     0.00000069920151     0.00000067636660     0.00002011842212     0.00009170533243
   65     0.00000791352130     0.00000260558779     0.00000143536071     0.00000289857460     0.00003016233622
   66     0.00000082979761     0.00000212504506     0.00001045854663     0.00000826640945     0.00000058117925
   67     0.00000099558651     0.00000227377258     0.00001041277583     0.00000951850440     0.00000059685254
   68     0.00000015496672     0.00000080802674     0.00000386976623     0.00000626697292     0.00000042169817

                 6                   7                   8                   9                  10

    1     1.46437339113080     0.01474469713581     0.00370976539533     0.00038758118660     0.00043506770116
    2     0.13800974375197     0.10372949431964     0.04261082729339     0.00492665608810     0.00537171894059
    3     0.13530761873673     1.02128089065543     0.09937746583563     0.01495253518337     0.00588312256903
    4     0.15269297054518     0.10419609595215     0.02362848948112     0.00414263044572     0.00592952935622
    5     1.62928991255693     0.01378672973498     0.00217905446830     0.00063431557917     0.00031155480878
    6     0.00000000000000     0.00992718577180     0.00671200770561     0.00127095417388     0.00327528879559
    7     0.00992718577180     0.00000000000000     1.38316041460264     0.14599217607888     0.11230269341318
    8     0.00671200770561     1.38316041460264     0.00000000000000     1.43691772122028     0.13122650079084
    9     0.00127095417388     0.14599217607888     1.43691772122028     0.00000000000000     1.66037042244819
   10     0.00327528879559     0.11230269341318     0.13122650079084     1.66037042244819     0.00000000000000
   11     0.00081975529861     0.14290844187276     0.11446260592076     0.15183850043561     1.50598921343530
   12     0.00587534828852     1.53272638454900     0.12583421105848     0.11090845987509     0.11002637141112
   13     0.00006553847494     0.01916133295789     0.02018513186973     0.02429370227825     0.16200141047605
   14     0.00002907557639     0.00272047518274     0.00254518884829     0.00327902302020     0.01732927368420
   15     0.00000419447510     0.00045818496996     0.00142257128670     0.00092429955994     0.00316376411248
   16     0.00000185643649     0.00013033547644     0.00019604426010     0.00015664728023     0.00048664433611
   17     0.00000381739386     0.00023862840958     0.00135311587257     0.00042494798569     0.00132982261737
   18     0.00002400443048     0.00045689778021     0.00024329580156     0.00014073331917     0.00043385824454
   19     0.00015041817639     0.00513994997463     0.00312533647870     0.00143583350572     0.00429494565911
   20     0.00004367938252     0.00008740912522     0.00003005312632     0.00001565459537     0.00005292477971
   21     0.00034360319638     0.00017292236705     0.00005042022476     0.00001922195262     0.00002682579688
   22     0.00052636169932     0.00003926244977     0.00000801346234     0.00000252690107     0.00000487361870
   23     0.00012471900847     0.00000921621636     0.00000151393626     0.00000089870206     0.00000227437297
   24     0.00021593857053     0.00000401285309     0.00000102384406     0.00000031782982     0.00000043156558
   25     0.00010418653092     0.00000373463944     0.00000104274832     0.00000027690164     0.00000040989715
   26     0.00088326176558     0.00001863914694     0.00000693263354     0.00000139278579     0.00000087188474
   27     0.00361831038120     0.00009309661067     0.00002402727020     0.00000513363777     0.00000442420867
   28     0.00001699992006     0.00000063816245     0.00000014486096     0.00000004240237     0.00000008580964
   29     0.00001595088003     0.00000036620136     0.00000013734770     0.00000003238294     0.00000006048441
   30     0.00000869694949     0.00000018244610     0.00000007808818     0.00000002596887     0.00000005900522
   31     0.00003608740355     0.00000028022286     0.00000012834821     0.00000002831926     0.00000004350851
   32     0.00025773222684     0.00000053927732     0.00000031899455     0.00000009392911     0.00000009769427
   33     0.00003947784965     0.00000013296433     0.00000009861973     0.00000002287127     0.00000001459804
   34     0.00084309601714     0.00000561505074     0.00001066856813     0.00000161039636     0.00000497045241
   35     0.00023214568635     0.00000078757843     0.00000049505499     0.00000010404105     0.00000010982527
   36     0.00026481423077     0.00031541733978     0.00009061126320     0.00002291780457     0.00004337302827
   37     0.00000225175140     0.00014484815584     0.00013477549406     0.00013921585507     0.00078574448520
   38     0.08259346043644     0.00129756539096     0.00025736021885     0.00003981129193     0.00002725859175
   39     0.01176523151279     0.01633168095446     0.01521021224440     0.00120746395665     0.00041181143057
   40     0.01440395743707     0.01538341404148     0.00168265178001     0.00038964663395     0.00054414439596
   41     0.87905587466836     0.00054823708600     0.00026365249794     0.00005443216544     0.00010272752181
   42     0.00047702380273     0.07488705246346     0.87613754318995     0.08105409011534     0.01051907206813
   43     0.00004580786658     0.01166919277843     0.07526738263280     0.87543645569722     0.09056834552999
   44     0.00001092324221     0.00205909206912     0.00203413151622     0.00382664058293     0.03294626432390
   45     0.00000033062933     0.00001710089186     0.00000640682758     0.00002322107056     0.00005131219844
   46     0.00000075164095     0.00002395948842     0.00004678267155     0.00001766268444     0.00006032731074
   47     0.00017583628223     0.00378853228855     0.00088384646828     0.00034883526843     0.00074359317665
   48     0.00000354809479     0.00000754789061     0.00000547894120     0.00000326497911     0.00001149467401
   49     0.00000949076471     0.00000184079010     0.00000030761022     0.00000027146024     0.00000063902793
   50     0.00000817133517     0.00000029661002     0.00000005038783     0.00000002006741     0.00000001548830
   51     0.00017872274269     0.00000292779054     0.00000140818708     0.00000022240250     0.00000022751028
   52     0.00246636489103     0.00005562518468     0.00001772037773     0.00000365401129     0.00000191995266
   53     0.00000482387384     0.00000006303291     0.00000004305279     0.00000000699913     0.00000000888541
   54     0.00000330698880     0.00000015257918     0.00000002492978     0.00000000850806     0.00000000999328
   55     0.00000515586930     0.00000002999409     0.00000002184537     0.00000000958176     0.00000000679307
   56     0.00000402309636     0.00000004738079     0.00000001595363     0.00000000789175     0.00000000997360
   57     0.00000129317993     0.00000004121191     0.00000001072391     0.00000000531675     0.00000000264941
   58     0.00000722512877     0.00000021880321     0.00000012935096     0.00000004461368     0.00000004273734
   59     0.00000224388076     0.00000001423599     0.00000002316731     0.00000000393732     0.00000000933895
   60     0.00000100751585     0.00000001052885     0.00000000647273     0.00000000216981     0.00000000244373
   61     0.00000440688776     0.00000002537149     0.00000002734431     0.00000000623751     0.00000000740496
   62     0.00014891627265     0.00000172468433     0.00000313498823     0.00000051542379     0.00000140524481
   63     0.00073602338501     0.00000381215553     0.00000477215925     0.00000095985457     0.00000228317050
   64     0.00008331336614     0.00000010066165     0.00000014727987     0.00000004488265     0.00000002127564
   65     0.00005544201203     0.00000041568417     0.00000010552928     0.00000002033528     0.00000001740467
   66     0.00000048627044     0.00004697318607     0.00008933265810     0.00004847031931     0.00030685206613
   67     0.00000105250855     0.00004218737170     0.00010118596008     0.00003889959435     0.00028956538331
   68     0.00000016468762     0.00001395106556     0.00000554494127     0.00000431625205     0.00003318031027

                11                  12                  13                  14                  15

    1     0.00082605691646     0.00279226878491     0.00014793531623     0.00003027811890     0.00001075841375
    2     0.00334810586661     0.02181847661138     0.00046102346439     0.00008947999600     0.00001938805782
    3     0.01787026793520     0.11812976857068     0.00159417594719     0.00049113157341     0.00006069807611
    4     0.00650092475044     0.05850836025994     0.00080302867471     0.00082035165723     0.00012703329497
    5     0.00039719591172     0.00368658161810     0.00007508483985     0.00007041492231     0.00001524706915
    6     0.00081975529861     0.00587534828852     0.00006553847494     0.00002907557639     0.00000419447510
    7     0.14290844187276     1.53272638454900     0.01916133295789     0.00272047518274     0.00045818496996
    8     0.11446260592076     0.12583421105848     0.02018513186973     0.00254518884829     0.00142257128670
    9     0.15183850043561     0.11090845987509     0.02429370227825     0.00327902302020     0.00092429955994
   10     1.50598921343530     0.11002637141112     0.16200141047605     0.01732927368420     0.00316376411248
   11     0.00000000000000     1.54089602100313     1.26507331552746     0.08197885066839     0.01749279892664
   12     1.54089602100313     0.00000000000000     0.14044924504723     0.02808496797650     0.00326978106672
   13     1.26507331552746     0.14044924504723     0.00000000000000     1.12973678155017     0.10686526967497
   14     0.08197885066839     0.02808496797650     1.12973678155017     0.00000000000000     1.31247269566413
   15     0.01749279892664     0.00326978106672     0.10686526967497     1.31247269566413     0.00000000000000
   16     0.00232887169793     0.00093317202406     0.01441933022851     0.12461671397359     1.44696554829039
   17     0.00389632425280     0.00245330801153     0.01270969786949     0.12027166102356     0.12324128252199
   18     0.00231129463251     0.00426613904285     0.01366648646906     0.12361443464637     0.12143709779178
   19     0.02718509207526     0.05190336488716     0.11018660093172     1.40195955355932     0.12199346662948
   20     0.00030097940962     0.00069743642246     0.00120854461143     0.01446044047088     0.00941689786718
   21     0.00019268697756     0.00069083346000     0.00038295700041     0.00337121497449     0.00437589329151
   22     0.00003020780071     0.00014099149219     0.00003269651108     0.00039746993142     0.00029626334404
   23     0.00000875445680     0.00003186754266     0.00002410247112     0.00014837983101     0.00017810439374
   24     0.00000200639706     0.00000482247887     0.00000272704430     0.00002145619315     0.00002876850526
   25     0.00000199659507     0.00000697395291     0.00000110400856     0.00002069600032     0.00008290527344
   26     0.00000227285855     0.00000727203462     0.00000221380885     0.00001846999458     0.00003484746720
   27     0.00001551866125     0.00009235914624     0.00000840611638     0.00009486685357     0.00021542325409
   28     0.00000019866817     0.00000083282875     0.00000016091034     0.00000217121457     0.00000600234769
   29     0.00000011722342     0.00000044006078     0.00000007228354     0.00000107414386     0.00000480105189
   30     0.00000007871829     0.00000019550552     0.00000007776123     0.00000051746493     0.00000100972888
   31     0.00000009153933     0.00000033585093     0.00000008011576     0.00000041663350     0.00000033511298
   32     0.00000018758107     0.00000036957151     0.00000008817426     0.00000013131641     0.00000017844671
   33     0.00000003194662     0.00000011862411     0.00000001395868     0.00000007415974     0.00000007519192
   34     0.00000082060962     0.00000705293476     0.00000038808585     0.00000063150653     0.00000059755833
   35     0.00000012500523     0.00000048887140     0.00000005510743     0.00000048701232     0.00000067554806
   36     0.00028332531086     0.00120079427779     0.00055712896597     0.00432715528097     0.00214604821053
   37     0.00353359235570     0.00077991551088     0.03810305915600     0.09597859654057     1.05923871506972
   38     0.00008867605807     0.00031816965875     0.00001499783800     0.00000610008278     0.00000079341895
   39     0.00030756523527     0.00112053944314     0.00007533910928     0.00002423359639     0.00000461156440
   40     0.00248656487918     0.02251598342910     0.00032622240917     0.00073357149254     0.00013310692411
   41     0.00004332102966     0.00024297832736     0.00000546849938     0.00000369751413     0.00000062685282
   42     0.00580535374403     0.01066980426254     0.00103754333551     0.00011994490244     0.00006525705637
   43     0.01589244781962     0.00401685292537     0.00138244983447     0.00038976108298     0.00006258896136
   44     0.07393364045563     0.01141999830150     0.93334661156740     0.05985097199861     0.01513863366568
   45     0.00036785143336     0.00005576470980     0.00114726260664     0.01144082108494     0.07506557567443
   46     0.00015535852116     0.00016233139929     0.00060688756736     0.00561004064822     0.01108024560618
   47     0.00909860536962     0.03561759070482     0.01540980545120     0.07289055989439     0.00954722450096
   48     0.00003807865029     0.00003771595751     0.00022897050577     0.00159523222778     0.00202360552455
   49     0.00000356148070     0.00000711021212     0.00001154456071     0.00005164553047     0.00003069548575
   50     0.00000011715774     0.00000037393978     0.00000022417159     0.00000211357532     0.00000128043590
   51     0.00000033089799     0.00000080099816     0.00000038475983     0.00000290079804     0.00000326237082
   52     0.00000568010086     0.00003291650405     0.00000263901187     0.00001809671614     0.00001493425847
   53     0.00000004757016     0.00000007930524     0.00000004250150     0.00000048311970     0.00000072806973
   54     0.00000004760070     0.00000013880657     0.00000003717818     0.00000066477387     0.00000121210131
   55     0.00000000745522     0.00000003378886     0.00000000861131     0.00000011310643     0.00000011593400
   56     0.00000004651843     0.00000004364349     0.00000000936803     0.00000008371076     0.00000022198032
   57     0.00000000703454     0.00000002038045     0.00000000952646     0.00000003352149     0.00000004605094
   58     0.00000007368487     0.00000057141174     0.00000012020039     0.00000066936503     0.00000294079234
   59     0.00000001208614     0.00000001480522     0.00000000240914     0.00000002401675     0.00000002374198
   60     0.00000000470789     0.00000000849268     0.00000000137213     0.00000001812555     0.00000000499858
   61     0.00000000639797     0.00000002222484     0.00000000581434     0.00000000727481     0.00000000725282
   62     0.00000016431788     0.00000135410410     0.00000004426624     0.00000003332106     0.00000007264232
   63     0.00000074349118     0.00000117920964     0.00000013336702     0.00000041914869     0.00000066064373
   64     0.00000003213695     0.00000007083894     0.00000001678421     0.00000008309453     0.00000033501226
   65     0.00000003129628     0.00000015265854     0.00000001240263     0.00000009480961     0.00000007983914
   66     0.00083424204623     0.00028732821745     0.00990536974984     0.01628142668380     0.05701444217451
   67     0.00081620203304     0.00027548356817     0.00967920785121     0.01640588751428     0.05885090315985
   68     0.00022903191076     0.00006263728589     0.00201961538130     0.00895529071293     0.05987140266634

                16                  17                  18                  19                  20

    1     0.00000185105288     0.00001067957073     0.00002206938705     0.00012973988418     0.00003938763964
    2     0.00000365670928     0.00001493447369     0.00003428181172     0.00019809895860     0.00003682389578
    3     0.00003081026487     0.00004126714008     0.00018526993013     0.00154772464518     0.00016200780084
    4     0.00009573247746     0.00016593748141     0.00092392984139     0.00773355772421     0.00121423075449
    5     0.00000581571617     0.00002123431611     0.00012001748752     0.00045844308460     0.00047460396152
    6     0.00000185643649     0.00000381739386     0.00002400443048     0.00015041817639     0.00004367938252
    7     0.00013033547644     0.00023862840958     0.00045689778021     0.00513994997463     0.00008740912522
    8     0.00019604426010     0.00135311587257     0.00024329580156     0.00312533647870     0.00003005312632
    9     0.00015664728023     0.00042494798569     0.00014073331917     0.00143583350572     0.00001565459537
   10     0.00048664433611     0.00132982261737     0.00043385824454     0.00429494565911     0.00005292477971
   11     0.00232887169793     0.00389632425280     0.00231129463251     0.02718509207526     0.00030097940962
   12     0.00093317202406     0.00245330801153     0.00426613904285     0.05190336488716     0.00069743642246
   13     0.01441933022851     0.01270969786949     0.01366648646906     0.11018660093172     0.00120854461143
   14     0.12461671397359     0.12027166102356     0.12361443464637     1.40195955355932     0.01446044047088
   15     1.44696554829039     0.12324128252199     0.12143709779178     0.12199346662948     0.00941689786718
   16     0.00000000000000     1.44052107633617     0.13266374650376     0.12579482465429     0.01379031376788
   17     1.44052107633617     0.00000000000000     1.41374592777180     0.12379483712062     0.11303735721985
   18     0.13266374650376     1.41374592777180     0.00000000000000     1.36767013700819     1.11844028115082
   19     0.12579482465429     0.12379483712062     1.36767013700819     0.00000000000000     0.11682033648951
   20     0.01379031376788     0.11303735721985     1.11844028115082     0.11682033648951     0.00000000000000
   21     0.00266571835931     0.02086113275137     0.08832592123964     0.03337467867991     1.31213284379943
   22     0.00036671954577     0.00196810017397     0.01474613873814     0.00397015065222     0.10184553357249
   23     0.00012185245078     0.00081866731993     0.00364158781474     0.00107150885954     0.04040983944697
   24     0.00001728992634     0.00011498224816     0.00040346109930     0.00016289305041     0.00347010967397
   25     0.00002530147387     0.00019494991414     0.00042108320759     0.00022147594328     0.00351507049050
   26     0.00001861290063     0.00010578255143     0.00048319210387     0.00013656215291     0.00242165538971
   27     0.00011124019001     0.00062759923859     0.00243863809075     0.00095148412599     0.01832071583803
   28     0.00000204084767     0.00001599179220     0.00003828188615     0.00001842431044     0.00027258408825
   29     0.00000152042842     0.00000956361379     0.00002106602893     0.00001051352800     0.00016391009379
   30     0.00000043306234     0.00000252685585     0.00000458969030     0.00000243200452     0.00003646664178
   31     0.00000033441567     0.00000192775015     0.00000506702230     0.00000278980903     0.00003443901365
   32     0.00000013014795     0.00000071393977     0.00000159345278     0.00000056395450     0.00000785816083
   33     0.00000002907220     0.00000027167026     0.00000056792729     0.00000030001382     0.00000176969923
   34     0.00000027830608     0.00000235297176     0.00000536449191     0.00000200633454     0.00002793758923
   35     0.00000033522245     0.00000193972188     0.00000545014053     0.00000273830320     0.00003358581905
   36     0.00175369258092     0.00638181829171     0.03691836907170     0.03983772592963     0.19578401568582
   37     0.11559728423342     0.01439092544392     0.00750800586148     0.01398461632437     0.00057952227115
   38     0.00000025791264     0.00000048320518     0.00000292488608     0.00001722310039     0.00000321639105
   39     0.00000104057455     0.00000184732840     0.00000439469784     0.00003171466695     0.00000374891652
   40     0.00005713282415     0.00012326643648     0.00096583552243     0.00617065521036     0.00139282760449
   41     0.00000023733621     0.00000046914662     0.00000159135536     0.00000919445562     0.00000456249429
   42     0.00000956289777     0.00004909259800     0.00002587611723     0.00019611256475     0.00000468025200
   43     0.00001540428430     0.00000965644575     0.00001398805822     0.00009898321010     0.00000157546037
   44     0.00154934056335     0.00112983983239     0.00133067087703     0.01038596289024     0.00024923614240
   45     0.87212206128573     0.07966470768117     0.01187269026925     0.00584319340351     0.00116599105942
   46     0.07841617980668     0.87587747948408     0.07779935665732     0.01206445324288     0.01803595678101
   47     0.00535006122327     0.00981554638145     0.06966524969576     0.83087394119018     0.02053346422388
   48     0.00153000995301     0.01618401289597     0.06468146338846     0.01351378768381     0.94135135775951
   49     0.00003690652372     0.00029507107401     0.00127001780483     0.00030259587177     0.01463703016724
   50     0.00000158773972     0.00000899826226     0.00003282238791     0.00001551760614     0.00021087556824
   51     0.00000238603878     0.00001729304396     0.00006731536741     0.00001830847611     0.00026730540358
   52     0.00001865896013     0.00006012695624     0.00028623672308     0.00015759925377     0.00169143761033
   53     0.00000033101140     0.00000204398404     0.00000669912690     0.00000354056590     0.00003076415483
   54     0.00000032036633     0.00000296941925     0.00000670259153     0.00000497825052     0.00005874024854
   55     0.00000009284902     0.00000042497023     0.00000102378089     0.00000049660200     0.00000569626778
   56     0.00000005712716     0.00000044166354     0.00000101259332     0.00000049751225     0.00000735604767
   57     0.00000003175299     0.00000016792554     0.00000035778259     0.00000021552780     0.00000231213240
   58     0.00000077351510     0.00001060257926     0.00002204041503     0.00001202572962     0.00004711744527
   59     0.00000000600690     0.00000005756228     0.00000013441556     0.00000008606497     0.00000043923133
   60     0.00000000352837     0.00000001452846     0.00000010147576     0.00000002385686     0.00000032194505
   61     0.00000000385211     0.00000001574165     0.00000006281017     0.00000004599330     0.00000031265956
   62     0.00000002234073     0.00000028518357     0.00000031195203     0.00000015301056     0.00000222220233
   63     0.00000033139969     0.00000200028262     0.00000582684517     0.00000233167130     0.00002731797100
   64     0.00000006780004     0.00000089590708     0.00000108831552     0.00000063795117     0.00000721915778
   65     0.00000008258253     0.00000046428425     0.00000141357488     0.00000046475059     0.00000826796837
   66     0.01524730612891     0.00125832726742     0.00297861118572     0.00121986383896     0.00028042363462
   67     0.01514358281915     0.00124125470063     0.00292286047483     0.00126879281743     0.00026140698798
   68     0.02376668581647     0.00190334187173     0.00054698134241     0.00112627588013     0.00008261305446

                21                  22                  23                  24                  25

    1     0.00021442755221     0.00016990826469     0.00001980560941     0.00001577499032     0.00001108172722
    2     0.00019691522206     0.00011260334802     0.00001411399264     0.00000755986034     0.00000763711983
    3     0.00057169926200     0.00015970894304     0.00002760041511     0.00001955165151     0.00001710632665
    4     0.00764820542713     0.00224482847143     0.00019618075794     0.00030894171774     0.00015410220191
    5     0.00304289684179     0.00511391673926     0.00051235634145     0.00098830302334     0.00040857571635
    6     0.00034360319638     0.00052636169932     0.00012471900847     0.00021593857053     0.00010418653092
    7     0.00017292236705     0.00003926244977     0.00000921621636     0.00000401285309     0.00000373463944
    8     0.00005042022476     0.00000801346234     0.00000151393626     0.00000102384406     0.00000104274832
    9     0.00001922195262     0.00000252690107     0.00000089870206     0.00000031782982     0.00000027690164
   10     0.00002682579688     0.00000487361870     0.00000227437297     0.00000043156558     0.00000040989715
   11     0.00019268697756     0.00003020780071     0.00000875445680     0.00000200639706     0.00000199659507
   12     0.00069083346000     0.00014099149219     0.00003186754266     0.00000482247887     0.00000697395291
   13     0.00038295700041     0.00003269651108     0.00002410247112     0.00000272704430     0.00000110400856
   14     0.00337121497449     0.00039746993142     0.00014837983101     0.00002145619315     0.00002069600032
   15     0.00437589329151     0.00029626334404     0.00017810439374     0.00002876850526     0.00008290527344
   16     0.00266571835931     0.00036671954577     0.00012185245078     0.00001728992634     0.00002530147387
   17     0.02086113275137     0.00196810017397     0.00081866731993     0.00011498224816     0.00019494991414
   18     0.08832592123964     0.01474613873814     0.00364158781474     0.00040346109930     0.00042108320759
   19     0.03337467867991     0.00397015065222     0.00107150885954     0.00016289305041     0.00022147594328
   20     1.31213284379943     0.10184553357249     0.04040983944697     0.00347010967397     0.00351507049050
   21     0.00000000000000     0.97309416143722     0.10530170291564     0.01450669813580     0.01114355556460
   22     0.97309416143722     0.00000000000000     1.40187734530168     0.12770877142786     0.12374881512701
   23     0.10530170291564     1.40187734530168     0.00000000000000     1.46148788505495     0.12561513583694
   24     0.01450669813580     0.12770877142786     1.46148788505495     0.00000000000000     1.40142648590473
   25     0.01114355556460     0.12374881512701     0.12561513583694     1.40142648590473     0.00000000000000
   26     0.01479420377072     0.12723649778900     0.13008709636007     0.12556812891975     1.39845109135173
   27     0.11145679926670     1.38125822178401     0.12414400979344     0.12982132288901     0.12818189893495
   28     0.00073560679359     0.00913038665425     0.01439733264905     0.10894229412801     1.01618337555989
   29     0.00038340046300     0.00433568226379     0.00192658349648     0.02123419742849     0.08706559300363
   30     0.00009882536622     0.00103768979441     0.00189705486258     0.01535098460215     0.02124391220326
   31     0.00009641428984     0.00185984623931     0.00918183735361     0.02280349159831     0.01984101727594
   32     0.00006421764321     0.00066805449896     0.00101931126220     0.00251416929503     0.00405795977417
   33     0.00000846642635     0.00011151597485     0.00024565731878     0.00065488728177     0.00110625495886
   34     0.00008016228458     0.00172801974643     0.00196312477487     0.00456932729669     0.01933540734550
   35     0.00009211389633     0.00099316265998     0.00087049542560     0.00444829440791     0.02076948735076
   36     2.17357768756648     0.13714018347019     0.02532421373517     0.00337427013518     0.00609879887612
[...]
   15     0.00000022198032     0.00000004605094     0.00000294079234     0.00000002374198     0.00000000499858
   16     0.00000005712716     0.00000003175299     0.00000077351510     0.00000000600690     0.00000000352837
   17     0.00000044166354     0.00000016792554     0.00001060257926     0.00000005756228     0.00000001452846
   18     0.00000101259332     0.00000035778259     0.00002204041503     0.00000013441556     0.00000010147576
   19     0.00000049751225     0.00000021552780     0.00001202572962     0.00000008606497     0.00000002385686
   20     0.00000735604767     0.00000231213240     0.00004711744527     0.00000043923133     0.00000032194505
   21     0.00002749158026     0.00000932052369     0.00010024917979     0.00000175462518     0.00000081980943
   22     0.00022906807877     0.00011717580358     0.00208564662035     0.00001122638384     0.00001286022520
   23     0.00033421637458     0.00024921669210     0.00812516344089     0.00002222951524     0.00003342875933
   24     0.00083677832968     0.00077394002122     0.02028623697360     0.00008330088599     0.00006805259933
   25     0.00139397704850     0.00068634852752     0.01303807176256     0.00017111062887     0.00010012683545
   26     0.00049133144121     0.00023663001011     0.00417171446936     0.00008450424839     0.00004439391007
   27     0.00016349988518     0.00010740594249     0.00208829835794     0.00002298030073     0.00002562596156
   28     0.01193729300816     0.00105271422209     0.00631325099099     0.00063783156236     0.00011650339782
   29     0.06396633956843     0.01184662454983     0.01191256392061     0.00297755524459     0.00064374937010
   30     0.79592210042324     0.05765185099402     0.04436588238507     0.01236149183097     0.00386701598974
   31     0.04852371956802     0.85305283990461     0.79413619446741     0.01637081224400     0.02001624985218
   32     0.01327259494062     0.05354406044137     0.05836072760885     0.06824319996007     0.06286979268586
   33     0.01412794517568     0.02190332522397     0.01201396293890     0.91043029622377     0.91982394539138
   34     0.00779493655604     0.01430545159450     0.01983315525177     0.01632230435726     0.01259681568297
   35     0.02115087904022     0.00207675826039     0.00724945329110     0.01243108102506     0.00168623557117
   36     0.00001209390932     0.00000430310098     0.00006635217103     0.00000072826498     0.00000056041177
   37     0.00000001823702     0.00000000523146     0.00000017697961     0.00000000607198     0.00000000127120
   38     0.00000003636859     0.00000001946343     0.00000008832539     0.00000006007321     0.00000004306850
   39     0.00000001054084     0.00000000271627     0.00000009269335     0.00000000646985     0.00000000261777
   40     0.00000009455314     0.00000010147997     0.00000265416755     0.00000003484017     0.00000003160800
   41     0.00000432527626     0.00000046933180     0.00000146425200     0.00000068870453     0.00000025393540
   42     0.00000000114258     0.00000000134148     0.00000000984917     0.00000000103823     0.00000000092548
   43     0.00000000056557     0.00000000021805     0.00000000152927     0.00000000038202     0.00000000011455
   44     0.00000000052552     0.00000000139122     0.00000001167839     0.00000000022141     0.00000000010040
   45     0.00000000715840     0.00000000330141     0.00000006644051     0.00000000085421     0.00000000034434
   46     0.00000002538240     0.00000001878544     0.00000030630623     0.00000000985462     0.00000000248433
   47     0.00000011508041     0.00000002614184     0.00000052106802     0.00000001342354     0.00000001252968
   48     0.00001481056287     0.00000664525908     0.00002911482668     0.00000030627369     0.00000034145521
   49     0.00004084089692     0.00002494931609     0.00063018600275     0.00000216706187     0.00000301279194
   50     0.00011181455712     0.00014503083150     0.00348359568638     0.00003461870127     0.00001608893588
   51     0.00012551226878     0.00002007048546     0.00030093865612     0.00003978782270     0.00000830661909
   52     0.00001098492660     0.00000328443097     0.00005644695226     0.00000208669148     0.00000107562628
   53     0.00117115154651     0.00010119437760     0.00089756791865     0.00006572807414     0.00002081973904
   54     0.00053960213180     0.00032822917927     0.00037920353655     0.00006510239283     0.00002180005743
   55     0.02053674466885     0.00565464601880     0.00815783617284     0.00046237839088     0.00012689275170
   56     0.00000000000000     0.00914232727479     0.01937945464830     0.00689700624879     0.00151459955469
   57     0.00914232727479     0.00000000000000     0.01921167513366     0.00307033296623     0.00700763630346
   58     0.01937945464830     0.01921167513366     0.00000000000000     0.00094132752363     0.00104370409870
   59     0.00689700624879     0.00307033296623     0.00094132752363     0.00000000000000     0.03486141624783
   60     0.00151459955469     0.00700763630346     0.00104370409870     0.03486141624783     0.00000000000000
   61     0.00058250590380     0.00115178558902     0.00067001309122     0.03489255294513     0.03770139948080
   62     0.00042439632678     0.00122448379739     0.00091654644418     0.00297565284540     0.00114985415660
   63     0.00086993809910     0.00097075079497     0.00521058964482     0.00092561018555     0.00066700257467
   64     0.00538048773011     0.00040172127742     0.00084543327127     0.00700127295803     0.00059150782258
   65     0.00081985712669     0.00042635916318     0.00040238409004     0.00046549653833     0.00022719838963
   66     0.00000001291816     0.00000000379246     0.00000009165887     0.00000000061492     0.00000000018807
   67     0.00000000907313     0.00000000173446     0.00000007758619     0.00000000057760     0.00000000031076
   68     0.00000000173713     0.00000000065462     0.00000001693513     0.00000000057644     0.00000000021732

                61                  62                  63                  64                  65

    1     0.00000152963200     0.00002311401584     0.00002593922396     0.00000341596847     0.00000791352130
    2     0.00000074170839     0.00001497757144     0.00007247567878     0.00000069920151     0.00000260558779
    3     0.00000030716107     0.00003548165580     0.00005223920591     0.00000067636660     0.00000143536071
    4     0.00000047098630     0.00001322988790     0.00009878565040     0.00002011842212     0.00000289857460
    5     0.00000154811661     0.00004901808936     0.00084831190616     0.00009170533243     0.00003016233622
    6     0.00000440688776     0.00014891627265     0.00073602338501     0.00008331336614     0.00005544201203
    7     0.00000002537149     0.00000172468433     0.00000381215553     0.00000010066165     0.00000041568417
    8     0.00000002734431     0.00000313498823     0.00000477215925     0.00000014727987     0.00000010552928
    9     0.00000000623751     0.00000051542379     0.00000095985457     0.00000004488265     0.00000002033528
   10     0.00000000740496     0.00000140524481     0.00000228317050     0.00000002127564     0.00000001740467
   11     0.00000000639797     0.00000016431788     0.00000074349118     0.00000003213695     0.00000003129628
   12     0.00000002222484     0.00000135410410     0.00000117920964     0.00000007083894     0.00000015265854
   13     0.00000000581434     0.00000004426624     0.00000013336702     0.00000001678421     0.00000001240263
   14     0.00000000727481     0.00000003332106     0.00000041914869     0.00000008309453     0.00000009480961
   15     0.00000000725282     0.00000007264232     0.00000066064373     0.00000033501226     0.00000007983914
   16     0.00000000385211     0.00000002234073     0.00000033139969     0.00000006780004     0.00000008258253
   17     0.00000001574165     0.00000028518357     0.00000200028262     0.00000089590708     0.00000046428425
   18     0.00000006281017     0.00000031195203     0.00000582684517     0.00000108831552     0.00000141357488
   19     0.00000004599330     0.00000015301056     0.00000233167130     0.00000063795117     0.00000046475059
   20     0.00000031265956     0.00000222220233     0.00002731797100     0.00000721915778     0.00000826796837
   21     0.00000086688022     0.00000694034844     0.00010017001120     0.00002778820015     0.00001959273994
   22     0.00001192437792     0.00009819631965     0.00192560900932     0.00022292252783     0.00018531234387
   23     0.00002428513590     0.00010961703450     0.00199783793900     0.00014270162578     0.00015719049684
   24     0.00003986080646     0.00020650878538     0.00382128118496     0.00049200918130     0.00050010944202
   25     0.00009418814681     0.00072677872477     0.01256729050503     0.00139456086335     0.00572514757294
   26     0.00007147965168     0.00094411811978     0.02243353664256     0.00085570569915     0.00645754135526
   27     0.00003385966027     0.00027848923248     0.00876452452503     0.00033038808057     0.00046552692693
   28     0.00011610287861     0.00108239313158     0.00610458105303     0.01193828616319     0.02075245308472
   29     0.00062119971455     0.01101842521917     0.01166209235993     0.06412858689778     0.05419198890404
   30     0.00169657167966     0.00221485519257     0.00707502393018     0.02111485607984     0.01271473121247
   31     0.01268604812705     0.01370745149885     0.01973328513124     0.00782291415213     0.00231102894296
   32     0.06316911793245     0.05479919342567     0.05786381138318     0.01325491468827     0.01103442415654
   33     0.91984242284429     0.02102788234015     0.01196089785009     0.01424435953595     0.00147330550714
   34     0.01925886680501     0.86800669152842     0.78795140894037     0.04871901994370     0.05744195595178
   35     0.00377680204366     0.05843695233235     0.04381229321071     0.79412470993324     0.86909900373626
   36     0.00000041662859     0.00000316181708     0.00007079227615     0.00001304580297     0.00000593203247
   37     0.00000000324147     0.00000000655191     0.00000009934937     0.00000001979135     0.00000000719449
   38     0.00000043625825     0.00000556602713     0.00000223636914     0.00000044151074     0.00000037076314
   39     0.00000003590210     0.00000050783468     0.00000214638792     0.00000011480490     0.00000019002887
   40     0.00000007211451     0.00000137937800     0.00000598387168     0.00000168498815     0.00000032542452
   41     0.00000114188589     0.00011145840887     0.00018235211099     0.00000191571882     0.00001806495905
   42     0.00000000468008     0.00000008696981     0.00000032404037     0.00000000292337     0.00000000998175
   43     0.00000000020551     0.00000000607083     0.00000003571989     0.00000000333089     0.00000000255545
   44     0.00000000027842     0.00000000211653     0.00000005290879     0.00000000145911     0.00000000242174
   45     0.00000000043659     0.00000000215567     0.00000006576954     0.00000000377085     0.00000002641569
   46     0.00000000515128     0.00000004700983     0.00000052518154     0.00000019649542     0.00000009749540
   47     0.00000001003133     0.00000002840090     0.00000104000686     0.00000012716830     0.00000015995291
   48     0.00000018202007     0.00000087281226     0.00001109595306     0.00000318280623     0.00000151827482
   49     0.00000125638104     0.00000380104665     0.00005646806153     0.00001234605954     0.00002178298925
   50     0.00000677861565     0.00001852292419     0.00023397200373     0.00011503520144     0.00007166986127
   51     0.00001764107892     0.00022827721681     0.00425131400545     0.00012032416156     0.00300233040199
   52     0.00000283266122     0.00002416143358     0.00082429392499     0.00004069522936     0.00003009292272
   53     0.00002066970823     0.00030539085359     0.00035995993618     0.00052437763616     0.00106456135717
   54     0.00002038795647     0.00010548561272     0.00088594886217     0.00116062953244     0.00616484857984
   55     0.00022803390219     0.00038661281997     0.00038650209495     0.00082111332336     0.00117616633187
   56     0.00058250590380     0.00042439632678     0.00086993809910     0.00538048773011     0.00081985712669
   57     0.00115178558902     0.00122448379739     0.00097075079497     0.00040172127742     0.00042635916318
   58     0.00067001309122     0.00091654644418     0.00521058964482     0.00084543327127     0.00040238409004
   59     0.03489255294513     0.00297565284540     0.00092561018555     0.00700127295803     0.00046549653833
   60     0.03770139948080     0.00114985415660     0.00066700257467     0.00059150782258     0.00022719838963
   61     0.00000000000000     0.00661395256393     0.00102778825988     0.00151451770406     0.00012119832529
   62     0.00661395256393     0.00000000000000     0.02081296039869     0.00917156354218     0.00573312933776
   63     0.00102778825988     0.02081296039869     0.00000000000000     0.01978487610082     0.00827377815151
   64     0.00151451770406     0.00917156354218     0.01978487610082     0.00000000000000     0.02074082210204
   65     0.00012119832529     0.00573312933776     0.00827377815151     0.02074082210204     0.00000000000000
   66     0.00000000030386     0.00000000321459     0.00000006743825     0.00000001544933     0.00000000454224
   67     0.00000000040854     0.00000000290873     0.00000002558225     0.00000001298205     0.00000000184039
   68     0.00000000021187     0.00000000067777     0.00000002035418     0.00000000160422     0.00000000233512

                66                  67                  68

    1     0.00000082979761     0.00000099558651     0.00000015496672
    2     0.00000212504506     0.00000227377258     0.00000080802674
    3     0.00001045854663     0.00001041277583     0.00000386976623
    4     0.00000826640945     0.00000951850440     0.00000626697292
    5     0.00000058117925     0.00000059685254     0.00000042169817
    6     0.00000048627044     0.00000105250855     0.00000016468762
    7     0.00004697318607     0.00004218737170     0.00001395106556
    8     0.00008933265810     0.00010118596008     0.00000554494127
    9     0.00004847031931     0.00003889959435     0.00000431625205
   10     0.00030685206613     0.00028956538331     0.00003318031027
   11     0.00083424204623     0.00081620203304     0.00022903191076
   12     0.00028732821745     0.00027548356817     0.00006263728589
   13     0.00990536974984     0.00967920785121     0.00201961538130
   14     0.01628142668380     0.01640588751428     0.00895529071293
   15     0.05701444217451     0.05885090315985     0.05987140266634
   16     0.01524730612891     0.01514358281915     0.02376668581647
   17     0.00125832726742     0.00124125470063     0.00190334187173
   18     0.00297861118572     0.00292286047483     0.00054698134241
   19     0.00121986383896     0.00126879281743     0.00112627588013
   20     0.00028042363462     0.00026140698798     0.00008261305446
   21     0.00016482714073     0.00014675921847     0.00004230751719
   22     0.00001406049496     0.00000929508633     0.00000591763180
   23     0.00000779466124     0.00000557013272     0.00000247450373
   24     0.00000129394922     0.00000095832976     0.00000031571088
   25     0.00000402476050     0.00000287397847     0.00000032659564
   26     0.00000157289523     0.00000123862409     0.00000026556842
   27     0.00001039673938     0.00000678137192     0.00000160721381
   28     0.00000026065394     0.00000022785996     0.00000004915653
   29     0.00000023741081     0.00000016711650     0.00000002048209
   30     0.00000004151763     0.00000002222308     0.00000000874298
   31     0.00000001268786     0.00000001147380     0.00000000845985
   32     0.00000001074705     0.00000001075751     0.00000000787468
   33     0.00000000387409     0.00000000315946     0.00000000104666
   34     0.00000003257307     0.00000002539742     0.00000000802811
   35     0.00000003337325     0.00000001416043     0.00000000655099
   36     0.00009091396550     0.00006389732854     0.00001624877326
   37     0.91770854782948     0.91918130220721     0.92080730088490
   38     0.00000007793562     0.00000010197868     0.00000003687913
   39     0.00000020821273     0.00000043308674     0.00000010662407
   40     0.00000526451191     0.00000783632046     0.00000581951737
   41     0.00000004843419     0.00000008024919     0.00000002939392
   42     0.00000385010335     0.00000379647127     0.00000046954862
   43     0.00000324384874     0.00000286987782     0.00000062928681
   44     0.00535763391589     0.00409862358370     0.00107811170172
   45     0.00125110226001     0.00124222303708     0.00771935059195
   46     0.00022697476873     0.00023785507880     0.00013757461911
   47     0.00017655803795     0.00017450801360     0.00034787280907
   48     0.00007926588058     0.00007179104984     0.00002211364286
   49     0.00000129833629     0.00000093341004     0.00000100731379
   50     0.00000006578532     0.00000004468714     0.00000006326693
   51     0.00000013008277     0.00000017649304     0.00000006990915
   52     0.00000070723538     0.00000046921343     0.00000055550579
   53     0.00000004951860     0.00000002095704     0.00000001368367
   54     0.00000006148607     0.00000004025119     0.00000001205382
   55     0.00000000575257     0.00000000476563     0.00000000204034
   56     0.00000001291816     0.00000000907313     0.00000000173713
   57     0.00000000379246     0.00000000173446     0.00000000065462
   58     0.00000009165887     0.00000007758619     0.00000001693513
   59     0.00000000061492     0.00000000057760     0.00000000057644
   60     0.00000000018807     0.00000000031076     0.00000000021732
   61     0.00000000030386     0.00000000040854     0.00000000021187
   62     0.00000000321459     0.00000000290873     0.00000000067777
   63     0.00000006743825     0.00000002558225     0.00000002035418
   64     0.00000001544933     0.00000001298205     0.00000000160422
   65     0.00000000454224     0.00000000184039     0.00000000233512
   66     0.00000000000000     0.03540521266315     0.03899522243375
   67     0.03540521266315     0.00000000000000     0.03918315911649
   68     0.03899522243375     0.03918315911649     0.00000000000000



  Atomic Valences: 

 #  #
 Irrep: 1
      1:  4.3917315
      2:  4.4258449
      3:  4.6026719
      4:  4.5756944
      5:  3.9312669
      6:  4.5476648
      7:  4.7401419
      8:  4.3712697
      9:  4.5257057
     10:  3.8677114
     11:  5.0006045
     12:  3.9530734
     13:  4.0374200
     14:  4.6633696
     15:  4.6248873
     16:  4.4370963
     17:  4.3904363
     18:  4.6898839
     19:  4.4486128
     20:  4.0697630
     21:  5.0176628
     22:  4.6217107
     23:  4.4447432
     24:  4.4748535
     25:  4.7202852
     26:  4.4831093
     27:  4.4627967
     28:  4.5069828
     29:  4.2499180
     30:  4.5638571
     31:  4.5761207
     32:  4.2210804
     33:  4.2816496
     34:  4.5729400
     35:  4.5571292
     36:  2.7864082
     37:  4.1490608
     38:  1.0990957
     39:  1.1022349
     40:  1.1150289
     41:  1.0923947
     42:  1.1098973
     43:  1.0865572
     44:  1.1779988
     45:  1.1017983
     46:  1.0992755
     47:  1.1344989
     48:  1.1807049
     49:  1.1061034
     50:  1.1076260
     51:  1.1084012
     52:  1.1140243
     53:  1.1093837
     54:  1.1087562
     55:  1.0901866
     56:  1.0477676
     57:  1.0665183
     58:  1.0668439
     59:  1.1328827
     60:  1.1068721
     61:  1.1060288
     62:  1.0831786
     63:  1.0654788
     64:  1.0472719
     65:  1.0914098
     66:  1.1053330
     67:  1.1072117
     68:  1.1070017


    Psi4 stopped on: Tuesday, 14 April 2020 01:43PM
    Psi4 wall time for execution: 0:59:51.31

*** Psi4 exiting successfully. Buy a developer a beer!
