
    -----------------------------------------------------------------------
          Psi4: An Open-Source Ab Initio Electronic Structure Package
                               Psi4 1.3.2 release

                         Git: Rev {HEAD} ecbda83 


    R. M. Parrish, L. A. Burns, D. G. A. Smith, A. C. Simmonett,
    A. E. DePrince III, E. G. Hohenstein, U. Bozkaya, A. Yu. Sokolov,
    R. Di Remigio, R. M. Richard, J. F. Gonthier, A. M. James,
    H. R. McAlexander, A. Kumar, M. Saitow, X. Wang, B. P. Pritchard,
    P. Verma, H. F. Schaefer III, K. Patkowski, R. A. King, E. F. Valeev,
    F. A. Evangelista, J. M. Turney, T. D. Crawford, and C. D. Sherrill,
    J. Chem. Theory Comput. 13(7) pp 3185--3197 (2017).
    (doi: 10.1021/acs.jctc.7b00174)


                         Additional Contributions by
    P. Kraus, H. Kruse, M. H. Lechner, M. C. Schieber, R. A. Shaw,
    A. Alenaizan, R. Galvelis, Z. L. Glick, S. Lehtola, and J. P. Misiewicz

    -----------------------------------------------------------------------


    Psi4 started on: Tuesday, 14 April 2020 12:44PM

    Process ID: 109408
    Host:       node75.bme.utexas.edu
    PSIDATADIR: /home/bdw2292/miniconda3/envs/p4env/share/psi4
    Memory:     500.0 MiB
    Threads:    1
    
  ==> Input File <==

--------------------------------------------------------------------------
molecule { 
0 1
 C    0.540096    4.737249   -1.823382
 C    1.890078    4.540094   -1.500420
 C    2.360802    3.245170   -1.207613
 C    1.403045    2.206303   -1.305144
 N    0.108897    2.373800   -1.605979
 C   -0.308593    3.624734   -1.854866
 C    3.778740    2.934360   -0.796600
 C    4.840496    3.852734   -0.770362
 C    6.070515    3.347125   -0.330948
 N    6.274178    2.088178    0.053053
 C    5.198523    1.277069    0.003470
 N    3.989182    1.664327   -0.405496
 N    5.412153   -0.029022    0.417588
 C    4.575157   -1.203771    0.451672
 C    5.162926   -2.496738    0.598811
 C    4.294638   -3.602252    0.602291
 C    2.904697   -3.508186    0.463683
 C    2.338142   -2.236383    0.336922
 C    3.181958   -1.115679    0.346520
 N    0.946951   -1.946363    0.163694
 C   -0.139730   -2.757564   -0.067498
 C   -1.457827   -2.116353   -0.477520
 C   -1.641702   -0.751493   -0.763574
 C   -2.906533   -0.252044   -1.079195
 C   -4.035478   -1.088733   -1.137324
 C   -3.833341   -2.462857   -0.905851
 C   -2.569054   -2.970841   -0.595615
 C   -5.430732   -0.511441   -1.381379
 N   -6.191247    0.042109   -0.246891
 C   -5.807157    1.359106    0.313141
 C   -4.857297    1.302603    1.537589
 N   -5.336778    0.422342    2.628208
 C   -6.331471    0.992190    3.544919
 C   -5.642077   -0.913086    2.059330
 C   -6.601275   -0.874089    0.841636
 O   -0.069614   -3.971005    0.066819
 C    6.657839   -2.726455    0.739705
 H    0.152416    5.727578   -2.041688
 H    2.546748    5.405077   -1.458044
 H    1.694924    1.173392   -1.146071
 H   -1.365825    3.723856   -2.098431
 H    4.760413    4.892701   -1.064511
 H    6.959579    3.974037   -0.273381
 H    6.384716   -0.150262    0.656263
 H    4.711847   -4.603481    0.706036
 H    2.272911   -4.386877    0.446147
 H    2.744163   -0.135318    0.273772
 H    0.744498   -0.958425    0.139859
 H   -0.797942   -0.067655   -0.759024
 H   -3.010195    0.816358   -1.267070
 H   -4.680289   -3.148451   -0.939717
 H   -2.432351   -4.033460   -0.409065
 H   -5.348267    0.289235   -2.129942
 H   -6.057548   -1.299923   -1.822345
 H   -5.352863    2.062693   -0.546255
 H   -7.052735    2.006388    0.759124
 H   -4.676831    2.519257    2.019022
 H   -3.685697    0.854987    1.174998
 H   -7.271496    1.201767    3.021426
 H   -5.953179    1.924430    3.980638
 H   -6.533117    0.294708    4.366847
 H   -6.044991   -1.595472    2.882858
 H   -4.346527   -1.489213    1.616064
 H   -7.894036   -0.436737    1.302715
 H   -6.762792   -2.043327    0.381932
 H    7.090923   -2.195240    1.599068
 H    7.194529   -2.392194   -0.152125
 H    6.908103   -3.781721    0.875940
}
memory 20GB
set_num_threads(6)
psi4_io.set_default_path("/scratch/bdw2292")
set freeze_core True
E, wfn = energy('mp2/6-311++G**',return_wfn=True)
oeprop(wfn,"WIBERG_LOWDIN_INDICES")
clean()
--------------------------------------------------------------------------

  Memory set to  18.626 GiB by Python driver.
  Threads set to 6 by Python driver.
    SCF Algorithm Type (re)set to DF.

*** tstart() called on node75.bme.utexas.edu
*** at Tue Apr 14 12:44:22 2020

   => Loading Basis Set <=

    Name: 6-311++G**
    Role: ORBITAL
    Keyword: BASIS
    atoms 1-4, 6-9, 11, 14-19, 21-28, 30-31, 33-35, 37 entry C          line   119 file /home/bdw2292/miniconda3/envs/p4env/share/psi4/basis/6-311ppgss.gbs 
    atoms 5, 10, 12-13, 20, 29, 32                     entry N          line   140 file /home/bdw2292/miniconda3/envs/p4env/share/psi4/basis/6-311ppgss.gbs 
    atoms 36                                           entry O          line   161 file /home/bdw2292/miniconda3/envs/p4env/share/psi4/basis/6-311ppgss.gbs 
    atoms 38-68                                        entry H          line    42 file /home/bdw2292/miniconda3/envs/p4env/share/psi4/basis/6-311ppgss.gbs 


         ---------------------------------------------------------
                                   SCF
               by Justin Turney, Rob Parrish, Andy Simmonett
                          and Daniel G. A. Smith
                              RHF Reference
                        6 Threads,  19073 MiB Core
         ---------------------------------------------------------

  ==> Geometry <==

    Molecular point group: c1
    Full point group: C1

    Geometry (in Angstrom), charge = 0, multiplicity = 1:

       Center              X                  Y                   Z               Mass       
    ------------   -----------------  -----------------  -----------------  -----------------
         C            0.377912905664     4.681975946619    -1.773536258694    12.000000000000
         C            1.727894905664     4.484820946619    -1.450574258694    12.000000000000
         C            2.198618905664     3.189896946619    -1.157767258694    12.000000000000
         C            1.240861905664     2.151029946619    -1.255298258694    12.000000000000
         N           -0.053286094336     2.318526946619    -1.556133258694    14.003074004430
         C           -0.470776094336     3.569460946619    -1.805020258694    12.000000000000
         C            3.616556905664     2.879086946619    -0.746754258694    12.000000000000
         C            4.678312905664     3.797460946619    -0.720516258694    12.000000000000
         C            5.908331905664     3.291851946619    -0.281102258694    12.000000000000
         N            6.111994905664     2.032904946619     0.102898741306    14.003074004430
         C            5.036339905664     1.221795946619     0.053315741306    12.000000000000
         N            3.826998905664     1.609053946619    -0.355650258694    14.003074004430
         N            5.249969905664    -0.084295053381     0.467433741306    14.003074004430
         C            4.412973905664    -1.259044053381     0.501517741306    12.000000000000
         C            5.000742905664    -2.552011053381     0.648656741306    12.000000000000
         C            4.132454905664    -3.657525053381     0.652136741306    12.000000000000
         C            2.742513905664    -3.563459053381     0.513528741306    12.000000000000
         C            2.175958905664    -2.291656053381     0.386767741306    12.000000000000
         C            3.019774905664    -1.170952053381     0.396365741306    12.000000000000
         N            0.784767905664    -2.001636053381     0.213539741306    14.003074004430
         C           -0.301913094336    -2.812837053381    -0.017652258694    12.000000000000
         C           -1.620010094336    -2.171626053381    -0.427674258694    12.000000000000
         C           -1.803885094336    -0.806766053381    -0.713728258694    12.000000000000
         C           -3.068716094336    -0.307317053381    -1.029349258694    12.000000000000
         C           -4.197661094336    -1.144006053381    -1.087478258694    12.000000000000
         C           -3.995524094336    -2.518130053381    -0.856005258694    12.000000000000
         C           -2.731237094336    -3.026114053381    -0.545769258694    12.000000000000
         C           -5.592915094336    -0.566714053381    -1.331533258694    12.000000000000
         N           -6.353430094336    -0.013164053381    -0.197045258694    14.003074004430
         C           -5.969340094336     1.303832946619     0.362986741306    12.000000000000
         C           -5.019480094336     1.247329946619     1.587434741306    12.000000000000
         N           -5.498961094336     0.367068946619     2.678053741306    14.003074004430
         C           -6.493654094336     0.936916946619     3.594764741306    12.000000000000
         C           -5.804260094336    -0.968359053381     2.109175741306    12.000000000000
         C           -6.763458094336    -0.929362053381     0.891481741306    12.000000000000
         O           -0.231797094336    -4.026278053381     0.116664741306    15.994914619570
         C            6.495655905664    -2.781728053381     0.789550741306    12.000000000000
         H           -0.009767094336     5.672304946619    -1.991842258694     1.007825032230
         H            2.384564905664     5.349803946619    -1.408198258694     1.007825032230
         H            1.532740905664     1.118118946619    -1.096225258694     1.007825032230
         H           -1.528008094336     3.668582946619    -2.048585258694     1.007825032230
         H            4.598229905664     4.837427946619    -1.014665258694     1.007825032230
         H            6.797395905664     3.918763946619    -0.223535258694     1.007825032230
         H            6.222532905664    -0.205535053381     0.706108741306     1.007825032230
         H            4.549663905664    -4.658754053381     0.755881741306     1.007825032230
         H            2.110727905664    -4.442150053381     0.495992741306     1.007825032230
         H            2.581979905664    -0.190591053381     0.323617741306     1.007825032230
         H            0.582314905664    -1.013698053381     0.189704741306     1.007825032230
         H           -0.960125094336    -0.122928053381    -0.709178258694     1.007825032230
         H           -3.172378094336     0.761084946619    -1.217224258694     1.007825032230
         H           -4.842472094336    -3.203724053381    -0.889871258694     1.007825032230
         H           -2.594534094336    -4.088733053381    -0.359219258694     1.007825032230
         H           -5.510450094336     0.233961946619    -2.080096258694     1.007825032230
         H           -6.219731094336    -1.355196053381    -1.772499258694     1.007825032230
         H           -5.515046094336     2.007419946619    -0.496409258694     1.007825032230
         H           -7.214918094336     1.951114946619     0.808969741306     1.007825032230
         H           -4.839014094336     2.463983946619     2.068867741306     1.007825032230
         H           -3.847880094336     0.799713946619     1.224843741306     1.007825032230
         H           -7.433679094336     1.146493946619     3.071271741306     1.007825032230
         H           -6.115362094336     1.869156946619     4.030483741306     1.007825032230
         H           -6.695300094336     0.239434946619     4.416692741306     1.007825032230
         H           -6.207174094336    -1.650745053381     2.932703741306     1.007825032230
         H           -4.508710094336    -1.544486053381     1.665909741306     1.007825032230
         H           -8.056219094336    -0.492010053381     1.352560741306     1.007825032230
         H           -6.924975094336    -2.098600053381     0.431777741306     1.007825032230
         H            6.928739905664    -2.250513053381     1.648913741306     1.007825032230
         H            7.032345905664    -2.447467053381    -0.102279258694     1.007825032230
         H            6.745919905664    -3.836994053381     0.925785741306     1.007825032230

  Running in c1 symmetry.

  Rotational constants: A =      0.00462  B =      0.00175  C =      0.00140 [cm^-1]
  Rotational constants: A =    138.47262  B =     52.37640  C =     41.83152 [MHz]
  Nuclear repulsion = 3725.249026078990937

  Charge       = 0
  Multiplicity = 1
  Electrons    = 262
  Nalpha       = 131
  Nbeta        = 131

  ==> Algorithm <==

  SCF Algorithm Type is DF.
  DIIS enabled.
  MOM disabled.
  Fractional occupation disabled.
  Guess Type is SAD.
  Energy threshold   = 1.00e-08
  Density threshold  = 1.00e-08
  Integral threshold = 0.00e+00

  ==> Primary Basis <==

  Basis Set: 6-311++G**
    Blend: 6-311++G**
    Number of shells: 525
    Number of basis function: 1031
    Number of Cartesian functions: 1068
    Spherical Harmonics?: true
    Max angular momentum: 2

   => Loading Basis Set <=

    Name: (6-311++G** AUX)
    Role: JKFIT
    Keyword: DF_BASIS_SCF
    atoms 1-4, 6-9, 11, 14-19, 21-28, 30-31, 33-35, 37 entry C          line   162 file /home/bdw2292/miniconda3/envs/p4env/share/psi4/basis/aug-cc-pvtz-jkfit.gbs 
    atoms 5, 10, 12-13, 20, 29, 32                     entry N          line   224 file /home/bdw2292/miniconda3/envs/p4env/share/psi4/basis/aug-cc-pvtz-jkfit.gbs 
    atoms 36                                           entry O          line   286 file /home/bdw2292/miniconda3/envs/p4env/share/psi4/basis/aug-cc-pvtz-jkfit.gbs 
    atoms 38-68                                        entry H          line    70 file /home/bdw2292/miniconda3/envs/p4env/share/psi4/basis/aug-cc-pvtz-jkfit.gbs 

  ==> Pre-Iterations <==

   -------------------------------------------------------
    Irrep   Nso     Nmo     Nalpha   Nbeta   Ndocc  Nsocc
   -------------------------------------------------------
     A       1031    1031       0       0       0       0
   -------------------------------------------------------
    Total    1031    1031     131     131     131       0
   -------------------------------------------------------

  ==> Integral Setup <==

  ==> DiskDFJK: Density-Fitted J/K Matrices <==

    J tasked:                  Yes
    K tasked:                  Yes
    wK tasked:                  No
    OpenMP threads:              6
    Integrals threads:           6
    Memory [MiB]:            14305
    Algorithm:                Core
    Integral Cache:           NONE
    Schwarz Cutoff:          1E-12
    Fitting Condition:       1E-10

   => Auxiliary Basis Set <=

  Basis Set: (6-311++G** AUX)
    Blend: AUG-CC-PVTZ-JKFIT
    Number of shells: 1544
    Number of basis function: 5274
    Number of Cartesian functions: 6552
    Spherical Harmonics?: true
    Max angular momentum: 4

  Minimum eigenvalue in the overlap matrix is 1.5354809311E-07.
  Using Symmetric Orthogonalization.

  SCF Guess: Superposition of Atomic Densities via on-the-fly atomic UHF.

  ==> Iterations <==

                           Total Energy        Delta E     RMS |[F,P]|

   @DF-RHF iter SAD: -1571.29550496853813   -1.57130e+03   0.00000e+00 
   @DF-RHF iter   1: -1571.39138313588796   -9.58782e-02   1.21172e-03 DIIS
   @DF-RHF iter   2: -1572.15512957484771   -7.63746e-01   6.35343e-04 DIIS
   @DF-RHF iter   3: -1572.34454207905537   -1.89413e-01   1.64614e-04 DIIS
   @DF-RHF iter   4: -1572.36150339723463   -1.69613e-02   6.51700e-05 DIIS
   @DF-RHF iter   5: -1572.36404185063884   -2.53845e-03   1.35293e-05 DIIS
   @DF-RHF iter   6: -1572.36419608740744   -1.54237e-04   5.95982e-06 DIIS
   @DF-RHF iter   7: -1572.36423181921805   -3.57318e-05   1.96586e-06 DIIS
   @DF-RHF iter   8: -1572.36423757748571   -5.75827e-06   7.88173e-07 DIIS
   @DF-RHF iter   9: -1572.36423857525233   -9.97767e-07   3.34474e-07 DIIS
   @DF-RHF iter  10: -1572.36423878888445   -2.13632e-07   1.51394e-07 DIIS
   @DF-RHF iter  11: -1572.36423883504904   -4.61646e-08   7.33496e-08 DIIS
   @DF-RHF iter  12: -1572.36423884742362   -1.23746e-08   2.92054e-08 DIIS
   @DF-RHF iter  13: -1572.36423885003046   -2.60684e-09   1.23907e-08 DIIS
   @DF-RHF iter  14: -1572.36423885028921   -2.58751e-10   5.88124e-09 DIIS
  Energy and wave function converged.


  ==> Post-Iterations <==

    Orbital Energies [Eh]
    ---------------------

    Doubly Occupied:                                                      

       1A    -20.518349     2A    -15.604014     3A    -15.599991  
       4A    -15.588190     5A    -15.574048     6A    -15.568735  
       7A    -15.567535     8A    -15.553295     9A    -11.375125  
      10A    -11.364238    11A    -11.335074    12A    -11.314313  
      13A    -11.313896    14A    -11.311258    15A    -11.302719  
      16A    -11.301685    17A    -11.301000    18A    -11.300238  
      19A    -11.297277    20A    -11.292033    21A    -11.290819  
      22A    -11.281639    23A    -11.275783    24A    -11.267171  
      25A    -11.256135    26A    -11.255431    27A    -11.253420  
      28A    -11.253369    29A    -11.246910    30A    -11.246474  
      31A    -11.246359    32A    -11.243038    33A    -11.242186  
      34A    -11.238949    35A    -11.233188    36A    -11.229441  
      37A    -11.223663    38A     -1.384525    39A     -1.345036  
      40A     -1.279896    41A     -1.249804    42A     -1.243134  
      43A     -1.240717    44A     -1.209751    45A     -1.198210  
      46A     -1.159223    47A     -1.139019    48A     -1.116887  
      49A     -1.075904    50A     -1.057487    51A     -1.049139  
      52A     -1.036996    53A     -1.020977    54A     -1.007299  
      55A     -0.990640    56A     -0.975262    57A     -0.946160  
      58A     -0.927422    59A     -0.926864    60A     -0.901222  
      61A     -0.873666    62A     -0.864290    63A     -0.858663  
      64A     -0.841049    65A     -0.833279    66A     -0.826834  
      67A     -0.823830    68A     -0.803490    69A     -0.777353  
      70A     -0.754795    71A     -0.740503    72A     -0.730329  
      73A     -0.722503    74A     -0.701285    75A     -0.695097  
      76A     -0.683041    77A     -0.670996    78A     -0.666526  
      79A     -0.658337    80A     -0.652424    81A     -0.651261  
      82A     -0.639280    83A     -0.634033    84A     -0.629708  
      85A     -0.622306    86A     -0.617052    87A     -0.610894  
      88A     -0.607341    89A     -0.604862    90A     -0.602824  
      91A     -0.601343    92A     -0.596842    93A     -0.592144  
      94A     -0.589553    95A     -0.586502    96A     -0.580106  
      97A     -0.577526    98A     -0.573948    99A     -0.563977  
     100A     -0.562765   101A     -0.546769   102A     -0.545615  
     103A     -0.527913   104A     -0.525680   105A     -0.521573  
     106A     -0.520010   107A     -0.513332   108A     -0.509240  
     109A     -0.507400   110A     -0.502740   111A     -0.502336  
     112A     -0.490519   113A     -0.484502   114A     -0.480415  
     115A     -0.459051   116A     -0.452221   117A     -0.444040  
     118A     -0.432562   119A     -0.426923   120A     -0.424798  
     121A     -0.414348   122A     -0.407582   123A     -0.401246  
     124A     -0.379880   125A     -0.374162   126A     -0.347079  
     127A     -0.344377   128A     -0.339125   129A     -0.314347  
     130A     -0.310913   131A     -0.289127  

    Virtual:                                                              

     132A      0.025816   133A      0.034216   134A      0.040861  
     135A      0.041440   136A      0.044616   137A      0.047896  
     138A      0.048537   139A      0.055496   140A      0.058175  
     141A      0.061677   142A      0.063159   143A      0.066553  
     144A      0.067870   145A      0.069512   146A      0.072250  
     147A      0.073645   148A      0.076229   149A      0.079540  
     150A      0.083943   151A      0.085465   152A      0.086656  
     153A      0.088895   154A      0.092138   155A      0.097556  
     156A      0.098535   157A      0.101068   158A      0.102336  
     159A      0.103661   160A      0.109038   161A      0.110150  
     162A      0.112990   163A      0.114259   164A      0.116200  
     165A      0.118342   166A      0.120797   167A      0.122062  
     168A      0.124593   169A      0.125819   170A      0.130030  
     171A      0.133204   172A      0.139797   173A      0.143160  
     174A      0.145109   175A      0.146694   176A      0.148798  
     177A      0.149839   178A      0.151240   179A      0.154181  
     180A      0.155843   181A      0.157956   182A      0.161267  
     183A      0.162602   184A      0.163604   185A      0.165646  
     186A      0.168581   187A      0.170466   188A      0.171320  
     189A      0.174761   190A      0.176209   191A      0.178525  
     192A      0.179487   193A      0.180385   194A      0.182299  
     195A      0.183491   196A      0.185646   197A      0.187412  
     198A      0.190296   199A      0.191856   200A      0.192378  
     201A      0.196562   202A      0.199607   203A      0.199911  
     204A      0.203071   205A      0.205296   206A      0.206625  
     207A      0.208877   208A      0.209609   209A      0.210037  
     210A      0.211531   211A      0.214168   212A      0.215142  
     213A      0.215930   214A      0.218152   215A      0.221309  
     216A      0.222613   217A      0.223582   218A      0.224494  
     219A      0.226125   220A      0.228130   221A      0.229583  
     222A      0.231603   223A      0.233213   224A      0.233880  
     225A      0.237643   226A      0.239545   227A      0.241120  
     228A      0.242026   229A      0.244147   230A      0.246273  
     231A      0.250961   232A      0.254845   233A      0.256821  
     234A      0.258540   235A      0.260403   236A      0.261860  
     237A      0.265493   238A      0.266375   239A      0.269204  
     240A      0.271030   241A      0.273911   242A      0.277339  
     243A      0.277540   244A      0.278873   245A      0.280658  
     246A      0.282388   247A      0.286101   248A      0.288060  
     249A      0.289852   250A      0.291414   251A      0.294664  
     252A      0.297423   253A      0.300732   254A      0.302127  
     255A      0.304844   256A      0.308930   257A      0.309724  
     258A      0.311403   259A      0.314832   260A      0.317273  
     261A      0.320124   262A      0.321695   263A      0.323174  
     264A      0.326276   265A      0.328021   266A      0.328230  
     267A      0.334239   268A      0.336455   269A      0.338199  
     270A      0.338349   271A      0.341776   272A      0.345073  
     273A      0.347377   274A      0.348322   275A      0.351624  
     276A      0.352368   277A      0.354163   278A      0.356273  
     279A      0.358103   280A      0.362183   281A      0.362212  
     282A      0.364967   283A      0.367148   284A      0.367845  
     285A      0.370256   286A      0.372715   287A      0.372814  
     288A      0.374248   289A      0.376558   290A      0.378675  
     291A      0.380489   292A      0.385060   293A      0.387010  
     294A      0.387362   295A      0.389112   296A      0.391462  
     297A      0.392047   298A      0.393625   299A      0.393924  
     300A      0.397385   301A      0.399230   302A      0.400227  
     303A      0.400610   304A      0.405143   305A      0.407001  
     306A      0.409089   307A      0.410949   308A      0.412508  
     309A      0.413015   310A      0.415376   311A      0.416307  
     312A      0.417488   313A      0.418655   314A      0.420850  
     315A      0.422591   316A      0.423778   317A      0.426843  
     318A      0.428234   319A      0.430398   320A      0.431965  
     321A      0.433466   322A      0.435717   323A      0.439546  
     324A      0.440189   325A      0.441485   326A      0.444299  
     327A      0.448473   328A      0.449046   329A      0.450985  
     330A      0.451402   331A      0.453263   332A      0.457833  
     333A      0.460171   334A      0.460848   335A      0.462233  
     336A      0.467391   337A      0.469537   338A      0.470706  
     339A      0.477058   340A      0.479070   341A      0.482111  
     342A      0.483473   343A      0.486526   344A      0.487760  
     345A      0.496261   346A      0.496851   347A      0.498349  
     348A      0.499990   349A      0.501579   350A      0.504572  
     351A      0.508684   352A      0.511701   353A      0.513295  
     354A      0.514686   355A      0.520399   356A      0.522896  
     357A      0.524711   358A      0.525323   359A      0.527013  
     360A      0.530638   361A      0.534074   362A      0.539746  
     363A      0.543040   364A      0.544001   365A      0.548833  
     366A      0.551077   367A      0.555918   368A      0.558375  
     369A      0.561578   370A      0.565054   371A      0.569897  
     372A      0.577535   373A      0.579069   374A      0.589143  
     375A      0.589665   376A      0.598971   377A      0.600333  
     378A      0.604444   379A      0.608545   380A      0.614634  
     381A      0.618549   382A      0.624272   383A      0.628692  
     384A      0.632705   385A      0.635273   386A      0.645109  
     387A      0.653228   388A      0.665680   389A      0.682775  
     390A      0.687450   391A      0.691421   392A      0.694132  
     393A      0.704455   394A      0.710432   395A      0.711743  
     396A      0.716675   397A      0.721224   398A      0.726865  
     399A      0.731314   400A      0.733122   401A      0.740383  
     402A      0.746312   403A      0.751728   404A      0.760195  
     405A      0.761829   406A      0.762990   407A      0.766623  
     408A      0.770217   409A      0.772203   410A      0.774325  
     411A      0.776890   412A      0.777679   413A      0.785636  
     414A      0.793000   415A      0.795452   416A      0.797788  
     417A      0.798935   418A      0.804881   419A      0.811272  
     420A      0.815372   421A      0.816395   422A      0.817477  
     423A      0.821537   424A      0.823199   425A      0.827946  
     426A      0.829631   427A      0.834243   428A      0.837811  
     429A      0.841910   430A      0.846089   431A      0.849839  
     432A      0.854803   433A      0.856376   434A      0.859882  
     435A      0.862213   436A      0.868127   437A      0.871282  
     438A      0.873349   439A      0.877622   440A      0.880377  
     441A      0.886586   442A      0.889795   443A      0.890561  
     444A      0.893781   445A      0.894598   446A      0.902263  
     447A      0.905526   448A      0.906088   449A      0.910782  
     450A      0.913598   451A      0.915356   452A      0.916729  
     453A      0.921565   454A      0.925691   455A      0.926602  
     456A      0.930908   457A      0.933057   458A      0.936976  
     459A      0.940185   460A      0.941776   461A      0.943473  
     462A      0.947071   463A      0.948773   464A      0.952275  
     465A      0.955478   466A      0.963602   467A      0.966909  
     468A      0.969323   469A      0.973014   470A      0.976078  
     471A      0.979412   472A      0.980681   473A      0.985324  
     474A      0.993684   475A      0.994679   476A      1.000841  
     477A      1.001684   478A      1.005992   479A      1.008061  
     480A      1.012870   481A      1.016172   482A      1.021096  
     483A      1.027671   484A      1.030481   485A      1.033287  
     486A      1.037381   487A      1.043729   488A      1.049631  
     489A      1.055040   490A      1.055945   491A      1.061286  
     492A      1.065046   493A      1.068204   494A      1.071994  
     495A      1.077718   496A      1.080169   497A      1.088960  
     498A      1.092869   499A      1.095491   500A      1.100195  
     501A      1.104407   502A      1.112182   503A      1.114903  
     504A      1.118780   505A      1.129542   506A      1.135399  
     507A      1.141531   508A      1.143391   509A      1.147688  
     510A      1.152011   511A      1.155168   512A      1.156800  
     513A      1.158562   514A      1.160578   515A      1.169362  
     516A      1.171722   517A      1.176622   518A      1.180393  
     519A      1.185153   520A      1.185426   521A      1.188881  
     522A      1.190858   523A      1.193320   524A      1.199948  
     525A      1.201863   526A      1.205609   527A      1.208062  
     528A      1.212914   529A      1.217464   530A      1.225293  
     531A      1.226488   532A      1.231067   533A      1.235082  
     534A      1.237390   535A      1.242195   536A      1.244709  
     537A      1.249395   538A      1.251127   539A      1.256692  
     540A      1.257876   541A      1.265954   542A      1.268197  
     543A      1.273632   544A      1.279531   545A      1.281784  
     546A      1.286584   547A      1.288030   548A      1.291123  
     549A      1.293485   550A      1.299983   551A      1.303576  
     552A      1.315795   553A      1.317189   554A      1.321685  
     555A      1.326798   556A      1.329758   557A      1.339456  
     558A      1.344308   559A      1.347699   560A      1.352520  
     561A      1.363122   562A      1.365978   563A      1.370502  
     564A      1.375385   565A      1.389266   566A      1.391248  
     567A      1.393675   568A      1.402260   569A      1.410645  
     570A      1.412260   571A      1.426720   572A      1.434936  
     573A      1.436437   574A      1.441078   575A      1.444194  
     576A      1.451039   577A      1.453370   578A      1.464848  
     579A      1.469428   580A      1.474578   581A      1.489001  
     582A      1.491616   583A      1.502176   584A      1.505111  
     585A      1.523686   586A      1.527531   587A      1.532591  
     588A      1.545295   589A      1.557536   590A      1.562101  
     591A      1.571169   592A      1.580940   593A      1.587674  
     594A      1.601498   595A      1.615327   596A      1.619191  
     597A      1.635315   598A      1.637936   599A      1.644450  
     600A      1.655525   601A      1.659864   602A      1.663706  
     603A      1.680215   604A      1.691641   605A      1.695428  
     606A      1.705271   607A      1.716859   608A      1.724837  
     609A      1.725790   610A      1.731548   611A      1.736660  
     612A      1.744039   613A      1.749122   614A      1.759660  
     615A      1.762043   616A      1.769395   617A      1.772209  
     618A      1.782652   619A      1.783671   620A      1.785663  
     621A      1.791165   622A      1.793271   623A      1.800963  
     624A      1.804458   625A      1.808556   626A      1.815636  
     627A      1.815885   628A      1.820804   629A      1.821835  
     630A      1.823768   631A      1.829807   632A      1.837504  
     633A      1.838986   634A      1.841649   635A      1.847810  
     636A      1.852284   637A      1.855519   638A      1.859632  
     639A      1.861921   640A      1.863508   641A      1.866848  
     642A      1.868311   643A      1.876706   644A      1.885646  
     645A      1.889185   646A      1.893795   647A      1.899472  
     648A      1.901823   649A      1.918956   650A      1.924430  
     651A      1.926122   652A      1.930216   653A      1.935389  
     654A      1.940600   655A      1.943497   656A      1.957257  
     657A      1.958132   658A      1.960913   659A      1.963622  
     660A      1.971171   661A      1.972144   662A      1.975386  
     663A      1.978177   664A      1.980542   665A      1.990824  
     666A      1.998922   667A      2.001185   668A      2.004157  
     669A      2.007192   670A      2.008455   671A      2.014243  
     672A      2.015977   673A      2.023344   674A      2.027174  
     675A      2.029858   676A      2.037961   677A      2.047978  
     678A      2.053370   679A      2.054229   680A      2.056900  
     681A      2.067260   682A      2.071287   683A      2.076472  
     684A      2.077618   685A      2.084529   686A      2.089069  
     687A      2.094412   688A      2.099900   689A      2.102335  
     690A      2.115283   691A      2.122427   692A      2.133084  
     693A      2.139755   694A      2.144707   695A      2.153069  
     696A      2.157392   697A      2.165631   698A      2.171491  
     699A      2.173691   700A      2.180758   701A      2.184254  
     702A      2.193377   703A      2.197728   704A      2.209237  
     705A      2.215907   706A      2.221644   707A      2.225124  
     708A      2.229791   709A      2.231530   710A      2.237885  
     711A      2.242846   712A      2.246903   713A      2.249578  
     714A      2.254311   715A      2.256354   716A      2.262838  
     717A      2.267494   718A      2.270576   719A      2.273229  
     720A      2.282523   721A      2.283958   722A      2.285409  
     723A      2.300544   724A      2.301838   725A      2.309388  
     726A      2.311705   727A      2.317204   728A      2.323064  
     729A      2.331875   730A      2.338114   731A      2.342442  
     732A      2.347858   733A      2.360158   734A      2.361490  
     735A      2.368657   736A      2.370029   737A      2.375216  
     738A      2.384972   739A      2.390783   740A      2.398414  
     741A      2.401822   742A      2.409784   743A      2.415676  
     744A      2.426587   745A      2.430220   746A      2.438929  
     747A      2.446518   748A      2.450776   749A      2.459360  
     750A      2.477277   751A      2.481349   752A      2.483913  
     753A      2.499738   754A      2.508755   755A      2.520247  
     756A      2.530313   757A      2.535827   758A      2.536422  
     759A      2.543166   760A      2.545413   761A      2.555641  
     762A      2.561691   763A      2.576173   764A      2.586145  
     765A      2.589704   766A      2.598508   767A      2.605390  
     768A      2.618492   769A      2.628244   770A      2.636202  
     771A      2.651316   772A      2.663979   773A      2.673843  
     774A      2.679500   775A      2.686123   776A      2.699046  
     777A      2.710481   778A      2.715958   779A      2.719290  
     780A      2.734953   781A      2.739855   782A      2.745385  
     783A      2.762977   784A      2.781180   785A      2.785144  
     786A      2.789552   787A      2.793307   788A      2.801156  
     789A      2.812509   790A      2.812997   791A      2.823640  
     792A      2.827800   793A      2.834320   794A      2.840731  
     795A      2.855025   796A      2.860780   797A      2.869385  
     798A      2.874271   799A      2.878783   800A      2.881077  
     801A      2.886951   802A      2.894845   803A      2.906877  
     804A      2.913758   805A      2.932143   806A      2.937402  
     807A      2.938283   808A      2.948776   809A      2.952280  
     810A      2.961709   811A      2.971350   812A      2.973480  
     813A      2.976702   814A      2.983504   815A      2.986967  
     816A      2.989769   817A      3.003480   818A      3.008572  
     819A      3.017255   820A      3.021062   821A      3.030402  
     822A      3.031156   823A      3.037140   824A      3.047882  
     825A      3.054886   826A      3.058103   827A      3.061538  
     828A      3.066647   829A      3.070437   830A      3.086447  
     831A      3.088780   832A      3.093289   833A      3.099662  
     834A      3.106556   835A      3.111038   836A      3.113850  
     837A      3.117922   838A      3.119973   839A      3.122780  
     840A      3.126491   841A      3.131703   842A      3.136292  
     843A      3.140518   844A      3.146579   845A      3.150642  
     846A      3.154606   847A      3.164226   848A      3.168830  
     849A      3.172700   850A      3.186368   851A      3.196562  
     852A      3.202982   853A      3.212210   854A      3.213298  
     855A      3.216323   856A      3.232516   857A      3.238746  
     858A      3.248392   859A      3.254312   860A      3.255067  
     861A      3.261271   862A      3.265499   863A      3.278121  
     864A      3.280996   865A      3.287970   866A      3.294118  
     867A      3.294695   868A      3.302583   869A      3.305328  
     870A      3.308835   871A      3.321237   872A      3.325932  
     873A      3.329465   874A      3.335224   875A      3.338736  
     876A      3.347165   877A      3.348280   878A      3.352278  
     879A      3.359393   880A      3.365495   881A      3.372447  
     882A      3.375727   883A      3.384774   884A      3.387878  
     885A      3.394628   886A      3.400134   887A      3.404101  
     888A      3.411334   889A      3.428047   890A      3.433556  
     891A      3.455011   892A      3.460943   893A      3.479240  
     894A      3.506005   895A      3.518144   896A      3.537333  
     897A      3.576934   898A      3.603313   899A      3.607778  
     900A      3.613368   901A      3.616807   902A      3.637856  
     903A      3.651566   904A      3.661233   905A      3.679546  
     906A      3.680903   907A      3.684680   908A      3.702049  
     909A      3.762933   910A      3.773915   911A      3.775967  
     912A      3.781097   913A      3.804434   914A      3.816360  
     915A      3.819877   916A      3.850961   917A      3.861536  
     918A      3.873532   919A      3.878018   920A      3.882908  
     921A      3.906463   922A      3.914712   923A      3.924292  
     924A      3.926291   925A      3.938156   926A      3.949178  
     927A      3.958213   928A      3.959577   929A      3.971879  
     930A      3.980943   931A      3.986088   932A      4.016996  
     933A      4.048625   934A      4.056616   935A      4.070618  
     936A      4.088865   937A      4.099739   938A      4.111641  
     939A      4.121248   940A      4.126665   941A      4.139696  
     942A      4.158612   943A      4.173805   944A      4.190231  
     945A      4.193198   946A      4.202149   947A      4.209122  
     948A      4.218803   949A      4.251337   950A      4.302184  
     951A      4.356889   952A      4.366976   953A      4.385815  
     954A      4.407454   955A      4.413678   956A      4.419823  
     957A      4.421904   958A      4.427556   959A      4.434310  
     960A      4.451279   961A      4.453663   962A      4.456459  
     963A      4.518837   964A      4.548671   965A      4.551904  
     966A      4.587957   967A      4.599268   968A      4.608735  
     969A      4.629456   970A      4.684974   971A      4.710875  
     972A      4.771863   973A      4.773481   974A      4.808631  
     975A      4.907749   976A      4.941672   977A      5.003355  
     978A      5.047920   979A      5.221720   980A      5.246577  
     981A      5.266352   982A      5.281903   983A      5.294974  
     984A      5.331273   985A      5.363416   986A      5.384683  
     987A      5.416466   988A      5.634520   989A      5.681035  
     990A      5.687912   991A      5.800965   992A      5.857426  
     993A      5.889572   994A      6.409685   995A     24.777250  
     996A     24.796320   997A     24.803582   998A     24.831066  
     999A     24.839869  1000A     24.852935  1001A     24.936473  
    1002A     24.958568  1003A     25.013994  1004A     25.017014  
    1005A     25.042939  1006A     25.070154  1007A     25.074097  
    1008A     25.094509  1009A     25.099946  1010A     25.115746  
    1011A     25.129624  1012A     25.137674  1013A     25.139106  
    1014A     25.149198  1015A     25.171519  1016A     25.207263  
    1017A     25.213388  1018A     25.233575  1019A     25.244656  
    1020A     25.253679  1021A     25.256664  1022A     25.323582  
    1023A     25.331714  1024A     36.950314  1025A     36.988142  
    1026A     37.022588  1027A     37.074316  1028A     37.083088  
    1029A     37.134345  1030A     37.154314  1031A     51.781115  

    Final Occupation by Irrep:
              A 
    DOCC [   131 ]

  @DF-RHF Final Energy: -1572.36423885028921

   => Energetics <=

    Nuclear Repulsion Energy =           3725.2490260789909371
    One-Electron Energy =               -9549.0046635503931611
    Two-Electron Energy =                4251.3913986211127849
    Total Energy =                      -1572.3642388502894391

Computation Completed


Properties will be evaluated at   0.000000,   0.000000,   0.000000 [a0]

Properties computed using the SCF density matrix

  Nuclear Dipole Moment: [e a0]
     X:   -37.6323      Y:     2.2513      Z:    10.9090

  Electronic Dipole Moment: [e a0]
     X:    38.1272      Y:     0.4286      Z:   -11.4030

  Dipole Moment: [e a0]
     X:     0.4949      Y:     2.6800      Z:    -0.4940     Total:     2.7697

  Dipole Moment: [D]
     X:     1.2579      Y:     6.8118      Z:    -1.2557     Total:     7.0399


*** tstop() called on node75.bme.utexas.edu at Tue Apr 14 12:58:08 2020
Module time:
	user time   =    4687.23 seconds =      78.12 minutes
	system time =      23.75 seconds =       0.40 minutes
	total time  =        826 seconds =      13.77 minutes
Total time:
	user time   =    4687.23 seconds =      78.12 minutes
	system time =      23.75 seconds =       0.40 minutes
	total time  =        826 seconds =      13.77 minutes

*** tstart() called on node75.bme.utexas.edu
*** at Tue Apr 14 12:58:08 2020


  //>>>>>>>>>>>>>>>>>>>>>>>>>>>>>>>>>>>//
  //               DFMP2               //
  //<<<<<<<<<<<<<<<<<<<<<<<<<<<<<<<<<<<//

   => Loading Basis Set <=

    Name: (6-311++G** AUX)
    Role: RIFIT
    Keyword: DF_BASIS_MP2
    atoms 1-4, 6-9, 11, 14-19, 21-28, 30-31, 33-35, 37 entry C          line   148 file /home/bdw2292/miniconda3/envs/p4env/share/psi4/basis/aug-cc-pvtz-ri.gbs 
    atoms 5, 10, 12-13, 20, 29, 32                     entry N          line   206 file /home/bdw2292/miniconda3/envs/p4env/share/psi4/basis/aug-cc-pvtz-ri.gbs 
    atoms 36                                           entry O          line   264 file /home/bdw2292/miniconda3/envs/p4env/share/psi4/basis/aug-cc-pvtz-ri.gbs 
    atoms 38-68                                        entry H          line    30 file /home/bdw2292/miniconda3/envs/p4env/share/psi4/basis/aug-cc-pvtz-ri.gbs 

	 --------------------------------------------------------
	                          DF-MP2                         
	      2nd-Order Density-Fitted Moller-Plesset Theory     
	              RMP2 Wavefunction,   6 Threads             
	                                                         
	        Rob Parrish, Justin Turney, Andy Simmonett,      
	           Ed Hohenstein, and C. David Sherrill          
	 --------------------------------------------------------

   => Auxiliary Basis Set <=

  Basis Set: (6-311++G** AUX)
    Blend: AUG-CC-PVTZ-RI
    Number of shells: 1470
    Number of basis function: 5348
    Number of Cartesian functions: 6737
    Spherical Harmonics?: true
    Max angular momentum: 4

	 --------------------------------------------------------
	                 NBF =  1031, NAUX =  5348
	 --------------------------------------------------------
	   CLASS    FOCC     OCC    AOCC    AVIR     VIR    FVIR
	   PAIRS      37     131      94     900     900       0
	 --------------------------------------------------------

	-----------------------------------------------------------
	 ==================> DF-MP2 Energies <==================== 
	-----------------------------------------------------------
	 Reference Energy          =   -1572.3642388502892118 [Eh]
	 Singles Energy            =      -0.0000000000000000 [Eh]
	 Same-Spin Energy          =      -1.4709865329363860 [Eh]
	 Opposite-Spin Energy      =      -4.0471650514700368 [Eh]
	 Correlation Energy        =      -5.5181515844064233 [Eh]
	 Total Energy              =   -1577.8823904346957079 [Eh]
	-----------------------------------------------------------
	 ================> DF-SCS-MP2 Energies <================== 
	-----------------------------------------------------------
	 SCS Same-Spin Scale       =       0.3333333333333333 [-]
	 SCS Opposite-Spin Scale   =       1.2000000000000000 [-]
	 SCS Same-Spin Energy      =      -0.4903288443121286 [Eh]
	 SCS Opposite-Spin Energy  =      -4.8565980617640436 [Eh]
	 SCS Correlation Energy    =      -5.3469269060761722 [Eh]
	 SCS Total Energy          =   -1577.7111657563652898 [Eh]
	-----------------------------------------------------------


*** tstop() called on node75.bme.utexas.edu at Tue Apr 14 13:05:48 2020
Module time:
	user time   =    2593.31 seconds =      43.22 minutes
	system time =      14.80 seconds =       0.25 minutes
	total time  =        460 seconds =       7.67 minutes
Total time:
	user time   =    7280.55 seconds =     121.34 minutes
	system time =      38.55 seconds =       0.64 minutes
	total time  =       1286 seconds =      21.43 minutes


Properties will be evaluated at   0.000000,   0.000000,   0.000000 [a0]
OEProp: No title given, name of density matrix used for the following properties is 'SCF density'


  Wiberg Bond Indices using Orthogonal Lowdin Orbitals:

  Irrep: 1 Size: 68 x 68

                 1                   2                   3                   4                   5

    1     0.00000000000000     1.46279157891431     0.12503261286360     0.14040506440352     0.12375556574276
    2     1.46279157891431     0.00000000000000     1.40230872289054     0.12887949583124     0.12142002685913
    3     0.12503261286360     1.40230872289054     0.00000000000000     1.36086215818398     0.11831654483947
    4     0.14040506440352     0.12887949583124     1.36086215818398     0.00000000000000     1.66059846762075
    5     0.12375556574276     0.12142002685913     0.11831654483947     1.66059846762075     0.00000000000000
    6     1.46669215078104     0.13806149200561     0.13565690500688     0.15340691874692     1.62457541214704
    7     0.01454303451934     0.10246722249684     1.01966982343428     0.10408277572377     0.01386950459301
    8     0.00349944270078     0.04110320949651     0.09807069590369     0.02383306533723     0.00217431271538
    9     0.00036010081812     0.00461685900431     0.01470146435609     0.00407995595350     0.00067477058256
   10     0.00041059476739     0.00537282930701     0.00576429865144     0.00602034440326     0.00032087058151
   11     0.00086739207903     0.00332930170152     0.01799867882640     0.00685561795759     0.00042952670507
   12     0.00279915862989     0.02209451958777     0.11926774596066     0.06194552387838     0.00411665135464
   13     0.00016382840575     0.00047396825767     0.00161720905761     0.00094027300872     0.00008845078107
   14     0.00003052856209     0.00009255980964     0.00056603576405     0.00130080565526     0.00011348195816
   15     0.00001096171488     0.00002293240392     0.00006781758099     0.00015210689525     0.00001749866504
   16     0.00000206079215     0.00000572714838     0.00004095145886     0.00024128491864     0.00001332899276
   17     0.00001308076387     0.00001994617580     0.00005662622867     0.00028877413849     0.00004388576591
   18     0.00002857030548     0.00005435221101     0.00029703667318     0.00187503680468     0.00024578940952
   19     0.00017860038174     0.00025346851612     0.00208517191482     0.01091505446997     0.00065462127429
   20     0.00005764332471     0.00007807259140     0.00036405022760     0.00352959065341     0.00070023377590
   21     0.00001238019769     0.00001342076009     0.00005888618471     0.00041862884640     0.00023329057183
   22     0.00005345192340     0.00003499678442     0.00005814920964     0.00063033873982     0.00178962327775
   23     0.00053783814921     0.00036849700925     0.00048783304195     0.00727484869871     0.02643407831176
   24     0.00020316314679     0.00019235097939     0.00027465178075     0.00121917547234     0.01076359043963
   25     0.00001911951482     0.00000890292064     0.00001734817411     0.00011624198717     0.00051115363969
   26     0.00000818508648     0.00000408743647     0.00000663521217     0.00012332467626     0.00040620161332
   27     0.00000946441152     0.00000501725443     0.00001100255176     0.00016161194157     0.00053010340845
   28     0.00000443337344     0.00000188189987     0.00000279730210     0.00001840734929     0.00006987186238
   29     0.00000209939805     0.00000078849056     0.00000115252181     0.00000540667418     0.00001824674822
   30     0.00001527932333     0.00000615159637     0.00000748366940     0.00001154215136     0.00006122443048
   31     0.00001933451639     0.00002438975221     0.00003084075243     0.00001814082874     0.00010244213410
   32     0.00000400305643     0.00000127886764     0.00000177185624     0.00000611697149     0.00001060862959
   33     0.00000089002646     0.00000026328458     0.00000044441627     0.00000072347927     0.00000258163014
   34     0.00000178201552     0.00000102168507     0.00000117498674     0.00000709432475     0.00001500228554
   35     0.00000125236549     0.00000032819028     0.00000060998935     0.00000329941519     0.00000754459027
   36     0.00000171517917     0.00000240165672     0.00001359306292     0.00015745166541     0.00004596570888
   37     0.00000213075697     0.00000725385650     0.00003247298327     0.00003662782229     0.00000318731909
   38     0.88626759576686     0.07917268188794     0.01176014613243     0.00635873697041     0.01070949340974
   39     0.07731593685054     0.87072394657158     0.07306062276985     0.01180859072741     0.00395760262323
   40     0.00565077164841     0.01047437163569     0.06892829704118     0.84907120567365     0.08698280631726
   41     0.07670181595212     0.01175298569663     0.00601548011715     0.01591147783372     0.08809277384314
   42     0.00102981758978     0.01377049989735     0.01424703666437     0.00135419941262     0.00028270579964
   43     0.00004361001673     0.00027276596961     0.00143577438343     0.00031682727250     0.00007663296199
   44     0.00002442503753     0.00008132177990     0.00034758947411     0.00009153002754     0.00000782358256
   45     0.00000034516147     0.00000100316063     0.00000660671125     0.00001861339834     0.00000180043552
   46     0.00000093095720     0.00000165725713     0.00000725312459     0.00002766978509     0.00000865625702
   47     0.00013960033527     0.00021442136777     0.00212575041544     0.00837000546360     0.00064657322773
   48     0.00010652718781     0.00008549338229     0.00027464058688     0.00293598730567     0.00101819846738
   49     0.00053106402462     0.00021589910800     0.00040376289907     0.00636889190134     0.01824575418262
   50     0.00009914763744     0.00008316840732     0.00012155426462     0.00030715122475     0.00282049905093
   51     0.00000091354674     0.00000048310000     0.00000181387158     0.00001546471987     0.00002878552247
   52     0.00000162359702     0.00000077381680     0.00000136729259     0.00001024431629     0.00004718135637
   53     0.00000339424616     0.00000135810419     0.00000113769192     0.00000347794596     0.00001537680151
   54     0.00000038887924     0.00000008822737     0.00000044586805     0.00000690672570     0.00000770574835
   55     0.00001715151380     0.00000630214836     0.00000765263117     0.00000580962608     0.00003200357946
   56     0.00000016768365     0.00000013553969     0.00000020739779     0.00000252398262     0.00000451786663
   57     0.00000421805538     0.00000634482783     0.00000959703480     0.00000373081031     0.00001159841340
   58     0.00000644376942     0.00002280157361     0.00002488595036     0.00001198873902     0.00011846031784
   59     0.00000020130154     0.00000006898204     0.00000014849806     0.00000022403899     0.00000070755129
   60     0.00000008700424     0.00000003017306     0.00000011446000     0.00000008573399     0.00000036524637
   61     0.00000006794458     0.00000002245462     0.00000002612827     0.00000005505132     0.00000046537754
   62     0.00000010160424     0.00000005335693     0.00000007361548     0.00000055576112     0.00000145071879
   63     0.00000107477772     0.00000065320780     0.00000099088047     0.00000787744020     0.00002148252177
   64     0.00000022545825     0.00000005555472     0.00000006497916     0.00000085848192     0.00000210439539
   65     0.00000012984443     0.00000003408572     0.00000009590304     0.00000087385799     0.00000140962313
   66     0.00000084100604     0.00000205708541     0.00001174759631     0.00000880874456     0.00000060892201
   67     0.00000087304303     0.00000247978178     0.00000909409308     0.00000839218907     0.00000072579862
   68     0.00000024460798     0.00000066470349     0.00000364596785     0.00000838388472     0.00000052622103

                 6                   7                   8                   9                  10

    1     1.46669215078104     0.01454303451934     0.00349944270078     0.00036010081812     0.00041059476739
    2     0.13806149200561     0.10246722249684     0.04110320949651     0.00461685900431     0.00537282930701
    3     0.13565690500688     1.01966982343428     0.09807069590369     0.01470146435609     0.00576429865144
    4     0.15340691874692     0.10408277572377     0.02383306533723     0.00407995595350     0.00602034440326
    5     1.62457541214704     0.01386950459301     0.00217431271538     0.00067477058256     0.00032087058151
    6     0.00000000000000     0.00963986949141     0.00682064437336     0.00118219766888     0.00334929698071
    7     0.00963986949141     0.00000000000000     1.38912847591777     0.14661082266340     0.11225469936723
    8     0.00682064437336     1.38912847591777     0.00000000000000     1.43147012007883     0.13008049434902
    9     0.00118219766888     0.14661082266340     1.43147012007883     0.00000000000000     1.66156747734926
   10     0.00334929698071     0.11225469936723     0.13008049434902     1.66156747734926     0.00000000000000
   11     0.00084293220592     0.14138947149687     0.11325530352633     0.15262007747080     1.50921568263595
   12     0.00602209670485     1.53190568551343     0.12700923045703     0.11166482043927     0.11057481077766
   13     0.00007249280220     0.01924447927362     0.02052953232332     0.02416574852869     0.15926333889212
   14     0.00004224431886     0.00288939320996     0.00246320785417     0.00326010600717     0.01680221347374
   15     0.00000548639689     0.00050126813821     0.00144381235164     0.00093223523758     0.00311758411677
   16     0.00000407930748     0.00016549338016     0.00019204234706     0.00016471279911     0.00047285423378
   17     0.00000753271571     0.00025002198934     0.00129432356757     0.00044162218576     0.00126055563444
   18     0.00004485994778     0.00056566951226     0.00026756663408     0.00014213992714     0.00040436294510
   19     0.00019698235787     0.00580602368829     0.00314385216479     0.00153900158578     0.00430937445744
   20     0.00008494240855     0.00013918219113     0.00003001748249     0.00001804285378     0.00005904456622
   21     0.00002831728484     0.00002352045958     0.00000853153331     0.00000461730299     0.00001556450984
   22     0.00018662071840     0.00000890493827     0.00000265662930     0.00000134524450     0.00000304855407
   23     0.00252114031915     0.00007654513539     0.00001698717688     0.00000463505126     0.00000352583994
   24     0.00231785150914     0.00003025420521     0.00001672425765     0.00000258295348     0.00000295150821
   25     0.00023249293857     0.00000318866040     0.00000169785609     0.00000024027681     0.00000049376546
   26     0.00011513195517     0.00000177663845     0.00000037069073     0.00000017921243     0.00000022103016
   27     0.00011081818521     0.00000282451214     0.00000116145688     0.00000041500376     0.00000093160540
   28     0.00005119402636     0.00000076110533     0.00000025698861     0.00000004616511     0.00000010586057
   29     0.00001797387678     0.00000023500837     0.00000012687857     0.00000002002917     0.00000005057427
   30     0.00004887203870     0.00000112389663     0.00000070542374     0.00000008661433     0.00000037890550
   31     0.00005288141403     0.00000163747212     0.00000273207717     0.00000043877093     0.00000116005435
   32     0.00001698128284     0.00000043131149     0.00000011004909     0.00000005751507     0.00000004156169
   33     0.00000525808870     0.00000018520709     0.00000003434102     0.00000000767423     0.00000000740832
   34     0.00001016147936     0.00000022585883     0.00000009684824     0.00000003759276     0.00000002603352
   35     0.00000961858159     0.00000009541912     0.00000006355822     0.00000001944788     0.00000002200390
   36     0.00000695377920     0.00001127250498     0.00000842871025     0.00000406602865     0.00001094953962
   37     0.00000186625966     0.00014047702480     0.00013440200789     0.00012906964030     0.00068208236201
   38     0.08257158134841     0.00128352437571     0.00024491986422     0.00003891100339     0.00002572132585
   39     0.01171911270903     0.01604191363608     0.01452672952018     0.00112538019379     0.00039511463127
   40     0.01475676641378     0.01566483700357     0.00166949510010     0.00039639122377     0.00060391544786
   41     0.87885635218277     0.00053927109227     0.00026313222888     0.00005183182370     0.00010395715710
   42     0.00046908518054     0.07542887653236     0.87650159711148     0.08060164239014     0.01041877934737
   43     0.00004235138403     0.01170807272032     0.07503177631441     0.87562699724465     0.09028474210399
   44     0.00001150336929     0.00205605009935     0.00201062783702     0.00363410649353     0.03111275658156
   45     0.00000038996588     0.00001857246689     0.00000783323167     0.00002309099661     0.00005203393812
   46     0.00000122407667     0.00002350579905     0.00004166761689     0.00001642124084     0.00005155865413
   47     0.00020725141574     0.00426311802452     0.00094245799019     0.00043208450816     0.00076518720391
   48     0.00012438050227     0.00010335348300     0.00003077583983     0.00001092570223     0.00002436679409
   49     0.00195537609285     0.00006385199416     0.00001592459266     0.00000408729292     0.00000303611907
   50     0.00155679977786     0.00001121062706     0.00000578115082     0.00000095541651     0.00000086202886
   51     0.00000612374103     0.00000015670328     0.00000005576794     0.00000001949698     0.00000003155905
   52     0.00001148482822     0.00000052087316     0.00000008332653     0.00000005858054     0.00000010228507
   53     0.00002110927661     0.00000021415917     0.00000008411992     0.00000001159881     0.00000003213217
   54     0.00000287762066     0.00000007005843     0.00000001691133     0.00000000408720     0.00000001109177
   55     0.00005216047495     0.00000099555138     0.00000075271111     0.00000010409447     0.00000035971549
   56     0.00001080198991     0.00000007654401     0.00000001710025     0.00000000354587     0.00000000707208
   57     0.00000630392345     0.00000036841563     0.00000082588540     0.00000013283952     0.00000030214992
   58     0.00004691687221     0.00000141244027     0.00000135572807     0.00000019429658     0.00000081462323
   59     0.00000267096286     0.00000004852916     0.00000001840466     0.00000000379864     0.00000000415878
   60     0.00000042783189     0.00000003774105     0.00000000575904     0.00000000271231     0.00000000272594
   61     0.00000023331447     0.00000000547915     0.00000000510027     0.00000000077366     0.00000000127501
   62     0.00000072044691     0.00000001900381     0.00000000926059     0.00000000220491     0.00000000205804
   63     0.00000810087977     0.00000016018531     0.00000004295567     0.00000002309846     0.00000002921881
   64     0.00000677716907     0.00000002556347     0.00000000944130     0.00000000509397     0.00000000540575
   65     0.00000073829723     0.00000002269547     0.00000000943833     0.00000000336053     0.00000000251602
   66     0.00000040232341     0.00004563858703     0.00007724527038     0.00004259439107     0.00025812825868
   67     0.00000095877151     0.00003937650908     0.00009694473663     0.00003615268434     0.00024873696341
   68     0.00000017822783     0.00001374175739     0.00000476014686     0.00000414699987     0.00002911898932

                11                  12                  13                  14                  15

    1     0.00086739207903     0.00279915862989     0.00016382840575     0.00003052856209     0.00001096171488
    2     0.00332930170152     0.02209451958777     0.00047396825767     0.00009255980964     0.00002293240392
    3     0.01799867882640     0.11926774596066     0.00161720905761     0.00056603576405     0.00006781758099
    4     0.00685561795759     0.06194552387838     0.00094027300872     0.00130080565526     0.00015210689525
    5     0.00042952670507     0.00411665135464     0.00008845078107     0.00011348195816     0.00001749866504
    6     0.00084293220592     0.00602209670485     0.00007249280220     0.00004224431886     0.00000548639689
    7     0.14138947149687     1.53190568551343     0.01924447927362     0.00288939320996     0.00050126813821
    8     0.11325530352633     0.12700923045703     0.02052953232332     0.00246320785417     0.00144381235164
    9     0.15262007747080     0.11166482043927     0.02416574852869     0.00326010600717     0.00093223523758
   10     1.50921568263595     0.11057481077766     0.15926333889212     0.01680221347374     0.00311758411677
   11     0.00000000000000     1.53304131678446     1.26937919795397     0.08240929032709     0.01778031343092
   12     1.53304131678446     0.00000000000000     0.14143213950858     0.02934777092341     0.00345865271088
   13     1.26937919795397     0.14143213950858     0.00000000000000     1.12556935886387     0.10521100080039
   14     0.08240929032709     0.02934777092341     1.12556935886387     0.00000000000000     1.31690381310343
   15     0.01778031343092     0.00345865271088     0.10521100080039     1.31690381310343     0.00000000000000
   16     0.00237784416133     0.00117482446790     0.01420809996309     0.12566067828130     1.44099591738129
   17     0.00411489506791     0.00248047976988     0.01180956391633     0.11937091719020     0.12404196447974
   18     0.00244235620511     0.00491820702316     0.01313221800074     0.12199367736562     0.11997753942955
   19     0.02857155901237     0.05560493797410     0.11069290814454     1.40281889101588     0.12022481487177
   20     0.00034623347222     0.00112054012153     0.00131797415502     0.01506420217406     0.01140645550285
   21     0.00006175643826     0.00013463051752     0.00029863610175     0.00273699390418     0.00570763757723
   22     0.00001116561622     0.00002765224411     0.00005530530479     0.00034513323597     0.00028211244126
   23     0.00001548363360     0.00011861167917     0.00001119873176     0.00010848354341     0.00032281529073
   24     0.00000241386303     0.00001254342151     0.00000262294954     0.00001205915617     0.00003935219247
   25     0.00000101802851     0.00000324274840     0.00000105528296     0.00002635256806     0.00022769000560
   26     0.00000066259250     0.00000120521066     0.00000263740466     0.00001997054251     0.00004856197385
   27     0.00000304117291     0.00000484502505     0.00001251026471     0.00010024444095     0.00038985086165
   28     0.00000013556749     0.00000045083119     0.00000018578900     0.00000240670426     0.00001591117963
   29     0.00000005638101     0.00000017893979     0.00000006267941     0.00000154082440     0.00001337833124
   30     0.00000018261488     0.00000057815240     0.00000003840161     0.00000040013043     0.00000255732653
   31     0.00000027732868     0.00000162667071     0.00000011697236     0.00000039003018     0.00000060613313
   32     0.00000008463378     0.00000022166308     0.00000002485433     0.00000022937104     0.00000022955814
   33     0.00000003365605     0.00000003726499     0.00000000652306     0.00000007174842     0.00000011102776
   34     0.00000005845921     0.00000029927528     0.00000007625985     0.00000043109593     0.00000127759940
   35     0.00000004864257     0.00000008064207     0.00000006575791     0.00000054381229     0.00000240446503
   36     0.00004005205951     0.00005556394513     0.00014891989258     0.00101759385296     0.00333622920938
   37     0.00342938727297     0.00076562898134     0.03691725848975     0.09651139548282     1.05961766773306
   38     0.00008920398140     0.00031265740910     0.00001594640981     0.00000691512806     0.00000079853663
   39     0.00028840645965     0.00108808983964     0.00006810978336     0.00002536832425     0.00000410949913
   40     0.00274521641287     0.02517552990791     0.00042795425631     0.00120282483347     0.00016223978429
   41     0.00004272594170     0.00025072227790     0.00000558457279     0.00000385587017     0.00000055962264
   42     0.00574031365721     0.01076357545638     0.00104201493069     0.00011978001266     0.00006507805938
   43     0.01583232943631     0.00402824240415     0.00135712621118     0.00038503834393     0.00006232153912
   44     0.07369053893261     0.01150904021766     0.93488613763248     0.05948281971931     0.01472582571057
   45     0.00036587643626     0.00006270092236     0.00115477281829     0.01142282146245     0.07475490783637
   46     0.00014686635294     0.00015790568071     0.00051160322287     0.00523675720614     0.01050582710392
   47     0.00974680939849     0.03812532825791     0.01595162902957     0.07328318986317     0.00970295859056
   48     0.00013092610696     0.00076539941194     0.00018077246896     0.00209899874948     0.00112317921361
   49     0.00001181508898     0.00007007394497     0.00000524172298     0.00003801307978     0.00004575476042
   50     0.00000078812933     0.00000371900842     0.00000037408323     0.00000127613243     0.00000069010054
   51     0.00000008382864     0.00000013087473     0.00000055154051     0.00000276451914     0.00000194618526
   52     0.00000067432981     0.00000082248907     0.00000202074599     0.00001542576209     0.00002103087495
   53     0.00000002270284     0.00000009513088     0.00000004805836     0.00000044106036     0.00000264307537
   54     0.00000001394478     0.00000004072300     0.00000003592211     0.00000028774676     0.00000143437600
   55     0.00000005716792     0.00000033663546     0.00000003924935     0.00000006383190     0.00000013271274
   56     0.00000001385726     0.00000004176609     0.00000000606718     0.00000007449817     0.00000055145021
   57     0.00000004235946     0.00000037625418     0.00000000774911     0.00000003277628     0.00000007420115
   58     0.00000014762832     0.00000095468674     0.00000004461226     0.00000055785171     0.00000109748071
   59     0.00000001166484     0.00000001428245     0.00000000382013     0.00000000830319     0.00000002682610
   60     0.00000000569956     0.00000000537630     0.00000000240562     0.00000001132041     0.00000000792167
   61     0.00000000186098     0.00000000280340     0.00000000107952     0.00000000398869     0.00000001499136
   62     0.00000000566369     0.00000002413281     0.00000000417191     0.00000002919166     0.00000010683934
   63     0.00000004997014     0.00000033776500     0.00000009920792     0.00000048194140     0.00000097071561
   64     0.00000001817425     0.00000002214102     0.00000000573694     0.00000010498497     0.00000037026890
   65     0.00000000763917     0.00000002494781     0.00000001462618     0.00000008597437     0.00000027343430
   66     0.00081796447876     0.00027046378585     0.00973391417215     0.01649254555081     0.05731689054359
   67     0.00075623191212     0.00025734370568     0.00867390270668     0.01640502597820     0.05885555227859
   68     0.00021973640254     0.00005795939440     0.00194273087825     0.00894435596369     0.05995492334071

                16                  17                  18                  19                  20

    1     0.00000206079215     0.00001308076387     0.00002857030548     0.00017860038174     0.00005764332471
    2     0.00000572714838     0.00001994617580     0.00005435221101     0.00025346851612     0.00007807259140
    3     0.00004095145886     0.00005662622867     0.00029703667318     0.00208517191482     0.00036405022760
    4     0.00024128491864     0.00028877413849     0.00187503680468     0.01091505446997     0.00352959065341
    5     0.00001332899276     0.00004388576591     0.00024578940952     0.00065462127429     0.00070023377590
    6     0.00000407930748     0.00000753271571     0.00004485994778     0.00019698235787     0.00008494240855
    7     0.00016549338016     0.00025002198934     0.00056566951226     0.00580602368829     0.00013918219113
    8     0.00019204234706     0.00129432356757     0.00026756663408     0.00314385216479     0.00003001748249
    9     0.00016471279911     0.00044162218576     0.00014213992714     0.00153900158578     0.00001804285378
   10     0.00047285423378     0.00126055563444     0.00040436294510     0.00430937445744     0.00005904456622
   11     0.00237784416133     0.00411489506791     0.00244235620511     0.02857155901237     0.00034623347222
   12     0.00117482446790     0.00248047976988     0.00491820702316     0.05560493797410     0.00112054012153
   13     0.01420809996309     0.01180956391633     0.01313221800074     0.11069290814454     0.00131797415502
   14     0.12566067828130     0.11937091719020     0.12199367736562     1.40281889101588     0.01506420217406
   15     1.44099591738129     0.12404196447974     0.11997753942955     0.12022481487177     0.01140645550285
   16     0.00000000000000     1.44476525478310     0.13323090807351     0.12591429110333     0.01363301334884
   17     1.44476525478310     0.00000000000000     1.39939065668017     0.12224890658302     0.10451179853675
   18     0.13323090807351     1.39939065668017     0.00000000000000     1.36172912596912     1.12559689497896
   19     0.12591429110333     0.12224890658302     1.36172912596912     0.00000000000000     0.12408323166431
   20     0.01363301334884     0.10451179853675     1.12559689497896     0.12408323166431     0.00000000000000
   21     0.00272825936293     0.03088666933032     0.08598324520878     0.02248664244044     1.31115602943785
   22     0.00035996160524     0.00320030786638     0.01433623350613     0.00194191021293     0.09888453862101
   23     0.00014174954015     0.00114472004838     0.00347198927325     0.00113938490156     0.04022747891599
   24     0.00001967112226     0.00015854962534     0.00033911003871     0.00011961781352     0.00334007699813
   25     0.00003163651349     0.00033042486227     0.00031679485678     0.00029309662346     0.00346248032399
   26     0.00001961812617     0.00013993538681     0.00049738639833     0.00011716441050     0.00252716661709
   27     0.00010178558902     0.00098093753838     0.00223175621799     0.00078131552256     0.01770939390007
   28     0.00000286153918     0.00002840553783     0.00003446275586     0.00002226624603     0.00028464708989
   29     0.00000179528196     0.00001781337846     0.00001502913634     0.00001565416077     0.00016471374278
   30     0.00000041517874     0.00000326719318     0.00000460209312     0.00000301023750     0.00004467725180
   31     0.00000035963571     0.00000280563864     0.00000491113894     0.00000182319357     0.00003428699465
   32     0.00000009277553     0.00000083953111     0.00000224206148     0.00000087828035     0.00000911317586
   33     0.00000008180525     0.00000037914260     0.00000052151508     0.00000038989902     0.00000194852586
   34     0.00000035221916     0.00000338318289     0.00000542311451     0.00000386134697     0.00003849982727
   35     0.00000055046023     0.00000508170715     0.00000532403531     0.00000325477591     0.00003553787179
   36     0.00350830522409     0.04896234672303     0.03225997682021     0.00513896912267     0.19126335696723
   37     0.11561448862502     0.01435644915095     0.00740404020671     0.01406688467563     0.00073215086497
   38     0.00000032485743     0.00000072423991     0.00000506914098     0.00002246394272     0.00000587503896
   39     0.00000158580507     0.00000218281610     0.00000640604121     0.00003884919192     0.00000836457560
   40     0.00021722193398     0.00024969721391     0.00190966926290     0.00884412784730     0.00257900176631
   41     0.00000040071076     0.00000072898299     0.00000283012299     0.00001427157942     0.00000663008381
   42     0.00001073081256     0.00004698275885     0.00003042805181     0.00020229775619     0.00000694615174
   43     0.00001583228139     0.00001188551892     0.00001515830949     0.00010700584266     0.00000179587277
   44     0.00148406012523     0.00107718188398     0.00129871939590     0.01051279105537     0.00023969512768
   45     0.87137897656954     0.07898542355613     0.01178910581127     0.00568728693626     0.00102946291834
   46     0.07711316678040     0.85994562539712     0.07577337911366     0.01125924568653     0.01457224703970
   47     0.00572262548048     0.01023843376298     0.07202188691166     0.83742309007729     0.02423915476287
   48     0.00136204486154     0.01008837521684     0.06320989070955     0.02189814756675     0.93766245928898
   49     0.00005056856015     0.00030494015005     0.00144212158996     0.00058128280048     0.01572612475495
   50     0.00000214978227     0.00001267893232     0.00002845378027     0.00000768289327     0.00019349206270
   51     0.00000245896986     0.00001541824911     0.00006761069417     0.00001598593537     0.00028100613835
   52     0.00003283498765     0.00022167989877     0.00028364161480     0.00007031630885     0.00153612233575
   53     0.00000049356481     0.00000493206616     0.00000719738269     0.00000410867299     0.00004404626822
   54     0.00000040727366     0.00000361260846     0.00000779549738     0.00000300097251     0.00005128872994
   55     0.00000005586144     0.00000034307499     0.00000069082289     0.00000025447143     0.00000425826010
   56     0.00000009434924     0.00000079867792     0.00000065132727     0.00000074341095     0.00000643896426
   57     0.00000002242921     0.00000015527392     0.00000021215732     0.00000014430202     0.00000169596579
   58     0.00000041970675     0.00000392310179     0.00000863359422     0.00000440058125     0.00003677016507
   59     0.00000002221532     0.00000008995716     0.00000009297047     0.00000008663644     0.00000029982064
   60     0.00000000480834     0.00000002423656     0.00000007957362     0.00000003812113     0.00000035418737
   61     0.00000002342092     0.00000005570304     0.00000003696691     0.00000003004934     0.00000022868433
   62     0.00000003262049     0.00000028300011     0.00000035730395     0.00000024616511     0.00000217429149
   63     0.00000044914844     0.00000369054054     0.00000773286287     0.00000332668622     0.00004506127242
   64     0.00000014801781     0.00000076403268     0.00000084539246     0.00000074992229     0.00000544339396
   65     0.00000009891748     0.00000069279492     0.00000152292602     0.00000065173934     0.00000987129135
   66     0.01466927860064     0.00125524000272     0.00278310570588     0.00120495863692     0.00035687123469
   67     0.01552915194789     0.00126212023659     0.00296211210324     0.00125763630521     0.00035460442118
   68     0.02402153665241     0.00192638162753     0.00055796177296     0.00109718463156     0.00008237086568

                21                  22                  23                  24                  25

    1     0.00001238019769     0.00005345192340     0.00053783814921     0.00020316314679     0.00001911951482
    2     0.00001342076009     0.00003499678442     0.00036849700925     0.00019235097939     0.00000890292064
    3     0.00005888618471     0.00005814920964     0.00048783304195     0.00027465178075     0.00001734817411
    4     0.00041862884640     0.00063033873982     0.00727484869871     0.00121917547234     0.00011624198717
    5     0.00023329057183     0.00178962327775     0.02643407831176     0.01076359043963     0.00051115363969
    6     0.00002831728484     0.00018662071840     0.00252114031915     0.00231785150914     0.00023249293857
    7     0.00002352045958     0.00000890493827     0.00007654513539     0.00003025420521     0.00000318866040
    8     0.00000853153331     0.00000265662930     0.00001698717688     0.00001672425765     0.00000169785609
    9     0.00000461730299     0.00000134524450     0.00000463505126     0.00000258295348     0.00000024027681
   10     0.00001556450984     0.00000304855407     0.00000352583994     0.00000295150821     0.00000049376546
   11     0.00006175643826     0.00001116561622     0.00001548363360     0.00000241386303     0.00000101802851
   12     0.00013463051752     0.00002765224411     0.00011861167917     0.00001254342151     0.00000324274840
   13     0.00029863610175     0.00005530530479     0.00001119873176     0.00000262294954     0.00000105528296
   14     0.00273699390418     0.00034513323597     0.00010848354341     0.00001205915617     0.00002635256806
   15     0.00570763757723     0.00028211244126     0.00032281529073     0.00003935219247     0.00022769000560
   16     0.00272825936293     0.00035996160524     0.00014174954015     0.00001967112226     0.00003163651349
   17     0.03088666933032     0.00320030786638     0.00114472004838     0.00015854962534     0.00033042486227
   18     0.08598324520878     0.01433623350613     0.00347198927325     0.00033911003871     0.00031679485678
   19     0.02248664244044     0.00194191021293     0.00113938490156     0.00011961781352     0.00029309662346
   20     1.31115602943785     0.09888453862101     0.04022747891599     0.00334007699813     0.00346248032399
   21     0.00000000000000     0.97664833833924     0.10235700402409     0.01443581626600     0.01160128592157
   22     0.97664833833924     0.00000000000000     1.39749863487593     0.12665909780442     0.12380894827639
   23     0.10235700402409     1.39749863487593     0.00000000000000     1.45718510079100     0.12655526154083
   24     0.01443581626600     0.12665909780442     1.45718510079100     0.00000000000000     1.39937698555144
   25     0.01160128592157     0.12380894827639     0.12655526154083     1.39937698555144     0.00000000000000
   26     0.01499382618996     0.12546215678688     0.12954032817656     0.12616452242041     1.39756727051920
   27     0.11136310602431     1.38195805366156     0.12507168640292     0.13037194097079     0.12784524287470
   28     0.00074771710151     0.00911473163876     0.01464019922842     0.10837985652802     1.01596662749604
   29     0.00041851295129     0.00442570588785     0.00215728167923     0.02256804714990     0.08758627801838
   30     0.00008472532047     0.00096767074771     0.00198577867130     0.01600172766332     0.01942562590250
   31     0.00006936411255     0.00133544593238     0.00987283825455     0.02520682410128     0.01588878006099
   32     0.00008794706892     0.00074899452079     0.00115547637744     0.00311756967681     0.00402533304982
   33     0.00001207976111     0.00013638635174     0.00029298784617     0.00075489886175     0.00107928595569
   34     0.00017258205242     0.00329534352545     0.00313798540996     0.00888129595043     0.02242733221919
   35     0.00012668897240     0.00120365634116     0.00122091416713     0.00552998333961     0.02366500793671
   36     2.16272160292395     0.13487246017431     0.02655579729827     0.00356124207998     0.00704915516125
[...]
   15     0.00000055145021     0.00000007420115     0.00000109748071     0.00000002682610     0.00000000792167
   16     0.00000009434924     0.00000002242921     0.00000041970675     0.00000002221532     0.00000000480834
   17     0.00000079867792     0.00000015527392     0.00000392310179     0.00000008995716     0.00000002423656
   18     0.00000065132727     0.00000021215732     0.00000863359422     0.00000009297047     0.00000007957362
   19     0.00000074341095     0.00000014430202     0.00000440058125     0.00000008663644     0.00000003812113
   20     0.00000643896426     0.00000169596579     0.00003677016507     0.00000029982064     0.00000035418737
   21     0.00002464706811     0.00000448150997     0.00006287041718     0.00000245200679     0.00000076818250
   22     0.00020673593811     0.00008101906225     0.00135548726127     0.00001243994946     0.00001138841038
   23     0.00035546913998     0.00026781971045     0.00856419441968     0.00002669082671     0.00002944737562
   24     0.00083570817419     0.00086470271654     0.02224164221001     0.00008722706361     0.00007768618254
   25     0.00141476935631     0.00056428767037     0.00938756590616     0.00016930083662     0.00008759746211
   26     0.00043990743989     0.00014762867850     0.00244822033717     0.00008262830438     0.00003492180346
   27     0.00011076226671     0.00010782841375     0.00182373706194     0.00002226497984     0.00002482242792
   28     0.01200999763108     0.00101497617867     0.00530764630220     0.00061565398743     0.00011383364166
   29     0.06477155723940     0.01182977028304     0.01153357423731     0.00287851232360     0.00063315085445
   30     0.79878970530997     0.05778805761392     0.04550715004378     0.01250171103244     0.00384272016108
   31     0.04951858493277     0.84897495706991     0.81708778833687     0.01636756052388     0.02016201911832
   32     0.01329889972065     0.05270796599551     0.05787694181963     0.06841145921304     0.06303852272265
   33     0.01414300197531     0.02220566032389     0.01141945080333     0.91035891433259     0.91986020971948
   34     0.00765495458172     0.01434768755951     0.02018710530153     0.01607722845113     0.01244689951363
   35     0.02025447494613     0.00200209525938     0.00701469713961     0.01206387305319     0.00163783799143
   36     0.00001603174961     0.00000425599596     0.00004545251579     0.00000063594733     0.00000060382156
   37     0.00000003326678     0.00000000445906     0.00000009843346     0.00000000241347     0.00000000387139
   38     0.00000008959258     0.00000191582204     0.00000046703957     0.00000002123707     0.00000000938361
   39     0.00000001986688     0.00000016092640     0.00000063157285     0.00000001120047     0.00000000330983
   40     0.00000039591150     0.00000040776922     0.00000280644360     0.00000007596560     0.00000001717266
   41     0.00001081258536     0.00000076051690     0.00001043665097     0.00000093592683     0.00000013980555
   42     0.00000000097777     0.00000002294547     0.00000007138538     0.00000000127705     0.00000000039440
   43     0.00000000053499     0.00000000107221     0.00000001251379     0.00000000013393     0.00000000007170
   44     0.00000000073160     0.00000000080053     0.00000000665056     0.00000000082933     0.00000000044707
   45     0.00000000163478     0.00000000137359     0.00000003495043     0.00000000085709     0.00000000037576
   46     0.00000003007435     0.00000001042621     0.00000096070123     0.00000000528363     0.00000000189644
   47     0.00000003984903     0.00000004120280     0.00000102613964     0.00000000392603     0.00000000827143
   48     0.00000578726675     0.00000303254992     0.00001120479392     0.00000018472566     0.00000017196003
   49     0.00005578769073     0.00002453898075     0.00078303547757     0.00000239444867     0.00000259335669
   50     0.00012676912170     0.00029585616676     0.00493391630768     0.00004334302798     0.00002265557654
   51     0.00010233734195     0.00001765211767     0.00012001516647     0.00002827905950     0.00000445713835
   52     0.00001225243700     0.00000352488238     0.00005025017179     0.00000223280838     0.00000137856905
   53     0.00115395931284     0.00009178740352     0.00084836779414     0.00006434587522     0.00001844482579
   54     0.00047134350660     0.00035695381483     0.00030436194215     0.00006642833663     0.00002202179576
   55     0.02068770846488     0.00570038273280     0.00797415492248     0.00046970227959     0.00012428663132
   56     0.00000000000000     0.00948497185752     0.01683068857045     0.00691677437899     0.00148142481422
   57     0.00948497185752     0.00000000000000     0.02074421169354     0.00312347579400     0.00711499393317
   58     0.01683068857045     0.02074421169354     0.00000000000000     0.00090658268197     0.00100240176112
   59     0.00691677437899     0.00312347579400     0.00090658268197     0.00000000000000     0.03475808700580
   60     0.00148142481422     0.00711499393317     0.00100240176112     0.03475808700580     0.00000000000000
   61     0.00059290333233     0.00117579244492     0.00068610531751     0.03489257007728     0.03761741073407
   62     0.00044485659326     0.00120788270755     0.00094472153879     0.00278521319517     0.00112915028634
   63     0.00076572633540     0.00107215046604     0.00534234465778     0.00095292727533     0.00066280517143
   64     0.00500822711738     0.00039292396066     0.00088551874395     0.00638222530418     0.00054280529549
   65     0.00079583712622     0.00045044279774     0.00034560140840     0.00041475765485     0.00023142017411
   66     0.00000002086838     0.00000000241253     0.00000004390303     0.00000000144305     0.00000000019097
   67     0.00000002313131     0.00000000243720     0.00000005246858     0.00000000118419     0.00000000018872
   68     0.00000000098828     0.00000000051534     0.00000000646251     0.00000000044340     0.00000000014414

                61                  62                  63                  64                  65

    1     0.00000006794458     0.00000010160424     0.00000107477772     0.00000022545825     0.00000012984443
    2     0.00000002245462     0.00000005335693     0.00000065320780     0.00000005555472     0.00000003408572
    3     0.00000002612827     0.00000007361548     0.00000099088047     0.00000006497916     0.00000009590304
    4     0.00000005505132     0.00000055576112     0.00000787744020     0.00000085848192     0.00000087385799
    5     0.00000046537754     0.00000145071879     0.00002148252177     0.00000210439539     0.00000140962313
    6     0.00000023331447     0.00000072044691     0.00000810087977     0.00000677716907     0.00000073829723
    7     0.00000000547915     0.00000001900381     0.00000016018531     0.00000002556347     0.00000002269547
    8     0.00000000510027     0.00000000926059     0.00000004295567     0.00000000944130     0.00000000943833
    9     0.00000000077366     0.00000000220491     0.00000002309846     0.00000000509397     0.00000000336053
   10     0.00000000127501     0.00000000205804     0.00000002921881     0.00000000540575     0.00000000251602
   11     0.00000000186098     0.00000000566369     0.00000004997014     0.00000001817425     0.00000000763917
   12     0.00000000280340     0.00000002413281     0.00000033776500     0.00000002214102     0.00000002494781
   13     0.00000000107952     0.00000000417191     0.00000009920792     0.00000000573694     0.00000001462618
   14     0.00000000398869     0.00000002919166     0.00000048194140     0.00000010498497     0.00000008597437
   15     0.00000001499136     0.00000010683934     0.00000097071561     0.00000037026890     0.00000027343430
   16     0.00000002342092     0.00000003262049     0.00000044914844     0.00000014801781     0.00000009891748
   17     0.00000005570304     0.00000028300011     0.00000369054054     0.00000076403268     0.00000069279492
   18     0.00000003696691     0.00000035730395     0.00000773286287     0.00000084539246     0.00000152292602
   19     0.00000003004934     0.00000024616511     0.00000332668622     0.00000074992229     0.00000065173934
   20     0.00000022868433     0.00000217429149     0.00004506127242     0.00000544339396     0.00000987129135
   21     0.00000190643395     0.00001791820594     0.00022894725549     0.00004911928406     0.00002381369468
   22     0.00001394963528     0.00014773928900     0.00393441094880     0.00026963466382     0.00024284330853
   23     0.00002633524743     0.00015019796251     0.00347377869806     0.00028682271201     0.00029651633057
   24     0.00005174535995     0.00033512800422     0.00698498361479     0.00055484269166     0.00071095163307
   25     0.00009656941392     0.00093494144955     0.01592741589312     0.00139261207620     0.00741721844642
   26     0.00005772550967     0.00085182056315     0.01857095151912     0.00087557409086     0.00794388457732
   27     0.00003368233413     0.00028405515901     0.00924661560693     0.00031002331393     0.00068115664265
   28     0.00011116604838     0.00116398864854     0.00674183580790     0.01159927358511     0.02183739542391
   29     0.00057673663238     0.01028500041996     0.01183685458170     0.06298348923759     0.05212197902470
   30     0.00168375477503     0.00245454167045     0.00739271739280     0.02010779210362     0.01303740290396
   31     0.01269567769141     0.01312184820475     0.01997855444950     0.00756914309472     0.00212510342961
   32     0.06322096368408     0.05805313086609     0.05840564789744     0.01303455396370     0.01158216717862
   33     0.91976074114870     0.01974189154853     0.01249571871199     0.01339193438384     0.00138322893343
   34     0.01834100113496     0.88555177867926     0.76726782607956     0.04734751443457     0.05558353855965
   35     0.00371278814035     0.06059322173793     0.04347076385534     0.80442172065658     0.85403125799048
   36     0.00000053721777     0.00000399108853     0.00009421549942     0.00001224700405     0.00000871184513
   37     0.00000000147525     0.00000000748092     0.00000006503951     0.00000002894757     0.00000001811653
   38     0.00000001207814     0.00000001493217     0.00000015288242     0.00000002803857     0.00000001745962
   39     0.00000000124415     0.00000000760761     0.00000008501617     0.00000000443346     0.00000000764330
   40     0.00000004353881     0.00000020229480     0.00000277600262     0.00000035105035     0.00000032982869
   41     0.00000022452327     0.00000016828450     0.00000546991423     0.00000536480907     0.00000026083696
   42     0.00000000063786     0.00000000055100     0.00000001359983     0.00000000138724     0.00000000088949
   43     0.00000000006057     0.00000000034331     0.00000000347671     0.00000000041226     0.00000000033081
   44     0.00000000016360     0.00000000044810     0.00000000779294     0.00000000053936     0.00000000234863
   45     0.00000000027420     0.00000000402460     0.00000004820346     0.00000000458500     0.00000001983591
   46     0.00000000324079     0.00000003156962     0.00000102431521     0.00000004118185     0.00000018196110
   47     0.00000000268400     0.00000002657835     0.00000056597831     0.00000007495815     0.00000008420551
   48     0.00000010943721     0.00000084668566     0.00000939343313     0.00000147423602     0.00000169646804
   49     0.00000091997546     0.00000478149785     0.00012132321104     0.00001295743007     0.00002309630429
   50     0.00001261160338     0.00002805250147     0.00068241285098     0.00012688164823     0.00007639856188
   51     0.00001261668378     0.00011481231633     0.00285275651779     0.00012816143915     0.00321938621101
   52     0.00000339804732     0.00002485032011     0.00073137227019     0.00003449302524     0.00003183308308
   53     0.00001957251228     0.00025656789510     0.00043189711372     0.00058631126429     0.00111225579625
   54     0.00002154864198     0.00011883492663     0.00085443458326     0.00112828634793     0.00603228495694
   55     0.00022827263566     0.00035044825607     0.00041723477376     0.00074910705009     0.00120265794316
   56     0.00059290333233     0.00044485659326     0.00076572633540     0.00500822711738     0.00079583712622
   57     0.00117579244492     0.00120788270755     0.00107215046604     0.00039292396066     0.00045044279774
   58     0.00068610531751     0.00094472153879     0.00534234465778     0.00088551874395     0.00034560140840
   59     0.03489257007728     0.00278521319517     0.00095292727533     0.00638222530418     0.00041475765485
   60     0.03761741073407     0.00112915028634     0.00066280517143     0.00054280529549     0.00023142017411
   61     0.00000000000000     0.00607596637481     0.00104539062572     0.00146065284574     0.00010766390424
   62     0.00607596637481     0.00000000000000     0.02179428218389     0.00882065616948     0.00562981124951
   63     0.00104539062572     0.02179428218389     0.00000000000000     0.02040866817214     0.00864832717660
   64     0.00146065284574     0.00882065616948     0.02040866817214     0.00000000000000     0.01971833182896
   65     0.00010766390424     0.00562981124951     0.00864832717660     0.01971833182896     0.00000000000000
   66     0.00000000129581     0.00000000597646     0.00000003466686     0.00000002224238     0.00000000597325
   67     0.00000000089565     0.00000000483868     0.00000003122777     0.00000001959480     0.00000001277509
   68     0.00000000019745     0.00000000079816     0.00000001316830     0.00000000221697     0.00000000192673

                66                  67                  68

    1     0.00000084100604     0.00000087304303     0.00000024460798
    2     0.00000205708541     0.00000247978178     0.00000066470349
    3     0.00001174759631     0.00000909409308     0.00000364596785
    4     0.00000880874456     0.00000839218907     0.00000838388472
    5     0.00000060892201     0.00000072579862     0.00000052622103
    6     0.00000040232341     0.00000095877151     0.00000017822783
    7     0.00004563858703     0.00003937650908     0.00001374175739
    8     0.00007724527038     0.00009694473663     0.00000476014686
    9     0.00004259439107     0.00003615268434     0.00000414699987
   10     0.00025812825868     0.00024873696341     0.00002911898932
   11     0.00081796447876     0.00075623191212     0.00021973640254
   12     0.00027046378585     0.00025734370568     0.00005795939440
   13     0.00973391417215     0.00867390270668     0.00194273087825
   14     0.01649254555081     0.01640502597820     0.00894435596369
   15     0.05731689054359     0.05885555227859     0.05995492334071
   16     0.01466927860064     0.01552915194789     0.02402153665241
   17     0.00125524000272     0.00126212023659     0.00192638162753
   18     0.00278310570588     0.00296211210324     0.00055796177296
   19     0.00120495863692     0.00125763630521     0.00109718463156
   20     0.00035687123469     0.00035460442118     0.00008237086568
   21     0.00019758832160     0.00021515931663     0.00003079139057
   22     0.00001027253819     0.00001296736656     0.00000624277808
   23     0.00001247402906     0.00001377262156     0.00000248343354
   24     0.00000145194188     0.00000173441944     0.00000029572506
   25     0.00000898866048     0.00000965354753     0.00000029255047
   26     0.00000187314931     0.00000199416340     0.00000031186013
   27     0.00001459735707     0.00001616099976     0.00000170293833
   28     0.00000063591221     0.00000061130727     0.00000004185187
   29     0.00000051591755     0.00000058981972     0.00000001520768
   30     0.00000007962844     0.00000010831797     0.00000000646848
   31     0.00000003430060     0.00000002538572     0.00000000534543
   32     0.00000000986973     0.00000001324427     0.00000000627521
   33     0.00000000544695     0.00000000486467     0.00000000129483
   34     0.00000004380204     0.00000005571838     0.00000000904987
   35     0.00000006222929     0.00000009160449     0.00000000801169
   36     0.00011667458183     0.00012955295285     0.00001612675331
   37     0.91873125081413     0.92003814193916     0.92055136593451
   38     0.00000008985262     0.00000008622453     0.00000003852230
   39     0.00000026884967     0.00000024827317     0.00000010915310
   40     0.00000725591285     0.00000763262142     0.00000811216051
   41     0.00000005456026     0.00000005994788     0.00000004181145
   42     0.00000336142013     0.00000382516014     0.00000043225257
   43     0.00000293029312     0.00000255751656     0.00000065508443
   44     0.00526981610974     0.00358122801242     0.00099771167676
   45     0.00121483226226     0.00128455447295     0.00778434811006
   46     0.00021296670355     0.00020973055919     0.00012869320929
   47     0.00018227536399     0.00017976671331     0.00034749450562
   48     0.00003688071793     0.00004328676222     0.00003929199794
   49     0.00000189268476     0.00000162985942     0.00000143443719
   50     0.00000004686776     0.00000006682093     0.00000004425700
   51     0.00000011061407     0.00000007833347     0.00000005997914
   52     0.00000103328771     0.00000097408992     0.00000060972155
   53     0.00000009870480     0.00000012718707     0.00000000914961
   54     0.00000005346216     0.00000006693011     0.00000000836772
   55     0.00000000324550     0.00000000879116     0.00000000213178
   56     0.00000002086838     0.00000002313131     0.00000000098828
   57     0.00000000241253     0.00000000243720     0.00000000051534
   58     0.00000004390303     0.00000005246858     0.00000000646251
   59     0.00000000144305     0.00000000118419     0.00000000044340
   60     0.00000000019097     0.00000000018872     0.00000000014414
   61     0.00000000129581     0.00000000089565     0.00000000019745
   62     0.00000000597646     0.00000000483868     0.00000000079816
   63     0.00000003466686     0.00000003122777     0.00000001316830
   64     0.00000002224238     0.00000001959480     0.00000000221697
   65     0.00000000597325     0.00000001277509     0.00000000192673
   66     0.00000000000000     0.03548839957634     0.03907802512393
   67     0.03548839957634     0.00000000000000     0.03917063632798
   68     0.03907802512393     0.03917063632798     0.00000000000000



  Atomic Valences: 

 #  #
 Irrep: 1
      1:  4.3904882
      2:  4.4210139
      3:  4.6025590
      4:  4.5834584
      5:  3.9262805
      6:  4.5448938
      7:  4.7427354
      8:  4.3674794
      9:  4.5224064
     10:  3.8657220
     11:  5.0014598
     12:  3.9640085
     13:  4.0327232
     14:  4.6627534
     15:  4.6235929
     16:  4.4374126
     17:  4.4022982
     18:  4.6674734
     19:  4.4273693
     20:  4.0711474
     21:  4.9844653
     22:  4.6049953
     23:  4.4701067
     24:  4.4934028
     25:  4.7203348
     26:  4.4733533
     27:  4.4404505
     28:  4.5074800
     29:  4.2458512
     30:  4.5609743
     31:  4.5796753
     32:  4.2151488
     33:  4.2765616
     34:  4.5624713
     35:  4.5534642
     36:  2.7647747
     37:  4.1494817
     38:  1.0980616
     39:  1.1010888
     40:  1.1143192
     41:  1.0916628
     42:  1.1088026
     43:  1.0861530
     44:  1.1749313
     45:  1.0999045
     46:  1.1069215
     47:  1.1375408
     48:  1.1936521
     49:  1.1249453
     50:  1.1136078
     51:  1.1064907
     52:  1.1012901
     53:  1.1091369
     54:  1.1096533
     55:  1.0917160
     56:  1.0488219
     57:  1.0642233
     58:  1.0848859
     59:  1.1314939
     60:  1.1067408
     61:  1.1043404
     62:  1.1034297
     63:  1.0529576
     64:  1.0506185
     65:  1.0770865
     66:  1.1059464
     67:  1.1071732
     68:  1.1070380


    Psi4 stopped on: Tuesday, 14 April 2020 01:05PM
    Psi4 wall time for execution: 0:21:26.35

*** Psi4 exiting successfully. Buy a developer a beer!
