 Entering Gaussian System, Link 0=g09
 Input=MOLECULE0-opt-25-28-29-35-116.com
 Output=MOLECULE0-opt-25-28-29-35-116.log
 Initial command:
 /opt/g09gh/gaussian/g09/l1.exe /scratch/bdw2292/Gau-MOLECULE0/Gau-46492.inp -scrdir=/scratch/bdw2292/Gau-MOLECULE0/
 Entering Link 1 = /opt/g09gh/gaussian/g09/l1.exe PID=     46493.
  
 Copyright (c) 1988,1990,1992,1993,1995,1998,2003,2009, Gaussian, Inc.
                  All Rights Reserved.
  
 This is part of the Gaussian(R) 09 program.  It is based on
 the Gaussian(R) 03 system (copyright 2003, Gaussian, Inc.),
 the Gaussian(R) 98 system (copyright 1998, Gaussian, Inc.),
 the Gaussian(R) 94 system (copyright 1995, Gaussian, Inc.),
 the Gaussian 92(TM) system (copyright 1992, Gaussian, Inc.),
 the Gaussian 90(TM) system (copyright 1990, Gaussian, Inc.),
 the Gaussian 88(TM) system (copyright 1988, Gaussian, Inc.),
 the Gaussian 86(TM) system (copyright 1986, Carnegie Mellon
 University), and the Gaussian 82(TM) system (copyright 1983,
 Carnegie Mellon University). Gaussian is a federally registered
 trademark of Gaussian, Inc.
  
 This software contains proprietary and confidential information,
 including trade secrets, belonging to Gaussian, Inc.
  
 This software is provided under written license and may be
 used, copied, transmitted, or stored only in accord with that
 written license.
  
 The following legend is applicable only to US Government
 contracts under FAR:
  
                    RESTRICTED RIGHTS LEGEND
  
 Use, reproduction and disclosure by the US Government is
 subject to restrictions as set forth in subparagraphs (a)
 and (c) of the Commercial Computer Software - Restricted
 Rights clause in FAR 52.227-19.
  
 Gaussian, Inc.
 340 Quinnipiac St., Bldg. 40, Wallingford CT 06492
  
  
 ---------------------------------------------------------------
 Warning -- This program may not be used in any manner that
 competes with the business of Gaussian, Inc. or will provide
 assistance to any competitor of Gaussian, Inc.  The licensee
 of this program is prohibited from giving any competitor of
 Gaussian, Inc. access to this program.  By using this program,
 the user acknowledges that Gaussian, Inc. is engaged in the
 business of creating and licensing software in the field of
 computational chemistry and represents and warrants to the
 licensee that it is not a competitor of Gaussian, Inc. and that
 it will not use this program in any manner prohibited above.
 ---------------------------------------------------------------
  

 Cite this work as:
 Gaussian 09, Revision A.02,
 M. J. Frisch, G. W. Trucks, H. B. Schlegel, G. E. Scuseria, 
 M. A. Robb, J. R. Cheeseman, G. Scalmani, V. Barone, B. Mennucci, 
 G. A. Petersson, H. Nakatsuji, M. Caricato, X. Li, H. P. Hratchian, 
 A. F. Izmaylov, J. Bloino, G. Zheng, J. L. Sonnenberg, M. Hada, 
 M. Ehara, K. Toyota, R. Fukuda, J. Hasegawa, M. Ishida, T. Nakajima, 
 Y. Honda, O. Kitao, H. Nakai, T. Vreven, J. A. Montgomery, Jr., 
 J. E. Peralta, F. Ogliaro, M. Bearpark, J. J. Heyd, E. Brothers, 
 K. N. Kudin, V. N. Staroverov, R. Kobayashi, J. Normand, 
 K. Raghavachari, A. Rendell, J. C. Burant, S. S. Iyengar, J. Tomasi, 
 M. Cossi, N. Rega, J. M. Millam, M. Klene, J. E. Knox, J. B. Cross, 
 V. Bakken, C. Adamo, J. Jaramillo, R. Gomperts, R. E. Stratmann, 
 O. Yazyev, A. J. Austin, R. Cammi, C. Pomelli, J. W. Ochterski, 
 R. L. Martin, K. Morokuma, V. G. Zakrzewski, G. A. Voth, 
 P. Salvador, J. J. Dannenberg, S. Dapprich, A. D. Daniels, 
 O. Farkas, J. B. Foresman, J. V. Ortiz, J. Cioslowski, 
 and D. J. Fox, Gaussian, Inc., Wallingford CT, 2009.
 
 ******************************************
 Gaussian 09:  EM64L-G09RevA.02 11-Jun-2009
                11-Mar-2020 
 ******************************************
 %RWF=/scratch/bdw2292/Gau-MOLECULE0/,100GB
 %Nosave
 %Chk=MOLECULE0-opt-25-28-29-35-116.chk
 %Mem=20GB
 %Nproc=6
 Will use up to    6 processors via shared memory.
 --------------------------------------------------
 #P opt=(,maxcycle=400) wB97XD/6-31G* MaxDisk=100GB
 --------------------------------------------------
 1/6=400,14=-1,18=20,19=15,26=3,38=1/1,3;
 2/9=110,12=2,17=6,18=5,40=1/2;
 3/5=1,6=6,7=1,11=2,16=1,25=1,30=1,71=1,74=-58/1,2,3;
 4//1;
 5/5=2,38=5/2;
 6/7=2,8=2,9=2,10=2,28=1/1;
 7//1,2,3,16;
 1/6=400,14=-1,18=20,19=15/3(2);
 2/9=110/2;
 99//99;
 2/9=110/2;
 3/5=1,6=6,7=1,11=2,16=1,25=1,30=1,71=1,74=-58/1,2,3;
 4/5=5,16=3/1;
 5/5=2,38=5/2;
 7//1,2,3,16;
 1/6=400,14=-1,18=20,19=15/3(-5);
 2/9=110/2;
 6/7=2,8=2,9=2,10=2,19=2,28=1/1;
 99/9=1/99;
 Leave Link    1 at Wed Mar 11 00:05:17 2020, MaxMem= 2684354560 cpu:       0.2
 (Enter /opt/g09gh/gaussian/g09/l101.exe)
 -----------------------------------------------------------------
 MOLECULE0 Rotatable Bond Optimization on g2-node38.bme.utexas.edu
 -----------------------------------------------------------------
 Symbolic Z-matrix:
 Charge =  0 Multiplicity = 1
 C                     0.08897   4.63464  -1.42559 
 C                     1.4128    4.49012  -0.98785 
 C                     1.94633   3.20387  -0.77253 
 C                     1.07508   2.12258  -1.05577 
 N                    -0.18881   2.23816  -1.4823 
 C                    -0.66783   3.47954  -1.65372 
 C                     3.35315   2.95297  -0.28745 
 C                     4.33621   3.93293  -0.07724 
 C                     5.58255   3.4589    0.34819 
 N                     5.86584   2.17847   0.57185 
 C                     4.8536    1.30894   0.37018 
 N                     3.63384   1.65794  -0.0474 
 N                     5.14614  -0.02314   0.62257 
 C                     4.39258  -1.24473   0.4724 
 C                     5.07918  -2.4965    0.45481 
 C                     4.29922  -3.65305   0.28319 
 C                     2.90702  -3.64214   0.13517 
 C                     2.24552  -2.41064   0.18421 
 C                     2.99721  -1.23692   0.35336 
 N                     0.83376  -2.20765   0.05134 
 C                    -0.17819  -3.07024  -0.29946 
 C                    -1.54025  -2.4704   -0.5939 
 C                    -1.71072  -1.21618  -1.205 
 C                    -2.99091  -0.71065  -1.43996 
 C                    -4.14326  -1.44626  -1.10561 
 C                    -3.9598   -2.69677  -0.48489 
 C                    -2.68246  -3.20921  -0.24257 
 C                    -5.53762  -0.87306  -1.35877 
 N                    -6.0415    0.04419  -0.31731 
 C                    -7.08141  -0.44631   0.61169 
 C                    -8.51793  -0.18472   0.09194 
 N                    -8.80023   1.21942  -0.29091 
 C                    -9.1959    2.12064   0.79829 
 C                    -7.73043   1.71316  -1.19287 
 C                    -6.29147   1.45504  -0.67804 
 O                    -0.01587  -4.27979  -0.34836 
 C                     6.58758  -2.62483   0.58255 
 H                    -0.34656   5.61658  -1.58548 
 H                     1.99547   5.38935  -0.80365 
 H                     1.43063   1.10275  -0.95515 
 H                    -1.69922   3.54784  -1.99592 
 H                     4.18541   4.99158  -0.24969 
 H                     6.40487   4.15378   0.5168 
 H                     6.11764  -0.11316   0.88003 
 H                     4.79041  -4.62488   0.2501 
 H                     2.34433  -4.55696  -0.00618 
 H                     2.49456  -0.28406   0.39204 
 H                     0.53957  -1.24857   0.17196 
 H                    -0.84014  -0.62842  -1.48694 
 H                    -3.0844    0.27314  -1.89952 
 H                    -4.82493  -3.29157  -0.19207 
 H                    -2.55012  -4.18231   0.22415 
 H                    -5.54839  -0.34952  -2.32505 
 H                    -6.24552  -1.70739  -1.46763 
 H                    -6.90994  -1.46506   0.86124 
 H                    -6.94861   0.35985   1.93232 
 H                    -9.42667  -0.58284   1.05427 
 H                    -8.70957  -1.03816  -1.14243 
 H                    -8.37483   2.25911   1.51109 
 H                    -10.06249   1.71313   1.33122 
 H                    -9.48135   3.09888   0.39458 
 H                    -7.90041   2.75006  -1.42221 
 H                    -7.85535   0.90252  -2.52555 
 H                    -6.10285   2.30332   0.56565 
 H                    -5.41291   1.85603  -1.56323 
 H                     6.93703  -2.27572   1.56445 
 H                     7.10896  -2.0332   -0.18323 
 H                     6.94121  -3.65924   0.47201 
 
 NAtoms=     68 NQM=     68 NQMF=      0 NMic=      0 NMicF=      0 NTot=     68.
                    Isotopes and Nuclear Properties:
 (Nuclear quadrupole moments (NQMom) in fm**2, nuclear magnetic moments (NMagM)
  in nuclear magnetons)

  Atom         1           2           3           4           5           6           7           8           9          10
 IAtWgt=          12          12          12          12          14          12          12          12          12          14
 AtmWgt=  12.0000000  12.0000000  12.0000000  12.0000000  14.0030740  12.0000000  12.0000000  12.0000000  12.0000000  14.0030740
 NucSpn=           0           0           0           0           2           0           0           0           0           2
 AtZEff=   0.0000000   0.0000000   0.0000000   0.0000000   0.0000000   0.0000000   0.0000000   0.0000000   0.0000000   0.0000000
 NQMom=    0.0000000   0.0000000   0.0000000   0.0000000   2.0440000   0.0000000   0.0000000   0.0000000   0.0000000   2.0440000
 NMagM=    0.0000000   0.0000000   0.0000000   0.0000000   0.4037610   0.0000000   0.0000000   0.0000000   0.0000000   0.4037610

  Atom        11          12          13          14          15          16          17          18          19          20
 IAtWgt=          12          14          14          12          12          12          12          12          12          14
 AtmWgt=  12.0000000  14.0030740  14.0030740  12.0000000  12.0000000  12.0000000  12.0000000  12.0000000  12.0000000  14.0030740
 NucSpn=           0           2           2           0           0           0           0           0           0           2
 AtZEff=   0.0000000   0.0000000   0.0000000   0.0000000   0.0000000   0.0000000   0.0000000   0.0000000   0.0000000   0.0000000
 NQMom=    0.0000000   2.0440000   2.0440000   0.0000000   0.0000000   0.0000000   0.0000000   0.0000000   0.0000000   2.0440000
 NMagM=    0.0000000   0.4037610   0.4037610   0.0000000   0.0000000   0.0000000   0.0000000   0.0000000   0.0000000   0.4037610

  Atom        21          22          23          24          25          26          27          28          29          30
 IAtWgt=          12          12          12          12          12          12          12          12          14          12
 AtmWgt=  12.0000000  12.0000000  12.0000000  12.0000000  12.0000000  12.0000000  12.0000000  12.0000000  14.0030740  12.0000000
 NucSpn=           0           0           0           0           0           0           0           0           2           0
 AtZEff=   0.0000000   0.0000000   0.0000000   0.0000000   0.0000000   0.0000000   0.0000000   0.0000000   0.0000000   0.0000000
 NQMom=    0.0000000   0.0000000   0.0000000   0.0000000   0.0000000   0.0000000   0.0000000   0.0000000   2.0440000   0.0000000
 NMagM=    0.0000000   0.0000000   0.0000000   0.0000000   0.0000000   0.0000000   0.0000000   0.0000000   0.4037610   0.0000000

  Atom        31          32          33          34          35          36          37          38          39          40
 IAtWgt=          12          14          12          12          12          16          12           1           1           1
 AtmWgt=  12.0000000  14.0030740  12.0000000  12.0000000  12.0000000  15.9949146  12.0000000   1.0078250   1.0078250   1.0078250
 NucSpn=           0           2           0           0           0           0           0           1           1           1
 AtZEff=   0.0000000   0.0000000   0.0000000   0.0000000   0.0000000   0.0000000   0.0000000   0.0000000   0.0000000   0.0000000
 NQMom=    0.0000000   2.0440000   0.0000000   0.0000000   0.0000000   0.0000000   0.0000000   0.0000000   0.0000000   0.0000000
 NMagM=    0.0000000   0.4037610   0.0000000   0.0000000   0.0000000   0.0000000   0.0000000   2.7928460   2.7928460   2.7928460

  Atom        41          42          43          44          45          46          47          48          49          50
 IAtWgt=           1           1           1           1           1           1           1           1           1           1
 AtmWgt=   1.0078250   1.0078250   1.0078250   1.0078250   1.0078250   1.0078250   1.0078250   1.0078250   1.0078250   1.0078250
 NucSpn=           1           1           1           1           1           1           1           1           1           1
 AtZEff=   0.0000000   0.0000000   0.0000000   0.0000000   0.0000000   0.0000000   0.0000000   0.0000000   0.0000000   0.0000000
 NQMom=    0.0000000   0.0000000   0.0000000   0.0000000   0.0000000   0.0000000   0.0000000   0.0000000   0.0000000   0.0000000
 NMagM=    2.7928460   2.7928460   2.7928460   2.7928460   2.7928460   2.7928460   2.7928460   2.7928460   2.7928460   2.7928460

  Atom        51          52          53          54          55          56          57          58          59          60
 IAtWgt=           1           1           1           1           1           1           1           1           1           1
 AtmWgt=   1.0078250   1.0078250   1.0078250   1.0078250   1.0078250   1.0078250   1.0078250   1.0078250   1.0078250   1.0078250
 NucSpn=           1           1           1           1           1           1           1           1           1           1
 AtZEff=   0.0000000   0.0000000   0.0000000   0.0000000   0.0000000   0.0000000   0.0000000   0.0000000   0.0000000   0.0000000
 NQMom=    0.0000000   0.0000000   0.0000000   0.0000000   0.0000000   0.0000000   0.0000000   0.0000000   0.0000000   0.0000000
 NMagM=    2.7928460   2.7928460   2.7928460   2.7928460   2.7928460   2.7928460   2.7928460   2.7928460   2.7928460   2.7928460

  Atom        61          62          63          64          65          66          67          68
 IAtWgt=           1           1           1           1           1           1           1           1
 AtmWgt=   1.0078250   1.0078250   1.0078250   1.0078250   1.0078250   1.0078250   1.0078250   1.0078250
 NucSpn=           1           1           1           1           1           1           1           1
 AtZEff=   0.0000000   0.0000000   0.0000000   0.0000000   0.0000000   0.0000000   0.0000000   0.0000000
 NQMom=    0.0000000   0.0000000   0.0000000   0.0000000   0.0000000   0.0000000   0.0000000   0.0000000
 NMagM=    2.7928460   2.7928460   2.7928460   2.7928460   2.7928460   2.7928460   2.7928460   2.7928460
 Leave Link  101 at Wed Mar 11 00:05:17 2020, MaxMem= 2684354560 cpu:       0.4
 (Enter /opt/g09gh/gaussian/g09/l103.exe)

 GradGradGradGradGradGradGradGradGradGradGradGradGradGradGradGradGradGrad
 Berny optimization.
 Initialization pass.
                           ----------------------------
                           !    Initial Parameters    !
                           ! (Angstroms and Degrees)  !
 --------------------------                            --------------------------
 ! Name  Definition              Value          Derivative Info.                !
 --------------------------------------------------------------------------------
 ! R1    R(1,2)                  1.4018         estimate D2E/DX2                !
 ! R2    R(1,6)                  1.3997         estimate D2E/DX2                !
 ! R3    R(1,38)                 1.086          estimate D2E/DX2                !
 ! R4    R(2,3)                  1.4091         estimate D2E/DX2                !
 ! R5    R(2,39)                 1.0872         estimate D2E/DX2                !
 ! R6    R(3,4)                  1.4172         estimate D2E/DX2                !
 ! R7    R(3,7)                  1.5091         estimate D2E/DX2                !
 ! R8    R(4,5)                  1.3389         estimate D2E/DX2                !
 ! R9    R(4,40)                 1.0847         estimate D2E/DX2                !
 ! R10   R(5,6)                  1.3416         estimate D2E/DX2                !
 ! R11   R(6,41)                 1.0888         estimate D2E/DX2                !
 ! R12   R(7,8)                  1.4039         estimate D2E/DX2                !
 ! R13   R(7,12)                 1.3467         estimate D2E/DX2                !
 ! R14   R(8,9)                  1.3997         estimate D2E/DX2                !
 ! R15   R(8,42)                 1.0832         estimate D2E/DX2                !
 ! R16   R(9,10)                 1.3303         estimate D2E/DX2                !
 ! R17   R(9,43)                 1.0897         estimate D2E/DX2                !
 ! R18   R(10,11)                1.3496         estimate D2E/DX2                !
 ! R19   R(11,12)                1.3357         estimate D2E/DX2                !
 ! R20   R(11,13)                1.387          estimate D2E/DX2                !
 ! R21   R(13,14)                1.4432         estimate D2E/DX2                !
 ! R22   R(13,44)                1.0091         estimate D2E/DX2                !
 ! R23   R(14,15)                1.4278         estimate D2E/DX2                !
 ! R24   R(14,19)                1.4005         estimate D2E/DX2                !
 ! R25   R(15,16)                1.4055         estimate D2E/DX2                !
 ! R26   R(15,37)                1.5192         estimate D2E/DX2                !
 ! R27   R(16,17)                1.4001         estimate D2E/DX2                !
 ! R28   R(16,45)                1.0894         estimate D2E/DX2                !
 ! R29   R(17,18)                1.3988         estimate D2E/DX2                !
 ! R30   R(17,46)                1.0833         estimate D2E/DX2                !
 ! R31   R(18,19)                1.404          estimate D2E/DX2                !
 ! R32   R(18,20)                1.4324         estimate D2E/DX2                !
 ! R33   R(19,47)                1.078          estimate D2E/DX2                !
 ! R34   R(20,21)                1.3752         estimate D2E/DX2                !
 ! R35   R(20,48)                1.0104         estimate D2E/DX2                !
 ! R36   R(21,22)                1.5171         estimate D2E/DX2                !
 ! R37   R(21,36)                1.2214         estimate D2E/DX2                !
 ! R38   R(22,23)                1.4056         estimate D2E/DX2                !
 ! R39   R(22,27)                1.405          estimate D2E/DX2                !
 ! R40   R(23,24)                1.3963         estimate D2E/DX2                !
 ! R41   R(23,49)                1.0876         estimate D2E/DX2                !
 ! R42   R(24,25)                1.4074         estimate D2E/DX2                !
 ! R43   R(24,50)                1.0898         estimate D2E/DX2                !
 ! R44   R(25,26)                1.4081         estimate D2E/DX2                !
 ! R45   R(25,28)                1.5287         estimate D2E/DX2                !
 ! R46   R(26,27)                1.3975         estimate D2E/DX2                !
 ! R47   R(26,51)                1.0899         estimate D2E/DX2                !
 ! R48   R(27,52)                1.0873         estimate D2E/DX2                !
 ! R49   R(28,29)                1.4764         estimate D2E/DX2                !
 ! R50   R(28,53)                1.099          estimate D2E/DX2                !
 ! R51   R(28,54)                1.0996         estimate D2E/DX2                !
 ! R52   R(29,30)                1.4782         estimate D2E/DX2                !
 ! R53   R(29,35)                1.4775         estimate D2E/DX2                !
 ! R54   R(30,31)                1.5499         estimate D2E/DX2                !
 ! R55   R(30,55)                1.0628         estimate D2E/DX2                !
 ! R56   R(30,56)                1.5529         estimate D2E/DX2                !
 ! R57   R(31,32)                1.4825         estimate D2E/DX2                !
 ! R58   R(31,57)                1.3822         estimate D2E/DX2                !
 ! R59   R(31,58)                1.5129         estimate D2E/DX2                !
 ! R60   R(32,33)                1.468          estimate D2E/DX2                !
 ! R61   R(32,34)                1.4838         estimate D2E/DX2                !
 ! R62   R(33,59)                1.0961         estimate D2E/DX2                !
 ! R63   R(33,60)                1.0959         estimate D2E/DX2                !
 ! R64   R(33,61)                1.0961         estimate D2E/DX2                !
 ! R65   R(34,35)                1.5499         estimate D2E/DX2                !
 ! R66   R(34,62)                1.0755         estimate D2E/DX2                !
 ! R67   R(34,63)                1.5649         estimate D2E/DX2                !
 ! R68   R(35,64)                1.5172         estimate D2E/DX2                !
 ! R69   R(35,65)                1.31           estimate D2E/DX2                !
 ! R70   R(37,66)                1.0991         estimate D2E/DX2                !
 ! R71   R(37,67)                1.0992         estimate D2E/DX2                !
 ! R72   R(37,68)                1.0988         estimate D2E/DX2                !
 ! A1    A(2,1,6)              118.4535         estimate D2E/DX2                !
 ! A2    A(2,1,38)             121.1925         estimate D2E/DX2                !
 ! A3    A(6,1,38)             120.354          estimate D2E/DX2                !
 ! A4    A(1,2,3)              119.9614         estimate D2E/DX2                !
 ! A5    A(1,2,39)             118.2783         estimate D2E/DX2                !
 ! A6    A(3,2,39)             121.7481         estimate D2E/DX2                !
 ! A7    A(2,3,4)              115.6678         estimate D2E/DX2                !
 ! A8    A(2,3,7)              123.633          estimate D2E/DX2                !
 ! A9    A(4,3,7)              120.6959         estimate D2E/DX2                !
 ! A10   A(3,4,5)              125.318          estimate D2E/DX2                !
 ! A11   A(3,4,40)             119.8205         estimate D2E/DX2                !
 ! A12   A(5,4,40)             114.843          estimate D2E/DX2                !
 ! A13   A(4,5,6)              117.2345         estimate D2E/DX2                !
 ! A14   A(1,6,5)              123.3489         estimate D2E/DX2                !
 ! A15   A(1,6,41)             120.7736         estimate D2E/DX2                !
 ! A16   A(5,6,41)             115.8756         estimate D2E/DX2                !
 ! A17   A(3,7,8)              125.7922         estimate D2E/DX2                !
 ! A18   A(3,7,12)             114.2987         estimate D2E/DX2                !
 ! A19   A(8,7,12)             119.9088         estimate D2E/DX2                !
 ! A20   A(7,8,9)              115.6352         estimate D2E/DX2                !
 ! A21   A(7,8,42)             124.1191         estimate D2E/DX2                !
 ! A22   A(9,8,42)             120.2233         estimate D2E/DX2                !
 ! A23   A(8,9,10)             124.5196         estimate D2E/DX2                !
 ! A24   A(8,9,43)             120.2            estimate D2E/DX2                !
 ! A25   A(10,9,43)            115.2802         estimate D2E/DX2                !
 ! A26   A(9,10,11)            115.8036         estimate D2E/DX2                !
 ! A27   A(10,11,12)           124.2858         estimate D2E/DX2                !
 ! A28   A(10,11,13)           115.6839         estimate D2E/DX2                !
 ! A29   A(12,11,13)           120.0302         estimate D2E/DX2                !
 ! A30   A(7,12,11)            119.825          estimate D2E/DX2                !
 ! A31   A(11,13,14)           133.1493         estimate D2E/DX2                !
 ! A32   A(11,13,44)           109.5835         estimate D2E/DX2                !
 ! A33   A(14,13,44)           116.9848         estimate D2E/DX2                !
 ! A34   A(13,14,15)           119.4914         estimate D2E/DX2                !
 ! A35   A(13,14,19)           121.6268         estimate D2E/DX2                !
 ! A36   A(15,14,19)           118.8798         estimate D2E/DX2                !
 ! A37   A(14,15,16)           117.1339         estimate D2E/DX2                !
 ! A38   A(14,15,37)           123.3993         estimate D2E/DX2                !
 ! A39   A(16,15,37)           119.4548         estimate D2E/DX2                !
 ! A40   A(15,16,17)           123.9388         estimate D2E/DX2                !
 ! A41   A(15,16,45)           119.1811         estimate D2E/DX2                !
 ! A42   A(17,16,45)           116.8767         estimate D2E/DX2                !
 ! A43   A(16,17,18)           118.2555         estimate D2E/DX2                !
 ! A44   A(16,17,46)           121.5817         estimate D2E/DX2                !
 ! A45   A(18,17,46)           120.161          estimate D2E/DX2                !
 ! A46   A(17,18,19)           119.1457         estimate D2E/DX2                !
 ! A47   A(17,18,20)           125.9865         estimate D2E/DX2                !
 ! A48   A(19,18,20)           114.8571         estimate D2E/DX2                !
 ! A49   A(14,19,18)           122.6164         estimate D2E/DX2                !
 ! A50   A(14,19,47)           117.8052         estimate D2E/DX2                !
 ! A51   A(18,19,47)           119.5782         estimate D2E/DX2                !
 ! A52   A(18,20,21)           131.2999         estimate D2E/DX2                !
 ! A53   A(18,20,48)           114.2296         estimate D2E/DX2                !
 ! A54   A(21,20,48)           114.3041         estimate D2E/DX2                !
 ! A55   A(20,21,22)           117.526          estimate D2E/DX2                !
 ! A56   A(20,21,36)           122.2486         estimate D2E/DX2                !
 ! A57   A(22,21,36)           120.2048         estimate D2E/DX2                !
 ! A58   A(21,22,23)           123.0978         estimate D2E/DX2                !
 ! A59   A(21,22,27)           118.2577         estimate D2E/DX2                !
 ! A60   A(23,22,27)           118.644          estimate D2E/DX2                !
 ! A61   A(22,23,24)           120.4924         estimate D2E/DX2                !
 ! A62   A(22,23,49)           119.8585         estimate D2E/DX2                !
 ! A63   A(24,23,49)           119.6451         estimate D2E/DX2                !
 ! A64   A(23,24,25)           121.4313         estimate D2E/DX2                !
 ! A65   A(23,24,50)           118.4515         estimate D2E/DX2                !
 ! A66   A(25,24,50)           120.1156         estimate D2E/DX2                !
 ! A67   A(24,25,26)           117.5306         estimate D2E/DX2                !
 ! A68   A(24,25,28)           120.7635         estimate D2E/DX2                !
 ! A69   A(26,25,28)           121.6579         estimate D2E/DX2                !
 ! A70   A(25,26,27)           121.4118         estimate D2E/DX2                !
 ! A71   A(25,26,51)           119.9773         estimate D2E/DX2                !
 ! A72   A(27,26,51)           118.6078         estimate D2E/DX2                !
 ! A73   A(22,27,26)           120.458          estimate D2E/DX2                !
 ! A74   A(22,27,52)           118.6206         estimate D2E/DX2                !
 ! A75   A(26,27,52)           120.9208         estimate D2E/DX2                !
 ! A76   A(25,28,29)           115.3043         estimate D2E/DX2                !
 ! A77   A(25,28,53)           109.4605         estimate D2E/DX2                !
 ! A78   A(25,28,54)           108.6088         estimate D2E/DX2                !
 ! A79   A(29,28,53)           108.7164         estimate D2E/DX2                !
 ! A80   A(29,28,54)           108.7541         estimate D2E/DX2                !
 ! A81   A(53,28,54)           105.5511         estimate D2E/DX2                !
 ! A82   A(28,29,30)           118.5063         estimate D2E/DX2                !
 ! A83   A(28,29,35)           118.6031         estimate D2E/DX2                !
 ! A84   A(30,29,35)           110.5654         estimate D2E/DX2                !
 ! A85   A(29,30,31)           112.661          estimate D2E/DX2                !
 ! A86   A(29,30,55)           110.6184         estimate D2E/DX2                !
 ! A87   A(29,30,56)           107.5801         estimate D2E/DX2                !
 ! A88   A(31,30,55)           112.9581         estimate D2E/DX2                !
 ! A89   A(31,30,56)           106.0709         estimate D2E/DX2                !
 ! A90   A(55,30,56)           106.5074         estimate D2E/DX2                !
 ! A91   A(30,31,32)           115.0205         estimate D2E/DX2                !
 ! A92   A(30,31,57)           109.104          estimate D2E/DX2                !
 ! A93   A(30,31,58)           107.2061         estimate D2E/DX2                !
 ! A94   A(32,31,57)           109.1123         estimate D2E/DX2                !
 ! A95   A(32,31,58)           107.4256         estimate D2E/DX2                !
 ! A96   A(57,31,58)           108.8026         estimate D2E/DX2                !
 ! A97   A(31,32,33)           116.1777         estimate D2E/DX2                !
 ! A98   A(31,32,34)           109.5631         estimate D2E/DX2                !
 ! A99   A(33,32,34)           116.171          estimate D2E/DX2                !
 ! A100  A(32,33,59)           110.9864         estimate D2E/DX2                !
 ! A101  A(32,33,60)           110.2217         estimate D2E/DX2                !
 ! A102  A(32,33,61)           110.1699         estimate D2E/DX2                !
 ! A103  A(59,33,60)           108.8489         estimate D2E/DX2                !
 ! A104  A(59,33,61)           108.775          estimate D2E/DX2                !
 ! A105  A(60,33,61)           107.7609         estimate D2E/DX2                !
 ! A106  A(32,34,35)           114.332          estimate D2E/DX2                !
 ! A107  A(32,34,62)           109.6625         estimate D2E/DX2                !
 ! A108  A(32,34,63)           106.723          estimate D2E/DX2                !
 ! A109  A(35,34,62)           112.2177         estimate D2E/DX2                !
 ! A110  A(35,34,63)           105.7073         estimate D2E/DX2                !
 ! A111  A(62,34,63)           107.7722         estimate D2E/DX2                !
 ! A112  A(29,35,34)           113.402          estimate D2E/DX2                !
 ! A113  A(29,35,64)           108.2227         estimate D2E/DX2                !
 ! A114  A(29,35,65)           110.1077         estimate D2E/DX2                !
 ! A115  A(34,35,64)           107.133          estimate D2E/DX2                !
 ! A116  A(34,35,65)           110.3159         estimate D2E/DX2                !
 ! A117  A(64,35,65)           107.4201         estimate D2E/DX2                !
 ! A118  A(15,37,66)           111.3428         estimate D2E/DX2                !
 ! A119  A(15,37,67)           111.5244         estimate D2E/DX2                !
 ! A120  A(15,37,68)           112.993          estimate D2E/DX2                !
 ! A121  A(66,37,67)           107.4932         estimate D2E/DX2                !
 ! A122  A(66,37,68)           106.6522         estimate D2E/DX2                !
 ! A123  A(67,37,68)           106.497          estimate D2E/DX2                !
 ! D1    D(6,1,2,3)             -0.7568         estimate D2E/DX2                !
 ! D2    D(6,1,2,39)          -179.5033         estimate D2E/DX2                !
 ! D3    D(38,1,2,3)           179.1963         estimate D2E/DX2                !
 ! D4    D(38,1,2,39)            0.4498         estimate D2E/DX2                !
 ! D5    D(2,1,6,5)             -0.3985         estimate D2E/DX2                !
 ! D6    D(2,1,6,41)          -179.8863         estimate D2E/DX2                !
 ! D7    D(38,1,6,5)           179.6479         estimate D2E/DX2                !
 ! D8    D(38,1,6,41)            0.1602         estimate D2E/DX2                !
 ! D9    D(1,2,3,4)              1.3819         estimate D2E/DX2                !
 ! D10   D(1,2,3,7)           -179.2709         estimate D2E/DX2                !
 ! D11   D(39,2,3,4)          -179.9163         estimate D2E/DX2                !
 ! D12   D(39,2,3,7)            -0.569          estimate D2E/DX2                !
 ! D13   D(2,3,4,5)             -1.0164         estimate D2E/DX2                !
 ! D14   D(2,3,4,40)           177.3366         estimate D2E/DX2                !
 ! D15   D(7,3,4,5)            179.6156         estimate D2E/DX2                !
 ! D16   D(7,3,4,40)            -2.0313         estimate D2E/DX2                !
 ! D17   D(2,3,7,8)             -4.6886         estimate D2E/DX2                !
 ! D18   D(2,3,7,12)           175.1127         estimate D2E/DX2                !
 ! D19   D(4,3,7,8)            174.6272         estimate D2E/DX2                !
 ! D20   D(4,3,7,12)            -5.5716         estimate D2E/DX2                !
 ! D21   D(3,4,5,6)             -0.0621         estimate D2E/DX2                !
 ! D22   D(40,4,5,6)          -178.4875         estimate D2E/DX2                !
 ! D23   D(4,5,6,1)              0.8027         estimate D2E/DX2                !
 ! D24   D(4,5,6,41)          -179.6865         estimate D2E/DX2                !
 ! D25   D(3,7,8,9)           -178.6095         estimate D2E/DX2                !
 ! D26   D(3,7,8,42)            -0.3305         estimate D2E/DX2                !
 ! D27   D(12,7,8,9)             1.5995         estimate D2E/DX2                !
 ! D28   D(12,7,8,42)          179.8784         estimate D2E/DX2                !
 ! D29   D(3,7,12,11)          179.1522         estimate D2E/DX2                !
 ! D30   D(8,7,12,11)           -1.0338         estimate D2E/DX2                !
 ! D31   D(7,8,9,10)            -0.9148         estimate D2E/DX2                !
 ! D32   D(7,8,9,43)           178.9109         estimate D2E/DX2                !
 ! D33   D(42,8,9,10)         -179.2658         estimate D2E/DX2                !
 ! D34   D(42,8,9,43)            0.5599         estimate D2E/DX2                !
 ! D35   D(8,9,10,11)           -0.3614         estimate D2E/DX2                !
 ! D36   D(43,9,10,11)         179.8052         estimate D2E/DX2                !
 ! D37   D(9,10,11,12)           1.0551         estimate D2E/DX2                !
 ! D38   D(9,10,11,13)        -179.1093         estimate D2E/DX2                !
 ! D39   D(10,11,12,7)          -0.3662         estimate D2E/DX2                !
 ! D40   D(13,11,12,7)         179.8048         estimate D2E/DX2                !
 ! D41   D(10,11,13,14)       -176.3556         estimate D2E/DX2                !
 ! D42   D(10,11,13,44)         -2.8318         estimate D2E/DX2                !
 ! D43   D(12,11,13,14)          3.4876         estimate D2E/DX2                !
 ! D44   D(12,11,13,44)        177.0114         estimate D2E/DX2                !
 ! D45   D(11,13,14,15)        162.1582         estimate D2E/DX2                !
 ! D46   D(11,13,14,19)        -18.3579         estimate D2E/DX2                !
 ! D47   D(44,13,14,15)        -10.993          estimate D2E/DX2                !
 ! D48   D(44,13,14,19)        168.4909         estimate D2E/DX2                !
 ! D49   D(13,14,15,16)       -178.9423         estimate D2E/DX2                !
 ! D50   D(13,14,15,37)         -0.2158         estimate D2E/DX2                !
 ! D51   D(19,14,15,16)          1.5596         estimate D2E/DX2                !
 ! D52   D(19,14,15,37)       -179.7139         estimate D2E/DX2                !
 ! D53   D(13,14,19,18)        178.9163         estimate D2E/DX2                !
 ! D54   D(13,14,19,47)         -0.8961         estimate D2E/DX2                !
 ! D55   D(15,14,19,18)         -1.5967         estimate D2E/DX2                !
 ! D56   D(15,14,19,47)        178.5909         estimate D2E/DX2                !
 ! D57   D(14,15,16,17)         -0.2014         estimate D2E/DX2                !
 ! D58   D(14,15,16,45)        179.1144         estimate D2E/DX2                !
 ! D59   D(37,15,16,17)       -178.9804         estimate D2E/DX2                !
 ! D60   D(37,15,16,45)          0.3354         estimate D2E/DX2                !
 ! D61   D(14,15,37,66)         64.3242         estimate D2E/DX2                !
 ! D62   D(14,15,37,67)        -55.7438         estimate D2E/DX2                !
 ! D63   D(14,15,37,68)       -175.6746         estimate D2E/DX2                !
 ! D64   D(16,15,37,66)       -116.9774         estimate D2E/DX2                !
 ! D65   D(16,15,37,67)        122.9546         estimate D2E/DX2                !
 ! D66   D(16,15,37,68)          3.0238         estimate D2E/DX2                !
 ! D67   D(15,16,17,18)         -1.1895         estimate D2E/DX2                !
 ! D68   D(15,16,17,46)        179.2983         estimate D2E/DX2                !
 ! D69   D(45,16,17,18)        179.4802         estimate D2E/DX2                !
 ! D70   D(45,16,17,46)         -0.0319         estimate D2E/DX2                !
 ! D71   D(16,17,18,19)          1.1826         estimate D2E/DX2                !
 ! D72   D(16,17,18,20)        179.9289         estimate D2E/DX2                !
 ! D73   D(46,17,18,19)       -179.2981         estimate D2E/DX2                !
 ! D74   D(46,17,18,20)         -0.5518         estimate D2E/DX2                !
 ! D75   D(17,18,19,14)          0.1866         estimate D2E/DX2                !
 ! D76   D(17,18,19,47)        179.9959         estimate D2E/DX2                !
 ! D77   D(20,18,19,14)       -178.6953         estimate D2E/DX2                !
 ! D78   D(20,18,19,47)          1.1139         estimate D2E/DX2                !
 ! D79   D(17,18,20,21)         -8.6395         estimate D2E/DX2                !
 ! D80   D(17,18,20,48)        176.3962         estimate D2E/DX2                !
 ! D81   D(19,18,20,21)        170.1537         estimate D2E/DX2                !
 ! D82   D(19,18,20,48)         -4.8106         estimate D2E/DX2                !
 ! D83   D(18,20,21,22)       -168.9282         estimate D2E/DX2                !
 ! D84   D(18,20,21,36)         12.7211         estimate D2E/DX2                !
 ! D85   D(48,20,21,22)          6.0331         estimate D2E/DX2                !
 ! D86   D(48,20,21,36)       -172.3176         estimate D2E/DX2                !
 ! D87   D(20,21,22,23)         34.544          estimate D2E/DX2                !
 ! D88   D(20,21,22,27)       -145.7283         estimate D2E/DX2                !
 ! D89   D(36,21,22,23)       -147.07           estimate D2E/DX2                !
 ! D90   D(36,21,22,27)         32.6577         estimate D2E/DX2                !
 ! D91   D(21,22,23,24)       -179.4258         estimate D2E/DX2                !
 ! D92   D(21,22,23,49)         -0.1544         estimate D2E/DX2                !
 ! D93   D(27,22,23,24)          0.8475         estimate D2E/DX2                !
 ! D94   D(27,22,23,49)       -179.8811         estimate D2E/DX2                !
 ! D95   D(21,22,27,26)        179.5853         estimate D2E/DX2                !
 ! D96   D(21,22,27,52)         -0.1403         estimate D2E/DX2                !
 ! D97   D(23,22,27,26)         -0.6747         estimate D2E/DX2                !
 ! D98   D(23,22,27,52)        179.5997         estimate D2E/DX2                !
 ! D99   D(22,23,24,25)         -1.535          estimate D2E/DX2                !
 ! D100  D(22,23,24,50)        178.9167         estimate D2E/DX2                !
 ! D101  D(49,23,24,25)        179.1921         estimate D2E/DX2                !
 ! D102  D(49,23,24,50)         -0.3562         estimate D2E/DX2                !
 ! D103  D(23,24,25,26)          1.9598         estimate D2E/DX2                !
 ! D104  D(23,24,25,28)        179.4801         estimate D2E/DX2                !
 ! D105  D(50,24,25,26)       -178.4994         estimate D2E/DX2                !
 ! D106  D(50,24,25,28)         -0.979          estimate D2E/DX2                !
 ! D107  D(24,25,26,27)         -1.7844         estimate D2E/DX2                !
 ! D108  D(24,25,26,51)        178.8652         estimate D2E/DX2                !
 ! D109  D(28,25,26,27)       -179.2812         estimate D2E/DX2                !
 ! D110  D(28,25,26,51)          1.3684         estimate D2E/DX2                !
 ! D111  D(24,25,28,29)        -82.8765         estimate D2E/DX2                !
 ! D112  D(24,25,28,53)         40.046          estimate D2E/DX2                !
 ! D113  D(24,25,28,54)        154.8175         estimate D2E/DX2                !
 ! D114  D(26,25,28,29)         94.5402         estimate D2E/DX2                !
 ! D115  D(26,25,28,53)       -142.5373         estimate D2E/DX2                !
 ! D116  D(26,25,28,54)        -27.7658         estimate D2E/DX2                !
 ! D117  D(25,26,27,22)          1.183          estimate D2E/DX2                !
 ! D118  D(25,26,27,52)       -179.0978         estimate D2E/DX2                !
 ! D119  D(51,26,27,22)       -179.4579         estimate D2E/DX2                !
 ! D120  D(51,26,27,52)          0.2613         estimate D2E/DX2                !
 ! D121  D(25,28,29,30)       -105.2666         estimate D2E/DX2                !
 ! D122  D(25,28,29,35)        116.0171         estimate D2E/DX2                !
 ! D123  D(53,28,29,30)        131.4161         estimate D2E/DX2                !
 ! D124  D(53,28,29,35)         -7.3001         estimate D2E/DX2                !
 ! D125  D(54,28,29,30)         16.9615         estimate D2E/DX2                !
 ! D126  D(54,28,29,35)       -121.7547         estimate D2E/DX2                !
 ! D127  D(28,29,30,31)        -90.0529         estimate D2E/DX2                !
 ! D128  D(28,29,30,55)         37.4428         estimate D2E/DX2                !
 ! D129  D(28,29,30,56)        153.3979         estimate D2E/DX2                !
 ! D130  D(35,29,30,31)         51.7262         estimate D2E/DX2                !
 ! D131  D(35,29,30,55)        179.222          estimate D2E/DX2                !
 ! D132  D(35,29,30,56)        -64.8229         estimate D2E/DX2                !
 ! D133  D(28,29,35,34)         89.7056         estimate D2E/DX2                !
 ! D134  D(28,29,35,64)       -151.5813         estimate D2E/DX2                !
 ! D135  D(28,29,35,65)        -34.4411         estimate D2E/DX2                !
 ! D136  D(30,29,35,34)        -52.0321         estimate D2E/DX2                !
 ! D137  D(30,29,35,64)         66.6811         estimate D2E/DX2                !
 ! D138  D(30,29,35,65)       -176.1787         estimate D2E/DX2                !
 ! D139  D(29,30,31,32)        -52.799          estimate D2E/DX2                !
 ! D140  D(29,30,31,57)       -175.7587         estimate D2E/DX2                !
 ! D141  D(29,30,31,58)         66.5743         estimate D2E/DX2                !
 ! D142  D(55,30,31,32)       -179.0478         estimate D2E/DX2                !
 ! D143  D(55,30,31,57)         57.9925         estimate D2E/DX2                !
 ! D144  D(55,30,31,58)        -59.6744         estimate D2E/DX2                !
 ! D145  D(56,30,31,32)         64.646          estimate D2E/DX2                !
 ! D146  D(56,30,31,57)        -58.3137         estimate D2E/DX2                !
 ! D147  D(56,30,31,58)       -175.9807         estimate D2E/DX2                !
 ! D148  D(30,31,32,33)        -84.2152         estimate D2E/DX2                !
 ! D149  D(30,31,32,34)         49.912          estimate D2E/DX2                !
 ! D150  D(57,31,32,33)         38.7401         estimate D2E/DX2                !
 ! D151  D(57,31,32,34)        172.8673         estimate D2E/DX2                !
 ! D152  D(58,31,32,33)        156.5333         estimate D2E/DX2                !
 ! D153  D(58,31,32,34)        -69.3394         estimate D2E/DX2                !
 ! D154  D(31,32,33,59)         65.391          estimate D2E/DX2                !
 ! D155  D(31,32,33,60)        -55.2766         estimate D2E/DX2                !
 ! D156  D(31,32,33,61)       -174.0686         estimate D2E/DX2                !
 ! D157  D(34,32,33,59)        -65.7042         estimate D2E/DX2                !
 ! D158  D(34,32,33,60)        173.6283         estimate D2E/DX2                !
 ! D159  D(34,32,33,61)         54.8363         estimate D2E/DX2                !
 ! D160  D(31,32,34,35)        -49.4424         estimate D2E/DX2                !
 ! D161  D(31,32,34,62)       -176.4742         estimate D2E/DX2                !
 ! D162  D(31,32,34,63)         67.0512         estimate D2E/DX2                !
 ! D163  D(33,32,34,35)         84.6882         estimate D2E/DX2                !
 ! D164  D(33,32,34,62)        -42.3435         estimate D2E/DX2                !
 ! D165  D(33,32,34,63)       -158.8182         estimate D2E/DX2                !
 ! D166  D(32,34,35,29)         52.6079         estimate D2E/DX2                !
 ! D167  D(32,34,35,64)        -66.7312         estimate D2E/DX2                !
 ! D168  D(32,34,35,65)        176.6413         estimate D2E/DX2                !
 ! D169  D(62,34,35,29)        178.3117         estimate D2E/DX2                !
 ! D170  D(62,34,35,64)         58.9726         estimate D2E/DX2                !
 ! D171  D(62,34,35,65)        -57.6549         estimate D2E/DX2                !
 ! D172  D(63,34,35,29)        -64.4708         estimate D2E/DX2                !
 ! D173  D(63,34,35,64)        176.1901         estimate D2E/DX2                !
 ! D174  D(63,34,35,65)         59.5626         estimate D2E/DX2                !
 --------------------------------------------------------------------------------
 Trust Radius=3.00D-01 FncErr=1.00D-07 GrdErr=1.00D-06
 Number of steps in this run= 400 maximum allowed number of steps= 408.
 GradGradGradGradGradGradGradGradGradGradGradGradGradGradGradGradGradGrad

 Leave Link  103 at Wed Mar 11 00:05:17 2020, MaxMem= 2684354560 cpu:       0.1
 (Enter /opt/g09gh/gaussian/g09/l202.exe)
 Stoichiometry    C29H31N7O
 Framework group  C1[X(C29H31N7O)]
 Deg. of freedom   198
 Full point group                 C1      NOp   1
 Largest Abelian subgroup         C1      NOp   1
 Largest concise Abelian subgroup C1      NOp   1
                         Standard orientation:                         
 ---------------------------------------------------------------------
 Center     Atomic      Atomic             Coordinates (Angstroms)
 Number     Number       Type             X           Y           Z
 ---------------------------------------------------------------------
      1          6           0        0.425260    4.657109   -0.772733
      2          6           0        1.771161    4.506681   -0.410861
      3          6           0        2.337843    3.219282   -0.327707
      4          6           0        1.473732    2.145692   -0.658201
      5          7           0        0.188769    2.267699   -1.014114
      6          6           0       -0.320536    3.508017   -1.059823
      7          6           0        3.770851    2.960820    0.068635
      8          6           0        4.744924    3.941877    0.312826
      9          6           0        6.018845    3.462416    0.638865
     10          7           0        6.335923    2.174583    0.742501
     11          6           0        5.331111    1.302221    0.517300
     12          7           0        4.086394    1.657052    0.187506
     13          7           0        5.659750   -0.039205    0.644850
     14          6           0        4.922179   -1.260849    0.429734
     15          6           0        5.629811   -2.491493    0.276713
     16          6           0        4.863655   -3.647157    0.046844
     17          6           0        3.465947   -3.655026   -0.034450
     18          6           0        2.785274   -2.446587    0.147021
     19          6           0        3.522769   -1.274235    0.377173
     20          7           0        1.365278   -2.264728    0.097585
     21          6           0        0.353400   -3.117996   -0.275514
     22          6           0       -1.032036   -2.526426   -0.455348
     23          6           0       -1.254735   -1.230592   -0.952134
     24          6           0       -2.553806   -0.736038   -1.084376
     25          6           0       -3.675005   -1.521818   -0.758362
     26          6           0       -3.438929   -2.814449   -0.252308
     27          6           0       -2.142227   -3.316556   -0.113177
     28          6           0       -5.090204   -0.960872   -0.897790
     29          7           0       -5.559659   -0.143068    0.238302
     30          6           0       -6.544216   -0.730665    1.171261
     31          6           0       -8.008765   -0.459390    0.742683
     32          7           0       -8.334812    0.964726    0.490733
     33          6           0       -8.693602    1.765051    1.667965
     34          6           0       -7.319150    1.553999   -0.416441
     35          6           0       -5.852467    1.286635    0.007415
     36          8           0        0.535170   -4.315626   -0.431690
     37          6           0        7.144718   -2.596400    0.322686
     38          1           0       -0.035317    5.638937   -0.830430
     39          1           0        2.345592    5.400550   -0.180488
     40          1           0        1.852261    1.129176   -0.658896
     41          1           0       -1.368366    3.581165   -1.346572
     42          1           0        4.566688    5.007471    0.235636
     43          1           0        6.835570    4.159248    0.825615
     44          1           0        6.644062   -0.128417    0.848253
     45          1           0        5.370283   -4.601931   -0.089340
     46          1           0        2.913832   -4.567493   -0.224387
     47          1           0        3.005307   -0.339072    0.517896
     48          1           0        1.059853   -1.325448    0.310637
     49          1           0       -0.409689   -0.602655   -1.224993
     50          1           0       -2.687357    0.279665   -1.456231
     51          1           0       -4.277871   -3.450169    0.030557
     52          1           0       -1.969721   -4.321334    0.264874
     53          1           0       -5.157321   -0.360574   -1.815963
     54          1           0       -5.787234   -1.799001   -1.041935
     55          1           0       -6.342328   -1.762341    1.327516
     56          1           0       -6.362287   -0.032248    2.546288
     57          1           0       -8.862404   -0.954751    1.710311
     58          1           0       -8.244408   -1.213254   -0.547634
     59          1           0       -7.841613    1.863022    2.350559
     60          1           0       -9.525777    1.296318    2.205384
     61          1           0       -9.016048    2.766419    1.360223
     62          1           0       -7.518903    2.602141   -0.551148
     63          1           0       -7.493709    0.852274   -1.804206
     64          1           0       -5.619290    2.034540    1.306720
     65          1           0       -5.025291    1.777887   -0.881775
     66          1           0        7.534923   -2.320953    1.312631
     67          1           0        7.617511   -1.932840   -0.415170
     68          1           0        7.511366   -3.610254    0.110669
 ---------------------------------------------------------------------
 Rotational constants (GHZ):      0.1446554      0.0447006      0.0352430
 Leave Link  202 at Wed Mar 11 00:05:17 2020, MaxMem= 2684354560 cpu:       0.0
 (Enter /opt/g09gh/gaussian/g09/l301.exe)
 Standard basis: 6-31G(d) (6D, 7F)
 Ernie: Thresh=  0.10000D-02 Tol=  0.10000D-05 Strict=F.
 There are   617 symmetry adapted basis functions of A   symmetry.
 Integral buffers will be    131072 words long.
 Raffenetti 2 integral format.
 Two-electron integral symmetry is turned on.
   617 basis functions,  1160 primitive gaussians,   617 cartesian basis functions
   131 alpha electrons      131 beta electrons
       nuclear repulsion energy      3631.0339398300 Hartrees.
 IExCor= 4639 DFT=T Ex+Corr=wB97XD ExCW=0 ScaHFX=  1.000000
 ScaDFX=  1.000000  1.000000  1.000000  1.000000 ScalE2=  1.000000  1.000000
 IRadAn=      0 IRanWt=     -1 IRanGd=            0 ICorTp=0
  HFx wShort=  0.000000 wLong=  0.200000 cFull=  0.222036 cShort=  0.000000 cLong=  0.777964
  DFx wShort=  0.000000 wLong=  0.200000 cFull=  0.000000 cShort=  0.000000 cLong=  1.000000
 NAtoms=   68 NActive=   68 NUniq=   68 SFac= 7.50D-01 NAtFMM=   80 NAOKFM=F Big=T
 R6Disp: Dispersion energy =        -0.0543244392 Hartrees.
 Nuclear repulsion after empirical dispersion term =     3630.9796153907 Hartrees.
 Leave Link  301 at Wed Mar 11 00:05:17 2020, MaxMem= 2684354560 cpu:       0.3
 (Enter /opt/g09gh/gaussian/g09/l302.exe)
 NPDir=0 NMtPBC=     1 NCelOv=     1 NCel=       1 NClECP=     1 NCelD=      1
         NCelK=      1 NCelE2=     1 NClLst=     1 CellRange=     0.0.
 One-electron integrals computed using PRISM.
 NBasis=   617 RedAO= T  NBF=   617
 NBsUse=   617 1.00D-06 NBFU=   617
 Precomputing XC quadrature grid using
 IXCGrd= 2 IRadAn=           0 IRanWt=          -1 IRanGd=           0 AccXCQ= 1.00D-10.
 NRdTot=    4406 NPtTot=      564050 NUsed=      595789 NTot=      595821
 NSgBfM=   591   591   591   591   591 NAtAll=    68    68.
 Leave Link  302 at Wed Mar 11 00:05:18 2020, MaxMem= 2684354560 cpu:       7.1
 (Enter /opt/g09gh/gaussian/g09/l303.exe)
 DipDrv:  MaxL=1.
 Leave Link  303 at Wed Mar 11 00:05:18 2020, MaxMem= 2684354560 cpu:       0.5
 (Enter /opt/g09gh/gaussian/g09/l401.exe)
 Harris functional with IExCor= 4639 diagonalized for initial guess.
 ExpMin= 1.61D-01 ExpMax= 5.48D+03 ExpMxC= 8.25D+02 IAcc=1 IRadAn=         1 AccDes= 0.00D+00
 HarFok:  IExCor= 4639 AccDes= 0.00D+00 IRadAn=         1 IDoV= 1
 ScaDFX=  1.000000  1.000000  1.000000  1.000000
 FoFCou: FMM=F IPFlag=           0 FMFlag=      100000 FMFlg1=           1
         NFxFlg=           0 DoJE=T BraDBF=F KetDBF=T FulRan=T
         Omega=  0.000000  0.000000  1.000000  0.000000  0.000000 ICntrl=     500 IOpCl=  0
         NMat0=    1 NMatS0=    1 NMatT0=    0 NMatD0=    1 NMtDS0=    0 NMtDT0=    0
         I1Cent=           4 NGrid=           0.
 Petite list used in FoFCou.
 Harris En= -1512.37127323427    
 Initial guess orbital symmetries:
       Occupied  (A) (A) (A) (A) (A) (A) (A) (A) (A) (A) (A) (A)
                 (A) (A) (A) (A) (A) (A) (A) (A) (A) (A) (A) (A)
                 (A) (A) (A) (A) (A) (A) (A) (A) (A) (A) (A) (A)
                 (A) (A) (A) (A) (A) (A) (A) (A) (A) (A) (A) (A)
                 (A) (A) (A) (A) (A) (A) (A) (A) (A) (A) (A) (A)
                 (A) (A) (A) (A) (A) (A) (A) (A) (A) (A) (A) (A)
                 (A) (A) (A) (A) (A) (A) (A) (A) (A) (A) (A) (A)
                 (A) (A) (A) (A) (A) (A) (A) (A) (A) (A) (A) (A)
                 (A) (A) (A) (A) (A) (A) (A) (A) (A) (A) (A) (A)
                 (A) (A) (A) (A) (A) (A) (A) (A) (A) (A) (A) (A)
                 (A) (A) (A) (A) (A) (A) (A) (A) (A) (A) (A)
       Virtual   (A) (A) (A) (A) (A) (A) (A) (A) (A) (A) (A) (A)
                 (A) (A) (A) (A) (A) (A) (A) (A) (A) (A) (A) (A)
                 (A) (A) (A) (A) (A) (A) (A) (A) (A) (A) (A) (A)
                 (A) (A) (A) (A) (A) (A) (A) (A) (A) (A) (A) (A)
                 (A) (A) (A) (A) (A) (A) (A) (A) (A) (A) (A) (A)
                 (A) (A) (A) (A) (A) (A) (A) (A) (A) (A) (A) (A)
                 (A) (A) (A) (A) (A) (A) (A) (A) (A) (A) (A) (A)
                 (A) (A) (A) (A) (A) (A) (A) (A) (A) (A) (A) (A)
                 (A) (A) (A) (A) (A) (A) (A) (A) (A) (A) (A) (A)
                 (A) (A) (A) (A) (A) (A) (A) (A) (A) (A) (A) (A)
                 (A) (A) (A) (A) (A) (A) (A) (A) (A) (A) (A) (A)
                 (A) (A) (A) (A) (A) (A) (A) (A) (A) (A) (A) (A)
                 (A) (A) (A) (A) (A) (A) (A) (A) (A) (A) (A) (A)
                 (A) (A) (A) (A) (A) (A) (A) (A) (A) (A) (A) (A)
                 (A) (A) (A) (A) (A) (A) (A) (A) (A) (A) (A) (A)
                 (A) (A) (A) (A) (A) (A) (A) (A) (A) (A) (A) (A)
                 (A) (A) (A) (A) (A) (A) (A) (A) (A) (A) (A) (A)
                 (A) (A) (A) (A) (A) (A) (A) (A) (A) (A) (A) (A)
                 (A) (A) (A) (A) (A) (A) (A) (A) (A) (A) (A) (A)
                 (A) (A) (A) (A) (A) (A) (A) (A) (A) (A) (A) (A)
                 (A) (A) (A) (A) (A) (A) (A) (A) (A) (A) (A) (A)
                 (A) (A) (A) (A) (A) (A) (A) (A) (A) (A) (A) (A)
                 (A) (A) (A) (A) (A) (A) (A) (A) (A) (A) (A) (A)
                 (A) (A) (A) (A) (A) (A) (A) (A) (A) (A) (A) (A)
                 (A) (A) (A) (A) (A) (A) (A) (A) (A) (A) (A) (A)
                 (A) (A) (A) (A) (A) (A) (A) (A) (A) (A) (A) (A)
                 (A) (A) (A) (A) (A) (A) (A) (A) (A) (A) (A) (A)
                 (A) (A) (A) (A) (A) (A) (A) (A) (A) (A) (A) (A)
                 (A) (A) (A) (A) (A) (A) (A) (A) (A) (A) (A) (A)
                 (A) (A) (A) (A) (A) (A) (A) (A) (A) (A) (A) (A)
                 (A) (A) (A) (A) (A) (A) (A) (A) (A) (A) (A) (A)
                 (A) (A) (A) (A) (A) (A) (A) (A) (A) (A) (A) (A)
                 (A) (A) (A) (A) (A) (A) (A) (A) (A) (A) (A) (A)
                 (A) (A) (A) (A) (A) (A) (A) (A) (A) (A) (A) (A)
                 (A) (A) (A) (A) (A) (A) (A) (A) (A) (A) (A) (A)
                 (A) (A) (A) (A) (A) (A) (A) (A) (A) (A) (A) (A)
                 (A) (A) (A) (A) (A) (A) (A) (A) (A) (A) (A) (A)
                 (A) (A) (A) (A) (A) (A) (A) (A) (A) (A) (A) (A)
                 (A) (A) (A) (A) (A) (A) (A) (A) (A) (A) (A) (A)
                 (A) (A) (A) (A) (A) (A) (A) (A) (A) (A) (A) (A)
                 (A) (A) (A) (A) (A) (A)
 The electronic state of the initial guess is 1-A.
 Leave Link  401 at Wed Mar 11 00:05:21 2020, MaxMem= 2684354560 cpu:      14.0
 (Enter /opt/g09gh/gaussian/g09/l502.exe)
 Closed shell SCF:
 Requested convergence on RMS density matrix=1.00D-08 within 128 cycles.
 Requested convergence on MAX density matrix=1.00D-06.
 Requested convergence on             energy=1.00D-06.
 No special actions if energy rises.
 Using DIIS extrapolation, IDIIS=  1040.
 Integral symmetry usage will be decided dynamically.
       595164 words used for storage of precomputed grid.
 IEnd=     1763744 IEndB=     1763744 NGot=  2684354560 MDV=  2682988763
 LenX=  2682988763 LenY=  2682607457
 Fock matrices will be formed incrementally for  20 cycles.
 Integral accuracy reduced to 1.0D-05 until final iterations.

 Cycle   1  Pass 0  IDiag  1:
 FoFJK:  IHMeth= 1 ICntrl=     0 DoSepK=T KAlg= 1 I1Cent= 0 FoldK=F
 FoFCou: FMM=T IPFlag=           0 FMFlag=      100000 FMFlg1=           1
         NFxFlg=           0 DoJE=T BraDBF=F KetDBF=F FulRan=T
         Omega=  0.000000  0.000000  1.000000  0.000000  0.000000 ICntrl=     500 IOpCl=  0
         NMat0=    1 NMatS0=    1 NMatT0=    0 NMatD0=    1 NMtDS0=    0 NMtDT0=    0
         I1Cent=           0 NGrid=           0.
 Symmetry not used in FoFCou.
 FMM levels:  10  Number of levels for PrismC:   9
 E= -1581.10870123083    
 DIIS: error= 5.88D-02 at cycle   1 NSaved=   1.
 NSaved= 1 IEnMin= 1 EnMin= -1581.10870123083     IErMin= 1 ErrMin= 5.88D-02
 ErrMax= 5.88D-02 EMaxC= 1.00D-01 BMatC= 1.46D+00 BMatP= 1.46D+00
 IDIUse=3 WtCom= 4.12D-01 WtEn= 5.88D-01
 Coeff-Com:  0.100D+01
 Coeff-En:   0.100D+01
 Coeff:      0.100D+01
 Gap=     0.280 Goal=   None    Shift=    0.000
 GapD=    0.280 DampG=1.000 DampE=0.500 DampFc=0.5000 IDamp=-1.
 Damping current iteration by 5.00D-01
 RMSDP=1.89D-03 MaxDP=8.88D-02              OVMax= 1.71D-01

 Cycle   2  Pass 0  IDiag  1:
 RMSU=  6.68D-04    CP:  1.00D+00
 FoFJK:  IHMeth= 1 ICntrl=     0 DoSepK=T KAlg= 1 I1Cent= 0 FoldK=F
 E= -1581.28585939545     Delta-E=       -0.177158164627 Rises=F Damp=T
 DIIS: error= 2.84D-02 at cycle   2 NSaved=   2.
 NSaved= 2 IEnMin= 2 EnMin= -1581.28585939545     IErMin= 2 ErrMin= 2.84D-02
 ErrMax= 2.84D-02 EMaxC= 1.00D-01 BMatC= 3.22D-01 BMatP= 1.46D+00
 IDIUse=3 WtCom= 7.16D-01 WtEn= 2.84D-01
 Coeff-Com: -0.650D+00 0.165D+01
 Coeff-En:   0.000D+00 0.100D+01
 Coeff:     -0.466D+00 0.147D+01
 Gap=     0.279 Goal=   None    Shift=    0.000
 RMSDP=8.77D-04 MaxDP=3.85D-02 DE=-1.77D-01 OVMax= 1.22D-01

 Cycle   3  Pass 0  IDiag  1:
 RMSU=  5.68D-04    CP:  1.00D+00  1.37D+00
 FoFJK:  IHMeth= 1 ICntrl=     0 DoSepK=T KAlg= 1 I1Cent= 0 FoldK=F
 E= -1581.41541346869     Delta-E=       -0.129554073231 Rises=F Damp=F
 DIIS: error= 8.66D-03 at cycle   3 NSaved=   3.
 NSaved= 3 IEnMin= 3 EnMin= -1581.41541346869     IErMin= 3 ErrMin= 8.66D-03
 ErrMax= 8.66D-03 EMaxC= 1.00D-01 BMatC= 6.35D-02 BMatP= 3.22D-01
 IDIUse=3 WtCom= 9.13D-01 WtEn= 8.66D-02
 Coeff-Com: -0.364D+00 0.753D+00 0.611D+00
 Coeff-En:   0.000D+00 0.000D+00 0.100D+01
 Coeff:     -0.333D+00 0.688D+00 0.645D+00
 Gap=     0.268 Goal=   None    Shift=    0.000
 RMSDP=4.80D-04 MaxDP=3.21D-02 DE=-1.30D-01 OVMax= 6.29D-02

 Cycle   4  Pass 0  IDiag  1:
 RMSU=  1.44D-04    CP:  1.00D+00  1.67D+00  5.88D-01
 FoFJK:  IHMeth= 1 ICntrl=     0 DoSepK=T KAlg= 1 I1Cent= 0 FoldK=F
 E= -1581.47173360878     Delta-E=       -0.056320140099 Rises=F Damp=F
 DIIS: error= 2.21D-03 at cycle   4 NSaved=   4.
 NSaved= 4 IEnMin= 4 EnMin= -1581.47173360878     IErMin= 4 ErrMin= 2.21D-03
 ErrMax= 2.21D-03 EMaxC= 1.00D-01 BMatC= 4.05D-03 BMatP= 6.35D-02
 IDIUse=3 WtCom= 9.78D-01 WtEn= 2.21D-02
 Coeff-Com: -0.164D+00 0.335D+00 0.351D+00 0.479D+00
 Coeff-En:   0.000D+00 0.000D+00 0.000D+00 0.100D+01
 Coeff:     -0.161D+00 0.328D+00 0.343D+00 0.490D+00
 Gap=     0.262 Goal=   None    Shift=    0.000
 RMSDP=1.07D-04 MaxDP=9.24D-03 DE=-5.63D-02 OVMax= 1.04D-02

 Cycle   5  Pass 0  IDiag  1:
 RMSU=  4.63D-05    CP:  1.00D+00  1.65D+00  6.59D-01  7.11D-01
 FoFJK:  IHMeth= 1 ICntrl=     0 DoSepK=T KAlg= 1 I1Cent= 0 FoldK=F
 E= -1581.47526860643     Delta-E=       -0.003534997651 Rises=F Damp=F
 DIIS: error= 5.54D-04 at cycle   5 NSaved=   5.
 NSaved= 5 IEnMin= 5 EnMin= -1581.47526860643     IErMin= 5 ErrMin= 5.54D-04
 ErrMax= 5.54D-04 EMaxC= 1.00D-01 BMatC= 8.64D-05 BMatP= 4.05D-03
 IDIUse=3 WtCom= 9.94D-01 WtEn= 5.54D-03
 Coeff-Com: -0.142D-01 0.280D-01 0.512D-01 0.151D+00 0.784D+00
 Coeff-En:   0.000D+00 0.000D+00 0.000D+00 0.000D+00 0.100D+01
 Coeff:     -0.141D-01 0.279D-01 0.509D-01 0.151D+00 0.785D+00
 Gap=     0.261 Goal=   None    Shift=    0.000
 RMSDP=2.39D-05 MaxDP=2.53D-03 DE=-3.53D-03 OVMax= 2.93D-03

 Cycle   6  Pass 0  IDiag  1:
 RMSU=  1.29D-05    CP:  1.00D+00  1.65D+00  6.66D-01  7.77D-01  9.94D-01
 FoFJK:  IHMeth= 1 ICntrl=     0 DoSepK=T KAlg= 1 I1Cent= 0 FoldK=F
 E= -1581.47535315757     Delta-E=       -0.000084551133 Rises=F Damp=F
 DIIS: error= 2.39D-04 at cycle   6 NSaved=   6.
 NSaved= 6 IEnMin= 6 EnMin= -1581.47535315757     IErMin= 6 ErrMin= 2.39D-04
 ErrMax= 2.39D-04 EMaxC= 1.00D-01 BMatC= 2.64D-05 BMatP= 8.64D-05
 IDIUse=3 WtCom= 9.98D-01 WtEn= 2.39D-03
 Coeff-Com:  0.233D-01-0.481D-01-0.372D-01-0.154D-01 0.399D+00 0.679D+00
 Coeff-En:   0.000D+00 0.000D+00 0.000D+00 0.000D+00 0.000D+00 0.100D+01
 Coeff:      0.232D-01-0.480D-01-0.371D-01-0.154D-01 0.398D+00 0.680D+00
 Gap=     0.262 Goal=   None    Shift=    0.000
 RMSDP=1.28D-05 MaxDP=7.94D-04 DE=-8.46D-05 OVMax= 1.60D-03

 Cycle   7  Pass 0  IDiag  1:
 RMSU=  5.53D-06    CP:  1.00D+00  1.66D+00  6.69D-01  8.03D-01  1.11D+00
                    CP:  8.75D-01
 FoFJK:  IHMeth= 1 ICntrl=     0 DoSepK=T KAlg= 1 I1Cent= 0 FoldK=F
 E= -1581.47538210400     Delta-E=       -0.000028946433 Rises=F Damp=F
 DIIS: error= 7.01D-05 at cycle   7 NSaved=   7.
 NSaved= 7 IEnMin= 7 EnMin= -1581.47538210400     IErMin= 7 ErrMin= 7.01D-05
 ErrMax= 7.01D-05 EMaxC= 1.00D-01 BMatC= 1.59D-06 BMatP= 2.64D-05
 IDIUse=1 WtCom= 1.00D+00 WtEn= 0.00D+00
 Coeff-Com:  0.941D-02-0.193D-01-0.169D-01-0.193D-01 0.675D-01 0.234D+00
 Coeff-Com:  0.745D+00
 Coeff:      0.941D-02-0.193D-01-0.169D-01-0.193D-01 0.675D-01 0.234D+00
 Coeff:      0.745D+00
 Gap=     0.262 Goal=   None    Shift=    0.000
 RMSDP=3.88D-06 MaxDP=2.60D-04 DE=-2.89D-05 OVMax= 6.25D-04

 Initial convergence to 1.0D-05 achieved.  Increase integral accuracy.
 Cycle   8  Pass 1  IDiag  1:
 FoFJK:  IHMeth= 1 ICntrl=     0 DoSepK=T KAlg= 1 I1Cent= 0 FoldK=F
 E= -1581.47430035826     Delta-E=        0.001081745742 Rises=F Damp=F
 DIIS: error= 8.30D-05 at cycle   1 NSaved=   1.
 NSaved= 1 IEnMin= 1 EnMin= -1581.47430035826     IErMin= 1 ErrMin= 8.30D-05
 ErrMax= 8.30D-05 EMaxC= 1.00D-01 BMatC= 1.24D-05 BMatP= 1.24D-05
 IDIUse=1 WtCom= 1.00D+00 WtEn= 0.00D+00
 Coeff-Com:  0.100D+01
 Coeff:      0.100D+01
 Gap=     0.262 Goal=   None    Shift=    0.000
 RMSDP=3.88D-06 MaxDP=2.60D-04 DE= 1.08D-03 OVMax= 3.92D-04

 Cycle   9  Pass 1  IDiag  1:
 RMSU=  1.82D-05    CP:  1.00D+00
 FoFJK:  IHMeth= 1 ICntrl=     0 DoSepK=T KAlg= 1 I1Cent= 0 FoldK=F
 E= -1581.47431006283     Delta-E=       -0.000009704567 Rises=F Damp=F
 DIIS: error= 3.72D-05 at cycle   2 NSaved=   2.
 NSaved= 2 IEnMin= 2 EnMin= -1581.47431006283     IErMin= 2 ErrMin= 3.72D-05
 ErrMax= 3.72D-05 EMaxC= 1.00D-01 BMatC= 7.90D-07 BMatP= 1.24D-05
 IDIUse=1 WtCom= 1.00D+00 WtEn= 0.00D+00
 Coeff-Com:  0.470D-01 0.953D+00
 Coeff:      0.470D-01 0.953D+00
 Gap=     0.262 Goal=   None    Shift=    0.000
 RMSDP=3.16D-06 MaxDP=2.33D-04 DE=-9.70D-06 OVMax= 3.16D-04

 Cycle  10  Pass 1  IDiag  1:
 RMSU=  2.08D-06    CP:  1.00D+00  1.04D+00
 FoFJK:  IHMeth= 1 ICntrl=     0 DoSepK=T KAlg= 1 I1Cent= 0 FoldK=F
 E= -1581.47431014317     Delta-E=       -0.000000080341 Rises=F Damp=F
 DIIS: error= 4.21D-05 at cycle   3 NSaved=   3.
 NSaved= 3 IEnMin= 3 EnMin= -1581.47431014317     IErMin= 2 ErrMin= 3.72D-05
 ErrMax= 4.21D-05 EMaxC= 1.00D-01 BMatC= 9.04D-07 BMatP= 7.90D-07
 IDIUse=1 WtCom= 1.00D+00 WtEn= 0.00D+00
 Coeff-Com: -0.364D-01 0.530D+00 0.507D+00
 Coeff:     -0.364D-01 0.530D+00 0.507D+00
 Gap=     0.262 Goal=   None    Shift=    0.000
 RMSDP=1.54D-06 MaxDP=1.46D-04 DE=-8.03D-08 OVMax= 1.47D-04

 Cycle  11  Pass 1  IDiag  1:
 RMSU=  6.12D-07    CP:  1.00D+00  1.05D+00  5.76D-01
 FoFJK:  IHMeth= 1 ICntrl=     0 DoSepK=T KAlg= 1 I1Cent= 0 FoldK=F
 E= -1581.47431091850     Delta-E=       -0.000000775334 Rises=F Damp=F
 DIIS: error= 7.93D-06 at cycle   4 NSaved=   4.
 NSaved= 4 IEnMin= 4 EnMin= -1581.47431091850     IErMin= 4 ErrMin= 7.93D-06
 ErrMax= 7.93D-06 EMaxC= 1.00D-01 BMatC= 2.31D-08 BMatP= 7.90D-07
 IDIUse=1 WtCom= 1.00D+00 WtEn= 0.00D+00
 Coeff-Com: -0.172D-01 0.132D+00 0.184D+00 0.701D+00
 Coeff:     -0.172D-01 0.132D+00 0.184D+00 0.701D+00
 Gap=     0.262 Goal=   None    Shift=    0.000
 RMSDP=3.27D-07 MaxDP=3.45D-05 DE=-7.75D-07 OVMax= 3.62D-05

 Cycle  12  Pass 1  IDiag  1:
 RMSU=  2.11D-07    CP:  1.00D+00  1.05D+00  6.20D-01  1.00D+00
 FoFJK:  IHMeth= 1 ICntrl=     0 DoSepK=T KAlg= 1 I1Cent= 0 FoldK=F
 E= -1581.47431094013     Delta-E=       -0.000000021633 Rises=F Damp=F
 DIIS: error= 2.86D-06 at cycle   5 NSaved=   5.
 NSaved= 5 IEnMin= 5 EnMin= -1581.47431094013     IErMin= 5 ErrMin= 2.86D-06
 ErrMax= 2.86D-06 EMaxC= 1.00D-01 BMatC= 4.42D-09 BMatP= 2.31D-08
 IDIUse=1 WtCom= 1.00D+00 WtEn= 0.00D+00
 Coeff-Com: -0.426D-03-0.356D-01-0.104D-01 0.297D+00 0.749D+00
 Coeff:     -0.426D-03-0.356D-01-0.104D-01 0.297D+00 0.749D+00
 Gap=     0.262 Goal=   None    Shift=    0.000
 RMSDP=1.80D-07 MaxDP=1.23D-05 DE=-2.16D-08 OVMax= 2.39D-05

 Cycle  13  Pass 1  IDiag  1:
 RMSU=  8.82D-08    CP:  1.00D+00  1.05D+00  6.36D-01  1.14D+00  9.45D-01
 FoFJK:  IHMeth= 1 ICntrl=     0 DoSepK=T KAlg= 1 I1Cent= 0 FoldK=F
 E= -1581.47431094611     Delta-E=       -0.000000005979 Rises=F Damp=F
 DIIS: error= 7.83D-07 at cycle   6 NSaved=   6.
 NSaved= 6 IEnMin= 6 EnMin= -1581.47431094611     IErMin= 6 ErrMin= 7.83D-07
 ErrMax= 7.83D-07 EMaxC= 1.00D-01 BMatC= 5.51D-10 BMatP= 4.42D-09
 IDIUse=1 WtCom= 1.00D+00 WtEn= 0.00D+00
 Coeff-Com:  0.178D-02-0.281D-01-0.255D-01 0.281D-01 0.291D+00 0.733D+00
 Coeff:      0.178D-02-0.281D-01-0.255D-01 0.281D-01 0.291D+00 0.733D+00
 Gap=     0.262 Goal=   None    Shift=    0.000
 RMSDP=7.15D-08 MaxDP=3.05D-06 DE=-5.98D-09 OVMax= 1.45D-05

 Cycle  14  Pass 1  IDiag  1:
 RMSU=  3.40D-08    CP:  1.00D+00  1.06D+00  6.39D-01  1.18D+00  1.07D+00
                    CP:  9.96D-01
 FoFJK:  IHMeth= 1 ICntrl=     0 DoSepK=T KAlg= 1 I1Cent= 0 FoldK=F
 E= -1581.47431094716     Delta-E=       -0.000000001043 Rises=F Damp=F
 DIIS: error= 3.25D-07 at cycle   7 NSaved=   7.
 NSaved= 7 IEnMin= 7 EnMin= -1581.47431094716     IErMin= 7 ErrMin= 3.25D-07
 ErrMax= 3.25D-07 EMaxC= 1.00D-01 BMatC= 1.04D-10 BMatP= 5.51D-10
 IDIUse=1 WtCom= 1.00D+00 WtEn= 0.00D+00
 Coeff-Com:  0.773D-03-0.432D-02-0.897D-02-0.513D-01-0.316D-01 0.287D+00
 Coeff-Com:  0.808D+00
 Coeff:      0.773D-03-0.432D-02-0.897D-02-0.513D-01-0.316D-01 0.287D+00
 Coeff:      0.808D+00
 Gap=     0.262 Goal=   None    Shift=    0.000
 RMSDP=3.97D-08 MaxDP=1.81D-06 DE=-1.04D-09 OVMax= 7.92D-06

 Cycle  15  Pass 1  IDiag  1:
 RMSU=  1.42D-08    CP:  1.00D+00  1.06D+00  6.42D-01  1.20D+00  1.12D+00
                    CP:  1.19D+00  1.07D+00
 FoFJK:  IHMeth= 1 ICntrl=     0 DoSepK=T KAlg= 1 I1Cent= 0 FoldK=F
 E= -1581.47431094741     Delta-E=       -0.000000000255 Rises=F Damp=F
 DIIS: error= 1.24D-07 at cycle   8 NSaved=   8.
 NSaved= 8 IEnMin= 8 EnMin= -1581.47431094741     IErMin= 8 ErrMin= 1.24D-07
 ErrMax= 1.24D-07 EMaxC= 1.00D-01 BMatC= 1.55D-11 BMatP= 1.04D-10
 IDIUse=1 WtCom= 1.00D+00 WtEn= 0.00D+00
 Coeff-Com: -0.601D-05 0.309D-02 0.926D-03-0.222D-01-0.564D-01-0.164D-01
 Coeff-Com:  0.286D+00 0.805D+00
 Coeff:     -0.601D-05 0.309D-02 0.926D-03-0.222D-01-0.564D-01-0.164D-01
 Coeff:      0.286D+00 0.805D+00
 Gap=     0.262 Goal=   None    Shift=    0.000
 RMSDP=1.63D-08 MaxDP=8.71D-07 DE=-2.55D-10 OVMax= 4.30D-06

 Cycle  16  Pass 1  IDiag  1:
 RMSU=  6.05D-09    CP:  1.00D+00  1.06D+00  6.42D-01  1.21D+00  1.14D+00
                    CP:  1.24D+00  1.25D+00  1.08D+00
 FoFJK:  IHMeth= 1 ICntrl=     0 DoSepK=T KAlg= 1 I1Cent= 0 FoldK=F
 E= -1581.47431094740     Delta-E=        0.000000000006 Rises=F Damp=F
 DIIS: error= 6.29D-08 at cycle   9 NSaved=   9.
 NSaved= 9 IEnMin= 8 EnMin= -1581.47431094741     IErMin= 9 ErrMin= 6.29D-08
 ErrMax= 6.29D-08 EMaxC= 1.00D-01 BMatC= 2.95D-12 BMatP= 1.55D-11
 IDIUse=1 WtCom= 1.00D+00 WtEn= 0.00D+00
 Coeff-Com: -0.158D-03 0.204D-02 0.217D-02 0.202D-02-0.156D-01-0.667D-01
 Coeff-Com: -0.585D-01 0.285D+00 0.850D+00
 Coeff:     -0.158D-03 0.204D-02 0.217D-02 0.202D-02-0.156D-01-0.667D-01
 Coeff:     -0.585D-01 0.285D+00 0.850D+00
 Gap=     0.262 Goal=   None    Shift=    0.000
 RMSDP=7.71D-09 MaxDP=4.49D-07 DE= 6.37D-12 OVMax= 1.99D-06

 SCF Done:  E(RwB97XD) =  -1581.47431095     A.U. after   16 cycles
             Convg  =    0.7711D-08             -V/T =  2.0112
 KE= 1.564030843257D+03 PE=-1.093012203452D+04 EE= 4.153637264925D+03
 Leave Link  502 at Wed Mar 11 00:07:45 2020, MaxMem= 2684354560 cpu:     864.4
 (Enter /opt/g09gh/gaussian/g09/l601.exe)
 Copying SCF densities to generalized density rwf, IOpCl= 0 IROHF=0.

 **********************************************************************

            Population analysis using the SCF density.

 **********************************************************************

 Orbital symmetries:
       Occupied  (A) (A) (A) (A) (A) (A) (A) (A) (A) (A) (A) (A)
                 (A) (A) (A) (A) (A) (A) (A) (A) (A) (A) (A) (A)
                 (A) (A) (A) (A) (A) (A) (A) (A) (A) (A) (A) (A)
                 (A) (A) (A) (A) (A) (A) (A) (A) (A) (A) (A) (A)
                 (A) (A) (A) (A) (A) (A) (A) (A) (A) (A) (A) (A)
                 (A) (A) (A) (A) (A) (A) (A) (A) (A) (A) (A) (A)
                 (A) (A) (A) (A) (A) (A) (A) (A) (A) (A) (A) (A)
                 (A) (A) (A) (A) (A) (A) (A) (A) (A) (A) (A) (A)
                 (A) (A) (A) (A) (A) (A) (A) (A) (A) (A) (A) (A)
                 (A) (A) (A) (A) (A) (A) (A) (A) (A) (A) (A) (A)
                 (A) (A) (A) (A) (A) (A) (A) (A) (A) (A) (A)
       Virtual   (A) (A) (A) (A) (A) (A) (A) (A) (A) (A) (A) (A)
                 (A) (A) (A) (A) (A) (A) (A) (A) (A) (A) (A) (A)
                 (A) (A) (A) (A) (A) (A) (A) (A) (A) (A) (A) (A)
                 (A) (A) (A) (A) (A) (A) (A) (A) (A) (A) (A) (A)
                 (A) (A) (A) (A) (A) (A) (A) (A) (A) (A) (A) (A)
                 (A) (A) (A) (A) (A) (A) (A) (A) (A) (A) (A) (A)
                 (A) (A) (A) (A) (A) (A) (A) (A) (A) (A) (A) (A)
                 (A) (A) (A) (A) (A) (A) (A) (A) (A) (A) (A) (A)
                 (A) (A) (A) (A) (A) (A) (A) (A) (A) (A) (A) (A)
                 (A) (A) (A) (A) (A) (A) (A) (A) (A) (A) (A) (A)
                 (A) (A) (A) (A) (A) (A) (A) (A) (A) (A) (A) (A)
                 (A) (A) (A) (A) (A) (A) (A) (A) (A) (A) (A) (A)
                 (A) (A) (A) (A) (A) (A) (A) (A) (A) (A) (A) (A)
                 (A) (A) (A) (A) (A) (A) (A) (A) (A) (A) (A) (A)
                 (A) (A) (A) (A) (A) (A) (A) (A) (A) (A) (A) (A)
                 (A) (A) (A) (A) (A) (A) (A) (A) (A) (A) (A) (A)
                 (A) (A) (A) (A) (A) (A) (A) (A) (A) (A) (A) (A)
                 (A) (A) (A) (A) (A) (A) (A) (A) (A) (A) (A) (A)
                 (A) (A) (A) (A) (A) (A) (A) (A) (A) (A) (A) (A)
                 (A) (A) (A) (A) (A) (A) (A) (A) (A) (A) (A) (A)
                 (A) (A) (A) (A) (A) (A) (A) (A) (A) (A) (A) (A)
                 (A) (A) (A) (A) (A) (A) (A) (A) (A) (A) (A) (A)
                 (A) (A) (A) (A) (A) (A) (A) (A) (A) (A) (A) (A)
                 (A) (A) (A) (A) (A) (A) (A) (A) (A) (A) (A) (A)
                 (A) (A) (A) (A) (A) (A) (A) (A) (A) (A) (A) (A)
                 (A) (A) (A) (A) (A) (A) (A) (A) (A) (A) (A) (A)
                 (A) (A) (A) (A) (A) (A) (A) (A) (A) (A) (A) (A)
                 (A) (A) (A) (A) (A) (A) (A) (A) (A) (A) (A) (A)
                 (A) (A) (A) (A) (A) (A) (A) (A) (A) (A) (A) (A)
                 (A) (A) (A) (A) (A) (A) (A) (A) (A) (A) (A) (A)
                 (A) (A) (A) (A) (A) (A) (A) (A) (A) (A) (A) (A)
                 (A) (A) (A) (A) (A) (A) (A) (A) (A) (A) (A) (A)
                 (A) (A) (A) (A) (A) (A) (A) (A) (A) (A) (A) (A)
                 (A) (A) (A) (A) (A) (A) (A) (A) (A) (A) (A) (A)
                 (A) (A) (A) (A) (A) (A) (A) (A) (A) (A) (A) (A)
                 (A) (A) (A) (A) (A) (A) (A) (A) (A) (A) (A) (A)
                 (A) (A) (A) (A) (A) (A) (A) (A) (A) (A) (A) (A)
                 (A) (A) (A) (A) (A) (A) (A) (A) (A) (A) (A) (A)
                 (A) (A) (A) (A) (A) (A) (A) (A) (A) (A) (A) (A)
                 (A) (A) (A) (A) (A) (A) (A) (A) (A) (A) (A) (A)
                 (A) (A) (A) (A) (A) (A)
 The electronic state is 1-A.
 Alpha  occ. eigenvalues --  -19.23205 -14.49435 -14.48741 -14.46585 -14.46244
 Alpha  occ. eigenvalues --  -14.46151 -14.46122 -14.45731 -10.42032 -10.40333
 Alpha  occ. eigenvalues --  -10.38497 -10.38384 -10.38199 -10.36529 -10.36431
 Alpha  occ. eigenvalues --  -10.36413 -10.35709 -10.35261 -10.35083 -10.34919
 Alpha  occ. eigenvalues --  -10.34305 -10.34148 -10.33875 -10.32892 -10.32264
 Alpha  occ. eigenvalues --  -10.32205 -10.31381 -10.31346 -10.31320 -10.30737
 Alpha  occ. eigenvalues --  -10.30513 -10.30448 -10.30354 -10.30287 -10.30100
 Alpha  occ. eigenvalues --  -10.29630 -10.29049  -1.13308  -1.11535  -1.05582
 Alpha  occ. eigenvalues --   -1.03920  -1.03616  -1.02866  -1.00108  -1.00088
 Alpha  occ. eigenvalues --   -0.95568  -0.94425  -0.92439  -0.89340  -0.87817
 Alpha  occ. eigenvalues --   -0.87082  -0.86287  -0.84286  -0.83946  -0.83760
 Alpha  occ. eigenvalues --   -0.81827  -0.79539  -0.78003  -0.77892  -0.75928
 Alpha  occ. eigenvalues --   -0.73375  -0.72892  -0.72433  -0.71750  -0.70595
 Alpha  occ. eigenvalues --   -0.69885  -0.69492  -0.67998  -0.66126  -0.64605
 Alpha  occ. eigenvalues --   -0.63141  -0.62152  -0.61547  -0.60377  -0.59478
 Alpha  occ. eigenvalues --   -0.58542  -0.58139  -0.57035  -0.56374  -0.56060
 Alpha  occ. eigenvalues --   -0.55817  -0.55739  -0.54697  -0.54349  -0.53763
 Alpha  occ. eigenvalues --   -0.53319  -0.53107  -0.52954  -0.51984  -0.51720
 Alpha  occ. eigenvalues --   -0.51365  -0.51283  -0.50915  -0.50584  -0.50147
 Alpha  occ. eigenvalues --   -0.50115  -0.49969  -0.49668  -0.49414  -0.48339
 Alpha  occ. eigenvalues --   -0.47351  -0.46742  -0.46365  -0.46264  -0.45977
 Alpha  occ. eigenvalues --   -0.45493  -0.44596  -0.43977  -0.43779  -0.43419
 Alpha  occ. eigenvalues --   -0.43010  -0.42803  -0.41606  -0.41508  -0.41381
 Alpha  occ. eigenvalues --   -0.40069  -0.38401  -0.37923  -0.37255  -0.35623
 Alpha  occ. eigenvalues --   -0.35459  -0.35071  -0.33630  -0.33510  -0.33233
 Alpha  occ. eigenvalues --   -0.32612  -0.32029  -0.31331  -0.29334  -0.27397
 Alpha  occ. eigenvalues --   -0.26775
 Alpha virt. eigenvalues --   -0.00609   0.02879   0.03409   0.04614   0.06657
 Alpha virt. eigenvalues --    0.06825   0.07365   0.07749   0.09981   0.10070
 Alpha virt. eigenvalues --    0.10920   0.12222   0.13735   0.14521   0.14727
 Alpha virt. eigenvalues --    0.15015   0.16085   0.17192   0.18390   0.18815
 Alpha virt. eigenvalues --    0.19330   0.19870   0.20188   0.20949   0.21566
 Alpha virt. eigenvalues --    0.21769   0.22054   0.22866   0.23110   0.23469
 Alpha virt. eigenvalues --    0.23753   0.23912   0.24372   0.25184   0.25237
 Alpha virt. eigenvalues --    0.25419   0.25724   0.26126   0.26669   0.26823
 Alpha virt. eigenvalues --    0.27581   0.28052   0.28119   0.28392   0.28656
 Alpha virt. eigenvalues --    0.29248   0.29580   0.30187   0.30422   0.30815
 Alpha virt. eigenvalues --    0.31247   0.31596   0.32092   0.33124   0.33383
 Alpha virt. eigenvalues --    0.33784   0.34699   0.35078   0.36067   0.37651
 Alpha virt. eigenvalues --    0.37901   0.38375   0.38511   0.38958   0.39686
 Alpha virt. eigenvalues --    0.40217   0.40898   0.41306   0.41448   0.42084
 Alpha virt. eigenvalues --    0.43339   0.44997   0.45420   0.46320   0.47017
 Alpha virt. eigenvalues --    0.47962   0.49504   0.51747   0.52782   0.53588
 Alpha virt. eigenvalues --    0.55505   0.56127   0.57183   0.57307   0.58264
 Alpha virt. eigenvalues --    0.58508   0.59540   0.59617   0.59842   0.60301
 Alpha virt. eigenvalues --    0.60659   0.61055   0.61828   0.62123   0.62289
 Alpha virt. eigenvalues --    0.62847   0.63285   0.63319   0.63988   0.64192
 Alpha virt. eigenvalues --    0.64627   0.64837   0.65076   0.65404   0.65445
 Alpha virt. eigenvalues --    0.65643   0.65969   0.66477   0.66616   0.66888
 Alpha virt. eigenvalues --    0.66950   0.67096   0.67460   0.68214   0.68395
 Alpha virt. eigenvalues --    0.68429   0.69229   0.69366   0.70045   0.70257
 Alpha virt. eigenvalues --    0.70443   0.70764   0.70883   0.71140   0.71219
 Alpha virt. eigenvalues --    0.72322   0.72708   0.72993   0.73513   0.73929
 Alpha virt. eigenvalues --    0.74006   0.74511   0.75318   0.75814   0.76194
 Alpha virt. eigenvalues --    0.76301   0.77195   0.77308   0.78319   0.78360
 Alpha virt. eigenvalues --    0.78648   0.80644   0.80833   0.81756   0.82106
 Alpha virt. eigenvalues --    0.82638   0.83331   0.83437   0.83744   0.84175
 Alpha virt. eigenvalues --    0.84997   0.85816   0.86075   0.86465   0.86643
 Alpha virt. eigenvalues --    0.87535   0.87801   0.88833   0.89154   0.89481
 Alpha virt. eigenvalues --    0.89705   0.90087   0.91101   0.91755   0.92122
 Alpha virt. eigenvalues --    0.92529   0.92744   0.93109   0.93400   0.93635
 Alpha virt. eigenvalues --    0.93798   0.94422   0.94767   0.94995   0.95783
 Alpha virt. eigenvalues --    0.95952   0.96512   0.96666   0.97533   0.97962
 Alpha virt. eigenvalues --    0.98515   0.99141   0.99278   0.99611   0.99997
 Alpha virt. eigenvalues --    1.00940   1.01505   1.01878   1.02548   1.02691
 Alpha virt. eigenvalues --    1.03463   1.03984   1.04949   1.05298   1.05733
 Alpha virt. eigenvalues --    1.06409   1.06933   1.07366   1.07840   1.08154
[...]
                 (A) (A) (A) (A) (A) (A) (A) (A) (A) (A) (A) (A)
                 (A) (A) (A) (A) (A) (A) (A) (A) (A) (A) (A) (A)
                 (A) (A) (A) (A) (A) (A) (A) (A) (A) (A) (A) (A)
                 (A) (A) (A) (A) (A) (A) (A) (A) (A) (A) (A) (A)
                 (A) (A) (A) (A) (A) (A) (A) (A) (A) (A) (A) (A)
                 (A) (A) (A) (A) (A) (A) (A) (A) (A) (A) (A) (A)
                 (A) (A) (A) (A) (A) (A) (A) (A) (A) (A) (A) (A)
                 (A) (A) (A) (A) (A) (A) (A) (A) (A) (A) (A) (A)
                 (A) (A) (A) (A) (A) (A) (A) (A) (A) (A) (A) (A)
                 (A) (A) (A) (A) (A) (A) (A) (A) (A) (A) (A) (A)
                 (A) (A) (A) (A) (A) (A) (A) (A) (A) (A) (A) (A)
                 (A) (A) (A) (A) (A) (A) (A) (A) (A) (A) (A) (A)
                 (A) (A) (A) (A) (A) (A) (A) (A) (A) (A) (A) (A)
                 (A) (A) (A) (A) (A) (A) (A) (A) (A) (A) (A) (A)
                 (A) (A) (A) (A) (A) (A) (A) (A) (A) (A) (A) (A)
                 (A) (A) (A) (A) (A) (A) (A) (A) (A) (A) (A) (A)
                 (A) (A) (A) (A) (A) (A) (A) (A) (A) (A) (A) (A)
                 (A) (A) (A) (A) (A) (A) (A) (A) (A) (A) (A) (A)
                 (A) (A) (A) (A) (A) (A) (A) (A) (A) (A) (A) (A)
                 (A) (A) (A) (A) (A) (A) (A) (A) (A) (A) (A) (A)
                 (A) (A) (A) (A) (A) (A) (A) (A) (A) (A) (A) (A)
                 (A) (A) (A) (A) (A) (A) (A) (A) (A) (A) (A) (A)
                 (A) (A) (A) (A) (A) (A) (A) (A) (A) (A) (A) (A)
                 (A) (A) (A) (A) (A) (A) (A) (A) (A) (A) (A) (A)
                 (A) (A) (A) (A) (A) (A) (A) (A) (A) (A) (A) (A)
                 (A) (A) (A) (A) (A) (A) (A) (A) (A) (A) (A) (A)
                 (A) (A) (A) (A) (A) (A) (A) (A) (A) (A) (A) (A)
                 (A) (A) (A) (A) (A) (A) (A) (A) (A) (A) (A) (A)
                 (A) (A) (A) (A) (A) (A) (A) (A) (A) (A) (A) (A)
                 (A) (A) (A) (A) (A) (A) (A) (A) (A) (A) (A) (A)
                 (A) (A) (A) (A) (A) (A) (A) (A) (A) (A) (A) (A)
                 (A) (A) (A) (A) (A) (A) (A) (A) (A) (A) (A) (A)
                 (A) (A) (A) (A) (A) (A) (A) (A) (A) (A) (A) (A)
                 (A) (A) (A) (A) (A) (A)
 The electronic state is 1-A.
 Alpha  occ. eigenvalues --  -19.23141 -14.49088 -14.48249 -14.46430 -14.45934
 Alpha  occ. eigenvalues --  -14.45554 -14.44102 -14.43655 -10.41589 -10.39893
 Alpha  occ. eigenvalues --  -10.37440 -10.36189 -10.34998 -10.34761 -10.34485
 Alpha  occ. eigenvalues --  -10.33945 -10.33923 -10.33369 -10.32607 -10.32385
 Alpha  occ. eigenvalues --  -10.31700 -10.31600 -10.31417 -10.31278 -10.31179
 Alpha  occ. eigenvalues --  -10.31107 -10.30685 -10.30535 -10.30245 -10.30152
 Alpha  occ. eigenvalues --  -10.29925 -10.29873 -10.29806 -10.29418 -10.29301
 Alpha  occ. eigenvalues --  -10.28760 -10.28207  -1.13267  -1.12141  -1.06043
 Alpha  occ. eigenvalues --   -1.04470  -1.04387  -1.03398  -1.00553  -1.00018
 Alpha  occ. eigenvalues --   -0.95689  -0.94520  -0.92873  -0.89563  -0.87952
 Alpha  occ. eigenvalues --   -0.87191  -0.86212  -0.85604  -0.84127  -0.83620
 Alpha  occ. eigenvalues --   -0.81645  -0.79635  -0.78096  -0.77977  -0.76153
 Alpha  occ. eigenvalues --   -0.73638  -0.73527  -0.72817  -0.72488  -0.70963
 Alpha  occ. eigenvalues --   -0.69939  -0.69635  -0.67834  -0.66216  -0.64977
 Alpha  occ. eigenvalues --   -0.63774  -0.63199  -0.61958  -0.61584  -0.59869
 Alpha  occ. eigenvalues --   -0.58660  -0.58473  -0.57426  -0.56519  -0.55949
 Alpha  occ. eigenvalues --   -0.55693  -0.55463  -0.55032  -0.54956  -0.54325
 Alpha  occ. eigenvalues --   -0.53736  -0.53606  -0.52981  -0.52468  -0.51999
 Alpha  occ. eigenvalues --   -0.51530  -0.51388  -0.51068  -0.50969  -0.50440
 Alpha  occ. eigenvalues --   -0.50263  -0.49886  -0.49565  -0.49366  -0.47997
 Alpha  occ. eigenvalues --   -0.47838  -0.47128  -0.46879  -0.46466  -0.46050
 Alpha  occ. eigenvalues --   -0.45873  -0.45630  -0.44381  -0.43794  -0.43288
 Alpha  occ. eigenvalues --   -0.43210  -0.42640  -0.42006  -0.41949  -0.41510
 Alpha  occ. eigenvalues --   -0.41213  -0.40757  -0.39820  -0.38005  -0.37401
 Alpha  occ. eigenvalues --   -0.35506  -0.35075  -0.33814  -0.33285  -0.33130
 Alpha  occ. eigenvalues --   -0.32461  -0.32292  -0.31030  -0.28993  -0.26964
 Alpha  occ. eigenvalues --   -0.25780
 Alpha virt. eigenvalues --   -0.00142   0.03120   0.03718   0.04761   0.07061
 Alpha virt. eigenvalues --    0.07524   0.08522   0.10521   0.14996   0.15191
 Alpha virt. eigenvalues --    0.15560   0.16397   0.17339   0.17525   0.18783
 Alpha virt. eigenvalues --    0.19695   0.19924   0.20246   0.20452   0.21535
 Alpha virt. eigenvalues --    0.21732   0.22209   0.22462   0.22912   0.23082
 Alpha virt. eigenvalues --    0.23392   0.23673   0.24153   0.24352   0.24721
 Alpha virt. eigenvalues --    0.25054   0.25336   0.25788   0.26142   0.26285
 Alpha virt. eigenvalues --    0.27172   0.27313   0.27853   0.28040   0.28264
 Alpha virt. eigenvalues --    0.28619   0.29309   0.29660   0.30003   0.30534
 Alpha virt. eigenvalues --    0.30920   0.31281   0.31682   0.31914   0.32370
 Alpha virt. eigenvalues --    0.32822   0.33113   0.33512   0.33790   0.34117
 Alpha virt. eigenvalues --    0.34576   0.34974   0.36119   0.36656   0.36840
 Alpha virt. eigenvalues --    0.38497   0.38763   0.38854   0.39044   0.40452
 Alpha virt. eigenvalues --    0.41392   0.41954   0.42201   0.43020   0.43587
 Alpha virt. eigenvalues --    0.43882   0.45257   0.46617   0.47332   0.47689
 Alpha virt. eigenvalues --    0.48656   0.49954   0.52649   0.53195   0.54602
 Alpha virt. eigenvalues --    0.56049   0.56538   0.57231   0.58422   0.58999
 Alpha virt. eigenvalues --    0.59423   0.59593   0.60257   0.60663   0.60764
 Alpha virt. eigenvalues --    0.61526   0.62268   0.62508   0.62754   0.63101
 Alpha virt. eigenvalues --    0.63443   0.63582   0.63938   0.64234   0.64803
 Alpha virt. eigenvalues --    0.65007   0.65241   0.65665   0.65784   0.66077
 Alpha virt. eigenvalues --    0.66433   0.66590   0.66749   0.67229   0.67382
 Alpha virt. eigenvalues --    0.67642   0.68148   0.68555   0.68900   0.69588
 Alpha virt. eigenvalues --    0.69709   0.69995   0.70443   0.70863   0.71292
 Alpha virt. eigenvalues --    0.71367   0.71695   0.71860   0.72925   0.73100
 Alpha virt. eigenvalues --    0.73237   0.73406   0.73545   0.74653   0.74837
 Alpha virt. eigenvalues --    0.75337   0.75742   0.76165   0.76331   0.77459
 Alpha virt. eigenvalues --    0.77777   0.78545   0.79775   0.80532   0.80804
 Alpha virt. eigenvalues --    0.81213   0.82200   0.82392   0.83361   0.84327
 Alpha virt. eigenvalues --    0.84611   0.85843   0.86164   0.87136   0.87927
 Alpha virt. eigenvalues --    0.88014   0.88326   0.88953   0.89284   0.90009
 Alpha virt. eigenvalues --    0.90695   0.90860   0.91317   0.91898   0.92567
 Alpha virt. eigenvalues --    0.92807   0.93015   0.93227   0.93397   0.93861
 Alpha virt. eigenvalues --    0.94068   0.94264   0.94625   0.94922   0.95000
 Alpha virt. eigenvalues --    0.95540   0.95872   0.95980   0.97197   0.97471
 Alpha virt. eigenvalues --    0.98300   0.98563   0.99115   0.99416   0.99484
 Alpha virt. eigenvalues --    1.00498   1.00798   1.01335   1.01735   1.01955
 Alpha virt. eigenvalues --    1.02168   1.03323   1.03649   1.04057   1.04597
 Alpha virt. eigenvalues --    1.04905   1.05802   1.05996   1.06582   1.07022
 Alpha virt. eigenvalues --    1.07810   1.07888   1.08308   1.08814   1.09121
 Alpha virt. eigenvalues --    1.09182   1.09588   1.10354   1.11627   1.11759
 Alpha virt. eigenvalues --    1.12090   1.12593   1.13771   1.14255   1.15119
 Alpha virt. eigenvalues --    1.16555   1.16562   1.17105   1.17418   1.19822
 Alpha virt. eigenvalues --    1.19909   1.20426   1.21875   1.23244   1.23851
 Alpha virt. eigenvalues --    1.24228   1.25768   1.25952   1.27382   1.28106
 Alpha virt. eigenvalues --    1.28911   1.29289   1.29512   1.30070   1.30728
 Alpha virt. eigenvalues --    1.31378   1.33024   1.33331   1.33905   1.35011
 Alpha virt. eigenvalues --    1.35909   1.37052   1.37294   1.37834   1.38674
 Alpha virt. eigenvalues --    1.39704   1.40264   1.43279   1.43575   1.44447
 Alpha virt. eigenvalues --    1.46296   1.46715   1.47536   1.48220   1.48635
 Alpha virt. eigenvalues --    1.49056   1.49071   1.49592   1.50986   1.51767
 Alpha virt. eigenvalues --    1.52834   1.52865   1.53794   1.53978   1.54358
 Alpha virt. eigenvalues --    1.54899   1.55282   1.55694   1.56232   1.56768
 Alpha virt. eigenvalues --    1.57182   1.57847   1.58035   1.58438   1.59433
 Alpha virt. eigenvalues --    1.59727   1.60197   1.61276   1.61951   1.62874
 Alpha virt. eigenvalues --    1.64343   1.65198   1.65391   1.66451   1.66779
 Alpha virt. eigenvalues --    1.68220   1.70087   1.72138   1.75244   1.76331
 Alpha virt. eigenvalues --    1.78787   1.80688   1.82184   1.83250   1.84719
 Alpha virt. eigenvalues --    1.85094   1.85713   1.86493   1.86692   1.87789
 Alpha virt. eigenvalues --    1.87975   1.88770   1.89285   1.90318   1.91002
 Alpha virt. eigenvalues --    1.91172   1.92084   1.92447   1.92861   1.94095
 Alpha virt. eigenvalues --    1.94392   1.94946   1.95307   1.96179   1.97643
 Alpha virt. eigenvalues --    1.98337   1.99364   1.99719   2.00668   2.01037
 Alpha virt. eigenvalues --    2.01638   2.01838   2.02024   2.02460   2.03198
 Alpha virt. eigenvalues --    2.03964   2.05657   2.06213   2.06347   2.07450
 Alpha virt. eigenvalues --    2.08665   2.09078   2.09679   2.10098   2.12217
 Alpha virt. eigenvalues --    2.12460   2.13170   2.13392   2.14579   2.14944
 Alpha virt. eigenvalues --    2.15332   2.16169   2.17200   2.19608   2.19807
 Alpha virt. eigenvalues --    2.20265   2.20643   2.21352   2.21997   2.22552
 Alpha virt. eigenvalues --    2.22867   2.23496   2.24127   2.24215   2.25080
 Alpha virt. eigenvalues --    2.25364   2.25994   2.26286   2.27010   2.27059
 Alpha virt. eigenvalues --    2.28142   2.29402   2.29617   2.31814   2.32784
 Alpha virt. eigenvalues --    2.33579   2.34206   2.34817   2.35232   2.37091
 Alpha virt. eigenvalues --    2.37571   2.37904   2.38881   2.38924   2.40360
 Alpha virt. eigenvalues --    2.40565   2.41383   2.42194   2.42573   2.43350
 Alpha virt. eigenvalues --    2.43589   2.44101   2.44479   2.44843   2.45190
 Alpha virt. eigenvalues --    2.45800   2.47466   2.48655   2.49500   2.49947
 Alpha virt. eigenvalues --    2.50568   2.51581   2.52512   2.53717   2.56636
 Alpha virt. eigenvalues --    2.58856   2.59870   2.61764   2.62285   2.64184
 Alpha virt. eigenvalues --    2.64712   2.65009   2.65841   2.66164   2.68201
 Alpha virt. eigenvalues --    2.68252   2.70095   2.71218   2.72055   2.72500
 Alpha virt. eigenvalues --    2.74016   2.74728   2.75280   2.75755   2.76331
 Alpha virt. eigenvalues --    2.77208   2.77388   2.78102   2.81627   2.82139
 Alpha virt. eigenvalues --    2.82895   2.83330   2.83991   2.84736   2.85286
 Alpha virt. eigenvalues --    2.85977   2.86459   2.87066   2.88158   2.89157
 Alpha virt. eigenvalues --    2.89503   2.90493   2.92772   2.94328   2.94663
 Alpha virt. eigenvalues --    2.94987   2.96371   2.98782   3.03609   3.04170
 Alpha virt. eigenvalues --    3.05941   3.06921   3.09621   3.10153   3.13473
 Alpha virt. eigenvalues --    3.18983   3.28028   3.29649   3.39351   3.41596
 Alpha virt. eigenvalues --    3.44932   3.54260   3.56574   3.57709   4.13468
 Alpha virt. eigenvalues --    4.15309   4.15820   4.18312   4.18681   4.19193
 Alpha virt. eigenvalues --    4.19638   4.20837   4.22137   4.22448   4.23434
 Alpha virt. eigenvalues --    4.25674   4.26147   4.27565   4.30369   4.31777
 Alpha virt. eigenvalues --    4.32022   4.33881   4.36899   4.39326   4.40334
 Alpha virt. eigenvalues --    4.41918   4.44582   4.44869   4.45914   4.49100
 Alpha virt. eigenvalues --    4.50072   4.54651   4.55516   4.57570   4.61025
 Alpha virt. eigenvalues --    4.62261   4.67678   4.68729   4.79255   4.84418
 Alpha virt. eigenvalues --    4.89612
          Condensed to atoms (all electrons):
 Mulliken atomic charges:
              1
     1  C   -0.199123
     2  C   -0.155377
     3  C    0.033476
     4  C    0.007519
     5  N   -0.433877
     6  C    0.030960
     7  C    0.296755
     8  C   -0.254348
     9  C    0.048131
    10  N   -0.492587
    11  C    0.708692
    12  N   -0.567675
    13  N   -0.796293
    14  C    0.288216
    15  C    0.120603
    16  C   -0.240210
    17  C   -0.190693
    18  C    0.356101
    19  C   -0.265324
    20  N   -0.766417
    21  C    0.596860
    22  C    0.018247
    23  C   -0.214573
    24  C   -0.199819
    25  C    0.113505
    26  C   -0.222871
    27  C   -0.181346
    28  C   -0.219860
    29  N   -0.402533
    30  C   -0.192321
    31  C   -0.187530
    32  N   -0.384165
    33  C   -0.349858
    34  C   -0.187274
    35  C   -0.184790
    36  O   -0.517563
    37  C   -0.607055
    38  H    0.185023
    39  H    0.184992
    40  H    0.200672
    41  H    0.186590
    42  H    0.179893
    43  H    0.188686
    44  H    0.368475
    45  H    0.160397
    46  H    0.215725
    47  H    0.194165
    48  H    0.359394
    49  H    0.187558
    50  H    0.185481
    51  H    0.162913
    52  H    0.195711
    53  H    0.179152
    54  H    0.139766
    55  H    0.175439
    56  H    0.158567
    57  H    0.160229
    58  H    0.162568
    59  H    0.133388
    60  H    0.169600
    61  H    0.168551
    62  H    0.158642
    63  H    0.163067
    64  H    0.159950
    65  H    0.159192
    66  H    0.177228
    67  H    0.183294
    68  H    0.190107
 Sum of Mulliken atomic charges =   0.00000
 Mulliken charges with hydrogens summed into heavy atoms:
              1
     1  C   -0.014101
     2  C    0.029615
     3  C    0.033476
     4  C    0.208191
     5  N   -0.433877
     6  C    0.217550
     7  C    0.296755
     8  C   -0.074455
     9  C    0.236817
    10  N   -0.492587
    11  C    0.708692
    12  N   -0.567675
    13  N   -0.427818
    14  C    0.288216
    15  C    0.120603
    16  C   -0.079814
    17  C    0.025033
    18  C    0.356101
    19  C   -0.071159
    20  N   -0.407023
    21  C    0.596860
    22  C    0.018247
    23  C   -0.027014
    24  C   -0.014338
    25  C    0.113505
    26  C   -0.059958
    27  C    0.014364
    28  C    0.099059
    29  N   -0.402533
    30  C    0.141685
    31  C    0.135267
    32  N   -0.384165
    33  C    0.121680
    34  C    0.134436
    35  C    0.134353
    36  O   -0.517563
    37  C   -0.056425
 Sum of Mulliken charges with hydrogens summed into heavy atoms =   0.00000
 Electronic spatial extent (au):  <R**2>=          26299.3274
 Charge=              0.0000 electrons
 Dipole moment (field-independent basis, Debye):
    X=              0.0158    Y=              6.8612    Z=              0.7349  Tot=              6.9005
 Quadrupole moment (field-independent basis, Debye-Ang):
   XX=           -190.9239   YY=           -200.8625   ZZ=           -219.8829
   XY=              1.9781   XZ=              4.7784   YZ=             -1.9347
 Traceless Quadrupole moment (field-independent basis, Debye-Ang):
   XX=             12.9658   YY=              3.0273   ZZ=            -15.9931
   XY=              1.9781   XZ=              4.7784   YZ=             -1.9347
 Octapole moment (field-independent basis, Debye-Ang**2):
  XXX=             96.0950  YYY=            195.6657  ZZZ=              9.5979  XYY=             31.8945
  XXY=             10.9287  XXZ=            -47.7213  XZZ=            -26.0261  YZZ=              2.4377
  YYZ=             15.3381  XYZ=             -7.0327
 Hexadecapole moment (field-independent basis, Debye-Ang**3):
 XXXX=         -26017.2234 YYYY=          -7746.1669 ZZZZ=          -1020.9974 XXXY=           -535.9406
 XXXZ=            529.5085 YYYX=            285.7613 YYYZ=            -44.2691 ZZZX=            -37.2736
 ZZZY=             23.7249 XXYY=          -5128.2554 XXZZ=          -4627.3050 YYZZ=          -1633.0214
 XXYZ=             35.5494 YYXZ=            -14.0786 ZZXY=            -38.6374
 N-N= 3.736375386095D+03 E-N=-1.114456597540D+04  KE= 1.567151358410D+03
 No NMR shielding tensors so no spin-rotation constants.
 Leave Link  601 at Wed Mar 11 01:27:33 2020, MaxMem= 2684354560 cpu:       3.0
 (Enter /opt/g09gh/gaussian/g09/l9999.exe)
 1\1\GINC-NODE48\FOpt\RwB97XD\6-31G(d)\C29H31N7O1\BDW2292\11-Mar-2020\0
 \\#P opt=(,maxcycle=400) wB97XD/6-31G* MaxDisk=100GB\\MOLECULE0 Rotata
 ble Bond Optimization on g2-node38.bme.utexas.edu\\0,1\C,-0.2271741304
 ,4.4768286447,-0.8610330069\C,1.0911867032,4.332257708,-0.446411233\C,
 1.7078042099,3.0889277761,-0.5754061378\C,0.9520092406,2.0495599489,-1
 .1342902719\N,-0.3146258721,2.1709135976,-1.5262007002\C,-0.8879113397
 ,3.3697116404,-1.3830470106\C,3.0916545411,2.8154596637,-0.1137600778\
 C,4.066153143,3.7949891325,0.0571728212\C,5.3022715786,3.3534623893,0.
 527199222\N,5.581688865,2.0842470915,0.7917762113\C,4.5749292454,1.215
 0166167,0.5703377758\N,3.3529870453,1.5319752301,0.1448934337\N,4.8800
 974662,-0.0944552167,0.8217319359\C,4.125177025,-1.2588338772,0.581795
 1539\C,4.8087303929,-2.4877628457,0.4925250625\C,4.0545644923,-3.62818
 36045,0.2324744349\C,2.6751149809,-3.6058603588,0.0409888669\C,2.02015
 06983,-2.3806115632,0.1388730172\C,2.7423799295,-1.2243790069,0.436941
 1761\N,0.641957758,-2.1929500489,-0.0668983063\C,-0.2987964819,-3.0835
 793461,-0.5168226092\C,-1.6334132156,-2.4602538888,-0.8141209192\C,-1.
 7864382333,-1.1270797651,-1.2105461848\C,-3.0488622129,-0.6116062634,-
 1.469104871\C,-4.1853128115,-1.4107133872,-1.3352964234\C,-4.027465856
 4,-2.7426363186,-0.9507012991\C,-2.7648628781,-3.2683686419,-0.7051542
 046\C,-5.5576166705,-0.8471919438,-1.6386921342\N,-5.7079690336,0.5202
 999649,-1.1589193689\C,-5.6935598002,0.6405148617,0.3018089985\C,-7.01
 5774903,0.2052207675,0.9501407726\N,-8.18361786,0.8908457739,0.3982308
 108\C,-8.3338101324,2.2547740287,0.8732744593\C,-8.1945546027,0.773097
 385,-1.0584063183\C,-6.8732622146,1.2118727279,-1.7085834842\O,-0.0959
 530477,-4.2795030004,-0.6530018365\C,6.3053540343,-2.5662218865,0.6563
 96762\H,-0.7404769175,5.4277863857,-0.7670221499\H,1.6195644554,5.1711
 487313,-0.002575257\H,1.4115166178,1.0740971687,-1.269220233\H,-1.9260
 417735,3.4437609245,-1.6984025118\H,3.8957228522,4.8400161372,-0.16981
 56377\H,6.1107462888,4.0624654024,0.6942834023\H,5.8436824733,-0.21873
 28721,1.0941973262\H,4.5695882801,-4.5827404982,0.1592061987\H,2.12173
 19792,-4.5067133279,-0.1831787064\H,2.2302926708,-0.2776498503,0.52353
 55842\H,0.3179391772,-1.2504148077,0.0901666735\H,-0.9334830705,-0.470
 1327892,-1.36200846\H,-3.1602005777,0.4258258326,-1.7675116035\H,-4.90
 36090115,-3.3773859657,-0.8399085229\H,-2.6376983103,-4.3072798071,-0.
 4187045097\H,-5.6918769205,-0.8209542311,-2.7281680348\H,-6.3214950788
 ,-1.5470862485,-1.2551627432\H,-4.8582757501,0.0542422057,0.697952736\
 H,-5.4892478381,1.6919157712,0.543554172\H,-6.9824694507,0.3755827636,
 2.0322201545\H,-7.1612917835,-0.8734770914,0.8024060323\H,-7.519293277
 1,2.9472149659,0.5950237239\H,-8.4028566513,2.2469572251,1.9663687425\
 H,-9.2690651691,2.6697063737,0.4821531805\H,-9.0308978968,1.3601092359
 ,-1.4554927377\H,-8.3938949367,-0.2783159266,-1.3070323931\H,-6.724114
 1887,2.2883611664,-1.5498555999\H,-6.905993882,1.0494638793,-2.7920989
 637\H,6.6318901099,-2.2503760087,1.6568312342\H,6.8296536872,-1.939598
 6044,-0.0765670213\H,6.6545238398,-3.5923781255,0.5168624078\\Version=
 EM64L-G09RevA.02\State=1-A\HF=-1581.7642854\RMSD=6.685e-09\RMSF=8.304e
 -06\Dipole=0.0735332,2.6989382,0.284294\Quadrupole=9.0531007,2.1481358
 ,-11.2012365,1.3602291,5.1361885,-1.5130347\PG=C01 [X(C29H31N7O1)]\\@


 GOD DOES NOT PLAY WITH DICE.
               -- A. EINSTEIN
 Job cpu time:  0 days  8 hours 10 minutes 48.4 seconds.
 File lengths (MBytes):  RWF=    244 Int=      0 D2E=      0 Chk=     25 Scr=      1
 Normal termination of Gaussian 09 at Wed Mar 11 01:27:33 2020.
