68
MOLECULE0-opt-14-13-11-12-284.log	Energy: -992571.3958375
C         -0.47375        4.27500       -0.77171
C          0.87079        4.19238       -0.43044
C          1.54724        2.99039       -0.63149
C          0.82082        1.92627       -1.18242
N         -0.46815        1.98995       -1.51150
C         -1.09709        3.15000       -1.30056
C          2.96912        2.78931       -0.25378
C          3.90008        3.81932       -0.15452
C          5.18601        3.44682        0.23548
N          5.54540        2.19753        0.49687
C          4.57203        1.27505        0.35463
N          3.31200        1.52366       -0.00197
N          4.96084       -0.01092        0.61324
C          4.24517       -1.21704        0.49464
C          4.96897       -2.42671        0.47954
C          4.24838       -3.60956        0.33824
C          2.86261       -3.65085        0.19553
C          2.17132       -2.44331        0.21736
C          2.85961       -1.24334        0.39389
N          0.78477       -2.30536        0.03970
C         -0.15524       -3.23252       -0.33079
C         -1.47467       -2.60105       -0.67515
C         -1.54974       -1.35805       -1.31064
C         -2.78205       -0.77872       -1.57443
C         -3.96547       -1.40992       -1.19149
C         -3.88382       -2.67740       -0.60803
C         -2.65373       -3.27437       -0.35777
C         -5.30246       -0.70411       -1.34858
N         -5.69253        0.22605       -0.29980
C         -5.02557        1.52273       -0.24769
C         -3.81566        1.57769        0.70285
N         -4.11300        1.06876        2.03889
C         -4.90192        1.97779        2.85122
C         -4.67911       -0.27465        1.93981
C         -5.91422       -0.34026        1.02610
O          0.03675       -4.43637       -0.36454
C          6.47176       -2.44245        0.59907
H         -1.03319        5.19165       -0.61900
H          1.37585        5.04552        0.01335
H          1.32496        0.98092       -1.36633
H         -2.15204        3.17679       -1.56495
H          3.66108        4.85108       -0.38050
H          5.96753        4.19701        0.33837
H          5.94206       -0.07696        0.83923
H          4.79662       -4.54824        0.32496
H          2.33368       -4.58493        0.06479
H          2.31454       -0.31199        0.41936
H          0.44619       -1.35895        0.13110
H         -0.65327       -0.83302       -1.62740
H         -2.80988        0.19071       -2.06540
H         -4.79857       -3.19729       -0.33179
H         -2.59011       -4.25693        0.09915
H         -5.30814       -0.14881       -2.29433
H         -6.09483       -1.45990       -1.42307
H         -4.72377        1.80411       -1.26371
H         -5.76690        2.26790        0.07824
H         -3.45838        2.61160        0.79247
H         -2.99080        0.98252        0.29565
H         -5.91196        2.20537        2.46711
H         -4.36425        2.92718        2.95151
H         -5.01770        1.55079        3.85338
H         -4.93762       -0.62331        2.94707
H         -3.89724       -0.93810        1.55223
H         -6.74296        0.20814        1.49819
H         -6.24795       -1.37807        0.91511
H          6.81730       -2.03114        1.55742
H          6.95194       -1.86576       -0.20216
H          6.85209       -3.46503        0.53499
