68
MOLECULE0-opt-15-14-13-11-083.log	Energy: -992566.8108140
C          8.51544       -0.75303       -2.31240
C          7.90471        0.34871       -1.72949
C          6.62743        0.20915       -1.18547
C          6.03241       -1.05763       -1.25318
N          6.60713       -2.12299       -1.80942
C          7.82672       -1.96163       -2.32811
C          5.89971        1.33353       -0.54601
C          6.26868        2.66974       -0.70935
C          5.49335        3.61109       -0.04179
N          4.44874        3.30002        0.71587
C          4.17243        1.98498        0.79234
N          4.84314        0.99625        0.19873
N          3.09254        1.65835        1.56476
C          2.49013        0.37359        1.63074
C          3.14404       -0.70797        2.23683
C          2.45396       -1.91954        2.27864
C          1.16827       -2.08037        1.77635
C          0.52644       -0.98486        1.19587
C          1.20213        0.23362        1.12253
N         -0.76780       -1.03768        0.64338
C         -1.69066       -2.05126        0.72199
C         -2.97900       -1.76756        0.00350
C         -3.05619       -0.98083       -1.14840
C         -4.28289       -0.76131       -1.76397
C         -5.45762       -1.30255       -1.23969
C         -5.36348       -2.12196       -0.11207
C         -4.14096       -2.35794        0.50166
C         -6.80979       -0.98959       -1.86416
N         -7.51238        0.19782       -1.40764
C         -6.98741        1.49530       -1.81613
C         -6.02528        2.12727       -0.79556
N         -6.57694        2.18002        0.55529
C         -7.58532        3.20897        0.73898
C         -7.01212        0.84690        0.96505
C         -7.99206        0.20208       -0.03027
O         -1.51473       -3.09329        1.33080
C          4.51856       -0.57950        2.83155
H          9.50896       -0.68000       -2.74196
H          8.42933        1.29834       -1.68518
H          5.04136       -1.19942       -0.83098
H          8.27615       -2.84588       -2.77490
H          7.09561        2.97811       -1.33595
H          5.72026        4.67220       -0.12606
H          2.53764        2.45558        1.84040
H          2.93704       -2.77619        2.74143
H          0.65934       -3.03091        1.84540
H          0.73101        1.09374        0.65095
H         -1.09720       -0.17193        0.24342
H         -2.15575       -0.56920       -1.59760
H         -4.32835       -0.15857       -2.66823
H         -6.26366       -2.57807        0.29340
H         -4.06592       -3.00223        1.37156
H         -6.68494       -0.89361       -2.94973
H         -7.47750       -1.84461       -1.69918
H         -6.49454        1.38758       -2.78921
H         -7.84101        2.17253       -1.96806
H         -5.76244        3.14505       -1.10917
H         -5.09741        1.54485       -0.75155
H         -8.50613        3.08638        0.14218
H         -7.15192        4.18242        0.48496
H         -7.87623        3.23844        1.79473
H         -7.47562        0.91683        1.95642
H         -6.11751        0.22074        1.06190
H         -8.94434        0.75231       -0.00539
H         -8.21621       -0.82799        0.26932
H          4.65193        0.39879        3.30448
H          5.28608       -0.67087        2.05578
H          4.68910       -1.35500        3.58389
