
    -----------------------------------------------------------------------
          Psi4: An Open-Source Ab Initio Electronic Structure Package
                               Psi4 1.3.2 release

                         Git: Rev {HEAD} ecbda83 


    R. M. Parrish, L. A. Burns, D. G. A. Smith, A. C. Simmonett,
    A. E. DePrince III, E. G. Hohenstein, U. Bozkaya, A. Yu. Sokolov,
    R. Di Remigio, R. M. Richard, J. F. Gonthier, A. M. James,
    H. R. McAlexander, A. Kumar, M. Saitow, X. Wang, B. P. Pritchard,
    P. Verma, H. F. Schaefer III, K. Patkowski, R. A. King, E. F. Valeev,
    F. A. Evangelista, J. M. Turney, T. D. Crawford, and C. D. Sherrill,
    J. Chem. Theory Comput. 13(7) pp 3185--3197 (2017).
    (doi: 10.1021/acs.jctc.7b00174)


                         Additional Contributions by
    P. Kraus, H. Kruse, M. H. Lechner, M. C. Schieber, R. A. Shaw,
    A. Alenaizan, R. Galvelis, Z. L. Glick, S. Lehtola, and J. P. Misiewicz

    -----------------------------------------------------------------------


    Psi4 started on: Friday, 24 April 2020 11:59AM

    Process ID: 52246
    Host:       node42.bme.utexas.edu
    PSIDATADIR: /home/bdw2292/miniconda3/envs/p4env/share/psi4
    Memory:     500.0 MiB
    Threads:    1
    
  ==> Input File <==

--------------------------------------------------------------------------
molecule { 
0 1
 C   -1.206723    5.022393   -0.137051
 C   -2.500788    4.547241    0.116381
 C   -2.734463    3.161163    0.211258
 C   -1.592428    2.333657    0.077866
 N   -0.348977    2.767537   -0.166333
 C   -0.169625    4.093023   -0.276572
 C   -4.098910    2.551245    0.418658
 C   -5.278757    3.270057    0.674127
 C   -6.444982    2.505510    0.799561
 N   -6.489502    1.180080    0.683041
 C   -5.312104    0.571677    0.434154
 N   -4.147272    1.210333    0.309802
 N   -5.374622   -0.804687    0.302827
 C   -4.377489   -1.832840    0.137439
 C   -4.716246   -3.191868    0.417022
 C   -3.707277   -4.155481    0.251417
 C   -2.399364   -3.856970   -0.147294
 C   -2.078262   -2.523820   -0.425238
 C   -3.077102   -1.544741   -0.296880
 N   -0.787473   -2.039294   -0.824657
 C    0.440173   -2.658228   -0.886845
 C    1.684528   -1.829602   -1.171290
 C    2.882724   -2.545278   -1.349037
 C    4.080356   -1.881952   -1.623851
 C    4.138299   -0.479257   -1.721316
 C    2.933658    0.228190   -1.553720
 C    1.729263   -0.428187   -1.285748
 C    5.463042    0.240803   -1.979446
 N    6.305676    0.654096   -0.844116
 C    6.991638   -0.390637   -0.049042
 C    6.225310   -0.847101    1.219658
 N    5.819994    0.264510    2.112897
 C    6.844318    0.773034    3.033292
 C    5.084774    1.272710    1.312149
 C    5.838792    1.745204    0.041784
 O    0.547738   -3.866890   -0.735518
 C   -6.096405   -3.631562    0.876542
 H   -1.005741    6.085711   -0.229645
 H   -3.309405    5.268334    0.207575
 H   -1.679984    1.257859    0.188788
 H    0.852594    4.411699   -0.475922
 H   -5.331118    4.346975    0.777800
 H   -7.412810    2.963347    1.002842
 H   -6.322073   -1.111117    0.463997
 H   -3.935259   -5.202070    0.451086
 H   -1.643392   -4.627064   -0.233776
 H   -2.843050   -0.520231   -0.532699
 H   -0.779694   -1.058359   -1.059393
 H    2.863069   -3.629433   -1.266358
 H    4.989165   -2.470659   -1.745327
 H    2.931485    1.316271   -1.613476
 H    0.830958    0.164327   -1.134848
 H    6.084040   -0.405152   -2.616399
 H    5.250560    1.148308   -2.561944
 H    7.253995   -1.308272   -0.724593
 H    8.275255    0.176261    0.389643
 H    6.916198   -1.672254    1.877892
 H    5.041179   -1.513393    0.832903
 H    7.671966    1.234373    2.482994
 H    7.240621   -0.044121    3.647503
 H    6.409751    1.519028    3.708851
 H    4.804639    2.276456    2.061967
 H    3.867122    0.684272    0.936176
 H    7.048914    2.477183    0.495828
 H    5.203685    2.505739   -0.556232
 H   -6.879459   -3.405552    0.138650
 H   -6.378243   -3.135256    1.809342
 H   -6.155681   -4.706556    1.066487
}
memory 20GB
set_num_threads(6)
psi4_io.set_default_path("/scratch/bdw2292")
set freeze_core True
E, wfn = energy('mp2/6-311+G*',return_wfn=True)
oeprop(wfn,"WIBERG_LOWDIN_INDICES")
clean()
--------------------------------------------------------------------------

  Memory set to  18.626 GiB by Python driver.
  Threads set to 6 by Python driver.
    SCF Algorithm Type (re)set to DF.

*** tstart() called on node42.bme.utexas.edu
*** at Fri Apr 24 11:59:20 2020

   => Loading Basis Set <=

    Name: 6-311+G*
    Role: ORBITAL
    Keyword: BASIS
    atoms 1-4, 6-9, 11, 14-19, 21-28, 30-31, 33-35, 37 entry C          line   130 file /home/bdw2292/miniconda3/envs/p4env/share/psi4/basis/6-311pgs.gbs 
    atoms 5, 10, 12-13, 20, 29, 32                     entry N          line   151 file /home/bdw2292/miniconda3/envs/p4env/share/psi4/basis/6-311pgs.gbs 
    atoms 36                                           entry O          line   172 file /home/bdw2292/miniconda3/envs/p4env/share/psi4/basis/6-311pgs.gbs 
    atoms 38-68                                        entry H          line    47 file /home/bdw2292/miniconda3/envs/p4env/share/psi4/basis/6-311pgs.gbs 


         ---------------------------------------------------------
                                   SCF
               by Justin Turney, Rob Parrish, Andy Simmonett
                          and Daniel G. A. Smith
                              RHF Reference
                        6 Threads,  19073 MiB Core
         ---------------------------------------------------------

  ==> Geometry <==

    Molecular point group: c1
    Full point group: C1

    Geometry (in Angstrom), charge = 0, multiplicity = 1:

       Center              X                  Y                   Z               Mass       
    ------------   -----------------  -----------------  -----------------  -----------------
         C           -1.127976759666     5.037220209742    -0.103671266941    12.000000000000
         C           -2.422041759666     4.562068209742     0.149760733059    12.000000000000
         C           -2.655716759666     3.175990209742     0.244637733059    12.000000000000
         C           -1.513681759666     2.348484209742     0.111245733059    12.000000000000
         N           -0.270230759666     2.782364209742    -0.132953266941    14.003074004430
         C           -0.090878759666     4.107850209742    -0.243192266941    12.000000000000
         C           -4.020163759666     2.566072209742     0.452037733059    12.000000000000
         C           -5.200010759666     3.284884209742     0.707506733059    12.000000000000
         C           -6.366235759666     2.520337209742     0.832940733059    12.000000000000
         N           -6.410755759666     1.194907209742     0.716420733059    14.003074004430
         C           -5.233357759666     0.586504209742     0.467533733059    12.000000000000
         N           -4.068525759666     1.225160209742     0.343181733059    14.003074004430
         N           -5.295875759666    -0.789859790258     0.336206733059    14.003074004430
         C           -4.298742759666    -1.818012790258     0.170818733059    12.000000000000
         C           -4.637499759666    -3.177040790258     0.450401733059    12.000000000000
         C           -3.628530759666    -4.140653790258     0.284796733059    12.000000000000
         C           -2.320617759666    -3.842142790258    -0.113914266941    12.000000000000
         C           -1.999515759666    -2.508992790258    -0.391858266941    12.000000000000
         C           -2.998355759666    -1.529913790258    -0.263500266941    12.000000000000
         N           -0.708726759666    -2.024466790258    -0.791277266941    14.003074004430
         C            0.518919240334    -2.643400790258    -0.853465266941    12.000000000000
         C            1.763274240334    -1.814774790258    -1.137910266941    12.000000000000
         C            2.961470240334    -2.530450790258    -1.315657266941    12.000000000000
         C            4.159102240334    -1.867124790258    -1.590471266941    12.000000000000
         C            4.217045240334    -0.464429790258    -1.687936266941    12.000000000000
         C            3.012404240334     0.243017209742    -1.520340266941    12.000000000000
         C            1.808009240334    -0.413359790258    -1.252368266941    12.000000000000
         C            5.541788240334     0.255630209742    -1.946066266941    12.000000000000
         N            6.384422240334     0.668923209742    -0.810736266941    14.003074004430
         C            7.070384240334    -0.375809790258    -0.015662266941    12.000000000000
         C            6.304056240334    -0.832273790258     1.253037733059    12.000000000000
         N            5.898740240334     0.279337209742     2.146276733059    14.003074004430
         C            6.923064240334     0.787861209742     3.066671733059    12.000000000000
         C            5.163520240334     1.287537209742     1.345528733059    12.000000000000
         C            5.917538240334     1.760031209742     0.075163733059    12.000000000000
         O            0.626484240334    -3.852062790258    -0.702138266941    15.994914619570
         C           -6.017658759666    -3.616734790258     0.909921733059    12.000000000000
         H           -0.926994759666     6.100538209742    -0.196265266941     1.007825032230
         H           -3.230658759666     5.283161209742     0.240954733059     1.007825032230
         H           -1.601237759666     1.272686209742     0.222167733059     1.007825032230
         H            0.931340240334     4.426526209742    -0.442542266941     1.007825032230
         H           -5.252371759666     4.361802209742     0.811179733059     1.007825032230
         H           -7.334063759666     2.978174209742     1.036221733059     1.007825032230
         H           -6.243326759666    -1.096289790258     0.497376733059     1.007825032230
         H           -3.856512759666    -5.187242790258     0.484465733059     1.007825032230
         H           -1.564645759666    -4.612236790258    -0.200396266941     1.007825032230
         H           -2.764303759666    -0.505403790258    -0.499319266941     1.007825032230
         H           -0.700947759666    -1.043531790258    -1.026013266941     1.007825032230
         H            2.941815240334    -3.614605790258    -1.232978266941     1.007825032230
         H            5.067911240334    -2.455831790258    -1.711947266941     1.007825032230
         H            3.010231240334     1.331098209742    -1.580096266941     1.007825032230
         H            0.909704240334     0.179154209742    -1.101468266941     1.007825032230
         H            6.162786240334    -0.390324790258    -2.583019266941     1.007825032230
         H            5.329306240334     1.163135209742    -2.528564266941     1.007825032230
         H            7.332741240334    -1.293444790258    -0.691213266941     1.007825032230
         H            8.354001240334     0.191088209742     0.423022733059     1.007825032230
         H            6.994944240334    -1.657426790258     1.911271733059     1.007825032230
         H            5.119925240334    -1.498565790258     0.866282733059     1.007825032230
         H            7.750712240334     1.249200209742     2.516373733059     1.007825032230
         H            7.319367240334    -0.029293790258     3.680882733059     1.007825032230
         H            6.488497240334     1.533855209742     3.742230733059     1.007825032230
         H            4.883385240334     2.291283209742     2.095346733059     1.007825032230
         H            3.945868240334     0.699099209742     0.969555733059     1.007825032230
         H            7.127660240334     2.492010209742     0.529207733059     1.007825032230
         H            5.282431240334     2.520566209742    -0.522852266941     1.007825032230
         H           -6.800712759666    -3.390724790258     0.172029733059     1.007825032230
         H           -6.299496759666    -3.120428790258     1.842721733059     1.007825032230
         H           -6.076934759666    -4.691728790258     1.099866733059     1.007825032230

  Running in c1 symmetry.

  Rotational constants: A =      0.00463  B =      0.00169  C =      0.00134 [cm^-1]
  Rotational constants: A =    138.73491  B =     50.61077  C =     40.22443 [MHz]
  Nuclear repulsion = 3699.632002559892499

  Charge       = 0
  Multiplicity = 1
  Electrons    = 262
  Nalpha       = 131
  Nbeta        = 131

  ==> Algorithm <==

  SCF Algorithm Type is DF.
  DIIS enabled.
  MOM disabled.
  Fractional occupation disabled.
  Guess Type is SAD.
  Energy threshold   = 1.00e-08
  Density threshold  = 1.00e-08
  Integral threshold = 0.00e+00

  ==> Primary Basis <==

  Basis Set: 6-311+G*
    Blend: 6-311+G*
    Number of shells: 463
    Number of basis function: 907
    Number of Cartesian functions: 944
    Spherical Harmonics?: true
    Max angular momentum: 2

   => Loading Basis Set <=

    Name: (6-311+G* AUX)
    Role: JKFIT
    Keyword: DF_BASIS_SCF
    atoms 1-4, 6-9, 11, 14-19, 21-28, 30-31, 33-35, 37 entry C          line   200 file /home/bdw2292/miniconda3/envs/p4env/share/psi4/basis/heavy-aug-cc-pvtz-jkfit.gbs 
    atoms 5, 10, 12-13, 20, 29, 32                     entry N          line   262 file /home/bdw2292/miniconda3/envs/p4env/share/psi4/basis/heavy-aug-cc-pvtz-jkfit.gbs 
    atoms 36                                           entry O          line   324 file /home/bdw2292/miniconda3/envs/p4env/share/psi4/basis/heavy-aug-cc-pvtz-jkfit.gbs 
    atoms 38-68                                        entry H          line   116 file /home/bdw2292/miniconda3/envs/p4env/share/psi4/basis/heavy-aug-cc-pvtz-jkfit.gbs 

  ==> Pre-Iterations <==

   -------------------------------------------------------
    Irrep   Nso     Nmo     Nalpha   Nbeta   Ndocc  Nsocc
   -------------------------------------------------------
     A        907     907       0       0       0       0
   -------------------------------------------------------
    Total     907     907     131     131     131       0
   -------------------------------------------------------

  ==> Integral Setup <==

  ==> DiskDFJK: Density-Fitted J/K Matrices <==

    J tasked:                  Yes
    K tasked:                  Yes
    wK tasked:                  No
    OpenMP threads:              6
    Integrals threads:           6
    Memory [MiB]:            14305
    Algorithm:                Core
    Integral Cache:           NONE
    Schwarz Cutoff:          1E-12
    Fitting Condition:       1E-10

   => Auxiliary Basis Set <=

  Basis Set: (6-311+G* AUX)
    Blend: HEAVY-AUG-CC-PVTZ-JKFIT
    Number of shells: 1420
    Number of basis function: 4778
    Number of Cartesian functions: 5932
    Spherical Harmonics?: true
    Max angular momentum: 4

  Minimum eigenvalue in the overlap matrix is 1.0694670314E-07.
  Using Symmetric Orthogonalization.

  SCF Guess: Superposition of Atomic Densities via on-the-fly atomic UHF.

  ==> Iterations <==

                           Total Energy        Delta E     RMS |[F,P]|

   @DF-RHF iter SAD: -1571.06066254356074   -1.57106e+03   0.00000e+00 
   @DF-RHF iter   1: -1571.34719300887286   -2.86530e-01   1.37294e-03 DIIS
   @DF-RHF iter   2: -1572.10325237555162   -7.56059e-01   7.21993e-04 DIIS
   @DF-RHF iter   3: -1572.29145461835697   -1.88202e-01   1.85088e-04 DIIS
   @DF-RHF iter   4: -1572.30782957442716   -1.63750e-02   7.31429e-05 DIIS
   @DF-RHF iter   5: -1572.31027631410507   -2.44674e-03   1.50640e-05 DIIS
   @DF-RHF iter   6: -1572.31042304957418   -1.46735e-04   6.60941e-06 DIIS
   @DF-RHF iter   7: -1572.31045726385150   -3.42143e-05   2.18866e-06 DIIS
   @DF-RHF iter   8: -1572.31046273316701   -5.46932e-06   8.75860e-07 DIIS
   @DF-RHF iter   9: -1572.31046367510248   -9.41935e-07   3.69105e-07 DIIS
   @DF-RHF iter  10: -1572.31046387383230   -1.98730e-07   1.67172e-07 DIIS
   @DF-RHF iter  11: -1572.31046391630343   -4.24711e-08   8.01253e-08 DIIS
   @DF-RHF iter  12: -1572.31046392778148   -1.14781e-08   3.13413e-08 DIIS
   @DF-RHF iter  13: -1572.31046392990129   -2.11980e-09   1.36368e-08 DIIS
   @DF-RHF iter  14: -1572.31046393004021   -1.38925e-10   6.42174e-09 DIIS
  Energy and wave function converged.


  ==> Post-Iterations <==

    Orbital Energies [Eh]
    ---------------------

    Doubly Occupied:                                                      

       1A    -20.518394     2A    -15.603841     3A    -15.602275  
       4A    -15.587032     5A    -15.573256     6A    -15.568598  
       7A    -15.568316     8A    -15.553569     9A    -11.374519  
      10A    -11.365571    11A    -11.334725    12A    -11.314073  
      13A    -11.308923    14A    -11.307821    15A    -11.305682  
      16A    -11.303521    17A    -11.301959    18A    -11.301315  
      19A    -11.300955    20A    -11.293418    21A    -11.290318  
      22A    -11.280599    23A    -11.277719    24A    -11.266471  
      25A    -11.258398    26A    -11.257160    27A    -11.256988  
      28A    -11.252951    29A    -11.247667    30A    -11.246490  
      31A    -11.246281    32A    -11.245366    33A    -11.243658  
      34A    -11.239354    35A    -11.233757    36A    -11.231580  
      37A    -11.224238    38A     -1.385737    39A     -1.345057  
      40A     -1.278820    41A     -1.249952    42A     -1.243759  
      43A     -1.241232    44A     -1.209459    45A     -1.198235  
      46A     -1.161218    47A     -1.139609    48A     -1.116371  
      49A     -1.075482    50A     -1.058827    51A     -1.048634  
      52A     -1.037933    53A     -1.023143    54A     -1.007617  
      55A     -0.991783    56A     -0.975824    57A     -0.946213  
      58A     -0.927281    59A     -0.926528    60A     -0.901074  
      61A     -0.873131    62A     -0.865581    63A     -0.858264  
      64A     -0.842133    65A     -0.834756    66A     -0.826854  
      67A     -0.824906    68A     -0.804845    69A     -0.778578  
      70A     -0.755309    71A     -0.741291    72A     -0.731230  
      73A     -0.722994    74A     -0.700188    75A     -0.694799  
      76A     -0.683386    77A     -0.673786    78A     -0.667697  
      79A     -0.658534    80A     -0.655280    81A     -0.652287  
      82A     -0.641949    83A     -0.635817    84A     -0.630845  
      85A     -0.622646    86A     -0.617011    87A     -0.611875  
      88A     -0.607633    89A     -0.603596    90A     -0.602666  
      91A     -0.600346    92A     -0.596528    93A     -0.593152  
      94A     -0.590465    95A     -0.586197    96A     -0.581056  
      97A     -0.579463    98A     -0.574240    99A     -0.564374  
     100A     -0.561746   101A     -0.548659   102A     -0.545245  
     103A     -0.532175   104A     -0.524449   105A     -0.523208  
     106A     -0.521637   107A     -0.513578   108A     -0.509887  
     109A     -0.505704   110A     -0.504537   111A     -0.504142  
     112A     -0.493201   113A     -0.485465   114A     -0.480456  
     115A     -0.459753   116A     -0.451743   117A     -0.442972  
     118A     -0.433008   119A     -0.427871   120A     -0.425045  
     121A     -0.414367   122A     -0.405624   123A     -0.400276  
     124A     -0.380416   125A     -0.373405   126A     -0.346672  
     127A     -0.345428   128A     -0.339870   129A     -0.314740  
     130A     -0.311114   131A     -0.289138  

    Virtual:                                                              

     132A      0.042469   133A      0.047461   134A      0.054611  
     135A      0.061706   136A      0.065372   137A      0.069765  
     138A      0.071777   139A      0.072096   140A      0.074655  
     141A      0.079457   142A      0.081005   143A      0.081638  
     144A      0.084171   145A      0.088438   146A      0.091160  
     147A      0.091757   148A      0.095793   149A      0.096615  
     150A      0.100618   151A      0.102878   152A      0.103763  
     153A      0.105827   154A      0.109354   155A      0.109931  
     156A      0.114576   157A      0.115732   158A      0.116476  
     159A      0.119361   160A      0.125231   161A      0.127208  
     162A      0.127750   163A      0.130382   164A      0.132219  
     165A      0.136102   166A      0.137191   167A      0.139104  
     168A      0.141201   169A      0.144201   170A      0.146395  
     171A      0.149191   172A      0.150785   173A      0.153705  
     174A      0.159051   175A      0.160095   176A      0.163214  
     177A      0.164836   178A      0.166513   179A      0.168807  
     180A      0.172045   181A      0.173435   182A      0.177657  
     183A      0.178432   184A      0.181302   185A      0.185193  
     186A      0.187497   187A      0.190445   188A      0.191688  
     189A      0.195893   190A      0.197417   191A      0.199077  
     192A      0.200752   193A      0.205875   194A      0.207606  
     195A      0.211915   196A      0.213518   197A      0.215051  
     198A      0.215640   199A      0.221323   200A      0.225433  
     201A      0.227034   202A      0.228498   203A      0.229102  
     204A      0.231087   205A      0.234112   206A      0.236781  
     207A      0.238225   208A      0.242773   209A      0.243111  
     210A      0.248031   211A      0.249295   212A      0.250537  
     213A      0.254804   214A      0.257206   215A      0.259929  
     216A      0.261464   217A      0.263845   218A      0.266812  
     219A      0.267573   220A      0.271725   221A      0.272916  
     222A      0.273176   223A      0.277512   224A      0.279149  
     225A      0.281805   226A      0.282922   227A      0.284953  
     228A      0.287259   229A      0.289983   230A      0.292323  
     231A      0.294691   232A      0.295238   233A      0.298452  
     234A      0.301844   235A      0.303914   236A      0.306456  
     237A      0.306999   238A      0.307515   239A      0.309283  
     240A      0.311197   241A      0.313756   242A      0.316225  
     243A      0.317876   244A      0.322449   245A      0.324082  
     246A      0.327777   247A      0.328156   248A      0.328897  
     249A      0.330515   250A      0.332339   251A      0.334862  
     252A      0.336213   253A      0.338417   254A      0.339639  
     255A      0.341551   256A      0.343431   257A      0.344822  
     258A      0.347065   259A      0.350151   260A      0.352032  
     261A      0.353769   262A      0.356511   263A      0.357377  
     264A      0.360253   265A      0.362411   266A      0.363829  
     267A      0.365514   268A      0.367224   269A      0.367432  
     270A      0.370184   271A      0.374224   272A      0.375808  
     273A      0.376965   274A      0.379263   275A      0.380839  
     276A      0.381341   277A      0.383546   278A      0.386916  
     279A      0.387944   280A      0.389361   281A      0.392430  
     282A      0.392626   283A      0.397437   284A      0.398731  
     285A      0.400432   286A      0.401434   287A      0.402569  
     288A      0.406544   289A      0.407537   290A      0.408978  
     291A      0.411461   292A      0.413792   293A      0.414179  
     294A      0.415963   295A      0.417312   296A      0.420293  
     297A      0.422756   298A      0.425258   299A      0.427058  
     300A      0.429307   301A      0.433125   302A      0.435543  
     303A      0.440291   304A      0.443475   305A      0.445360  
     306A      0.448634   307A      0.450748   308A      0.453275  
     309A      0.453597   310A      0.454924   311A      0.458636  
     312A      0.462078   313A      0.464688   314A      0.467249  
     315A      0.470237   316A      0.474110   317A      0.475617  
     318A      0.477287   319A      0.479770   320A      0.483827  
     321A      0.486536   322A      0.491114   323A      0.496754  
     324A      0.499744   325A      0.506229   326A      0.508630  
     327A      0.510592   328A      0.513650   329A      0.515179  
     330A      0.521121   331A      0.523955   332A      0.527908  
     333A      0.530460   334A      0.533666   335A      0.538063  
     336A      0.540027   337A      0.544640   338A      0.547314  
     339A      0.556296   340A      0.558929   341A      0.564034  
     342A      0.567156   343A      0.572671   344A      0.577003  
     345A      0.577744   346A      0.584791   347A      0.590100  
     348A      0.591239   349A      0.596041   350A      0.607812  
     351A      0.608620   352A      0.616125   353A      0.621341  
     354A      0.626104   355A      0.636308   356A      0.639729  
     357A      0.648411   358A      0.657935   359A      0.662408  
     360A      0.666411   361A      0.679591   362A      0.681208  
     363A      0.685378   364A      0.697235   365A      0.699003  
     366A      0.700918   367A      0.705998   368A      0.713849  
     369A      0.717674   370A      0.719398   371A      0.725143  
     372A      0.727101   373A      0.731649   374A      0.738917  
     375A      0.741216   376A      0.742667   377A      0.752420  
     378A      0.755434   379A      0.756550   380A      0.759841  
     381A      0.760328   382A      0.761237   383A      0.769217  
     384A      0.769607   385A      0.772648   386A      0.774639  
     387A      0.785536   388A      0.787361   389A      0.792921  
     390A      0.795341   391A      0.797437   392A      0.801741  
     393A      0.804228   394A      0.806638   395A      0.813371  
     396A      0.817963   397A      0.818815   398A      0.828430  
     399A      0.832549   400A      0.835308   401A      0.837061  
     402A      0.844070   403A      0.844646   404A      0.848408  
     405A      0.849923   406A      0.854387   407A      0.855449  
     408A      0.863182   409A      0.866204   410A      0.868667  
     411A      0.870155   412A      0.876623   413A      0.878926  
     414A      0.884687   415A      0.886902   416A      0.890837  
     417A      0.895155   418A      0.899771   419A      0.901200  
     420A      0.903473   421A      0.906305   422A      0.908286  
     423A      0.912333   424A      0.917532   425A      0.918118  
     426A      0.919451   427A      0.921041   428A      0.922080  
     429A      0.926545   430A      0.928894   431A      0.930908  
     432A      0.937802   433A      0.940957   434A      0.945159  
     435A      0.945858   436A      0.947985   437A      0.952133  
     438A      0.955727   439A      0.960953   440A      0.962843  
     441A      0.965999   442A      0.968171   443A      0.973209  
     444A      0.975771   445A      0.985197   446A      0.987331  
     447A      0.990597   448A      0.993076   449A      0.997670  
     450A      1.000014   451A      1.004091   452A      1.005223  
     453A      1.020357   454A      1.024853   455A      1.027931  
     456A      1.032336   457A      1.036076   458A      1.041665  
     459A      1.043615   460A      1.051372   461A      1.053979  
     462A      1.059536   463A      1.064582   464A      1.069967  
     465A      1.072009   466A      1.077086   467A      1.084736  
     468A      1.090208   469A      1.100651   470A      1.106883  
     471A      1.111579   472A      1.112536   473A      1.117980  
     474A      1.125245   475A      1.130113   476A      1.132378  
     477A      1.134299   478A      1.141184   479A      1.143826  
     480A      1.145342   481A      1.149905   482A      1.153972  
     483A      1.161386   484A      1.165189   485A      1.169157  
     486A      1.170057   487A      1.173838   488A      1.175374  
     489A      1.183969   490A      1.187349   491A      1.191882  
     492A      1.193347   493A      1.201253   494A      1.202712  
     495A      1.204321   496A      1.213906   497A      1.221088  
     498A      1.222983   499A      1.230088   500A      1.232444  
     501A      1.235763   502A      1.240168   503A      1.243574  
     504A      1.250088   505A      1.258382   506A      1.262279  
     507A      1.263804   508A      1.268465   509A      1.271076  
     510A      1.274185   511A      1.278963   512A      1.283198  
     513A      1.285655   514A      1.289668   515A      1.296496  
     516A      1.300692   517A      1.303341   518A      1.311894  
     519A      1.313895   520A      1.325144   521A      1.332560  
     522A      1.336316   523A      1.338841   524A      1.343949  
     525A      1.356079   526A      1.364442   527A      1.377615  
     528A      1.383041   529A      1.385822   530A      1.391480  
     531A      1.401901   532A      1.413350   533A      1.433185  
     534A      1.435582   535A      1.442081   536A      1.445510  
     537A      1.450286   538A      1.454574   539A      1.460377  
     540A      1.461280   541A      1.470137   542A      1.472672  
     543A      1.478637   544A      1.480983   545A      1.484940  
     546A      1.493712   547A      1.502418   548A      1.514867  
     549A      1.534519   550A      1.539022   551A      1.548013  
     552A      1.548638   553A      1.562285   554A      1.570600  
     555A      1.582395   556A      1.587426   557A      1.592635  
     558A      1.600604   559A      1.614702   560A      1.623534  
     561A      1.638283   562A      1.645557   563A      1.651922  
     564A      1.664335   565A      1.671138   566A      1.694642  
     567A      1.705963   568A      1.716133   569A      1.716498  
     570A      1.739719   571A      1.745579   572A      1.754381  
     573A      1.774135   574A      1.775050   575A      1.781476  
     576A      1.791141   577A      1.799465   578A      1.807332  
     579A      1.810419   580A      1.817301   581A      1.821225  
     582A      1.828334   583A      1.830436   584A      1.833305  
     585A      1.841268   586A      1.851160   587A      1.854465  
     588A      1.856953   589A      1.860464   590A      1.863628  
     591A      1.864894   592A      1.869286   593A      1.873153  
     594A      1.875315   595A      1.879576   596A      1.890377  
     597A      1.894289   598A      1.896814   599A      1.922627  
     600A      1.928968   601A      1.935206   602A      1.940521  
     603A      1.946733   604A      1.964434   605A      1.966753  
     606A      1.971689   607A      1.990637   608A      1.997571  
     609A      2.008664   610A      2.013077   611A      2.031325  
     612A      2.033326   613A      2.039527   614A      2.042368  
     615A      2.044802   616A      2.062728   617A      2.073910  
     618A      2.075245   619A      2.084067   620A      2.088873  
     621A      2.090269   622A      2.092303   623A      2.097683  
     624A      2.111544   625A      2.116201   626A      2.123279  
     627A      2.142895   628A      2.144419   629A      2.152323  
     630A      2.158114   631A      2.174331   632A      2.175013  
     633A      2.182214   634A      2.188744   635A      2.192839  
     636A      2.206240   637A      2.211273   638A      2.217414  
     639A      2.220548   640A      2.225360   641A      2.231061  
     642A      2.236925   643A      2.240655   644A      2.243387  
     645A      2.248883   646A      2.254584   647A      2.256494  
     648A      2.259203   649A      2.261211   650A      2.270516  
     651A      2.274996   652A      2.279829   653A      2.289386  
     654A      2.300601   655A      2.305888   656A      2.311137  
     657A      2.367026   658A      2.373757   659A      2.378702  
     660A      2.392555   661A      2.405229   662A      2.421756  
     663A      2.429351   664A      2.439548   665A      2.457694  
     666A      2.471878   667A      2.497696   668A      2.504683  
     669A      2.511590   670A      2.522724   671A      2.538618  
     672A      2.550629   673A      2.555378   674A      2.568791  
     675A      2.598070   676A      2.622149   677A      2.634493  
     678A      2.635310   679A      2.646669   680A      2.653089  
     681A      2.657886   682A      2.661472   683A      2.662974  
     684A      2.669685   685A      2.672772   686A      2.678425  
     687A      2.683037   688A      2.687255   689A      2.694122  
     690A      2.699114   691A      2.705715   692A      2.724897  
     693A      2.740131   694A      2.766965   695A      2.770327  
     696A      2.773219   697A      2.782763   698A      2.784120  
     699A      2.800751   700A      2.801782   701A      2.826525  
     702A      2.832962   703A      2.841899   704A      2.858482  
     705A      2.860681   706A      2.875493   707A      2.878374  
     708A      2.886434   709A      2.889751   710A      2.906160  
     711A      2.909928   712A      2.916070   713A      2.932863  
     714A      2.938020   715A      2.940181   716A      2.953573  
     717A      2.959183   718A      2.982843   719A      2.983760  
     720A      2.993112   721A      3.006614   722A      3.013901  
     723A      3.017024   724A      3.034566   725A      3.036018  
     726A      3.040636   727A      3.043006   728A      3.046544  
     729A      3.055508   730A      3.056045   731A      3.073764  
     732A      3.080502   733A      3.087755   734A      3.090293  
     735A      3.097858   736A      3.110172   737A      3.138349  
     738A      3.147467   739A      3.150672   740A      3.153390  
     741A      3.158773   742A      3.175263   743A      3.177842  
     744A      3.185477   745A      3.191356   746A      3.210686  
     747A      3.213696   748A      3.221490   749A      3.226371  
     750A      3.235421   751A      3.236589   752A      3.242235  
     753A      3.255881   754A      3.264864   755A      3.281363  
     756A      3.289780   757A      3.293902   758A      3.304536  
     759A      3.316171   760A      3.330859   761A      3.336882  
     762A      3.338163   763A      3.343338   764A      3.360383  
     765A      3.364444   766A      3.366301   767A      3.378867  
     768A      3.384501   769A      3.389440   770A      3.396263  
     771A      3.413363   772A      3.420631   773A      3.431634  
     774A      3.435527   775A      3.471086   776A      3.495901  
     777A      3.500050   778A      3.528151   779A      3.541797  
     780A      3.561078   781A      3.565645   782A      3.568586  
     783A      3.571604   784A      3.595157   785A      3.600264  
     786A      3.624283   787A      3.636996   788A      3.640910  
     789A      3.654093   790A      3.681291   791A      3.688564  
     792A      3.699141   793A      3.705252   794A      3.718148  
     795A      3.722534   796A      3.727393   797A      3.741570  
     798A      3.742748   799A      3.760822   800A      3.763506  
     801A      3.769840   802A      3.774797   803A      3.778320  
     804A      3.782640   805A      3.786365   806A      3.804648  
     807A      3.808927   808A      3.817217   809A      3.823608  
     810A      3.831501   811A      3.855998   812A      3.857612  
     813A      3.870210   814A      3.875937   815A      3.900247  
     816A      3.911764   817A      3.924364   818A      3.936319  
     819A      3.968102   820A      3.996970   821A      4.026382  
     822A      4.035794   823A      4.052021   824A      4.082544  
     825A      4.083077   826A      4.104539   827A      4.112191  
     828A      4.133156   829A      4.163450   830A      4.183035  
     831A      4.233632   832A      4.288954   833A      4.343931  
     834A      4.360134   835A      4.386837   836A      4.395548  
     837A      4.403698   838A      4.408962   839A      4.413932  
     840A      4.418986   841A      4.438914   842A      4.470264  
     843A      4.480408   844A      4.494596   845A      4.529419  
     846A      4.546020   847A      4.595254   848A      4.617435  
     849A      4.683624   850A      4.768941   851A      4.848392  
     852A      4.869906   853A      4.949852   854A      4.991251  
     855A      5.018771   856A      5.051194   857A      5.099085  
     858A      5.186837   859A      5.211048   860A      5.223101  
     861A      5.244709   862A      5.274563   863A      5.343727  
     864A      5.599362   865A      5.643698   866A      5.664951  
     867A      5.768650   868A      5.829573   869A      5.872777  
     870A      6.389549   871A     24.555720   872A     24.599588  
     873A     24.633497   874A     24.677985   875A     24.719724  
     876A     24.721135   877A     24.793756   878A     24.805101  
     879A     24.812376   880A     24.874893   881A     24.895433  
     882A     24.970137   883A     24.996605   884A     25.011055  
     885A     25.012303   886A     25.022046   887A     25.039590  
     888A     25.056882   889A     25.068762   890A     25.087570  
     891A     25.130010   892A     25.151215   893A     25.173500  
     894A     25.182758   895A     25.193451   896A     25.199883  
     897A     25.202786   898A     25.274399   899A     25.278516  
     900A     36.918766   901A     36.944211   902A     36.973101  
     903A     37.007852   904A     37.041296   905A     37.097232  
     906A     37.140446   907A     51.771443  

    Final Occupation by Irrep:
              A 
    DOCC [   131 ]

  @DF-RHF Final Energy: -1572.31046393004021

   => Energetics <=

    Nuclear Repulsion Energy =           3699.6320025598924985
    One-Electron Energy =               -9497.5294126421049441
    Two-Electron Energy =                4225.5869461521724588
    Total Energy =                      -1572.3104639300399867

Computation Completed


Properties will be evaluated at   0.000000,   0.000000,   0.000000 [a0]

Properties computed using the SCF density matrix

  Nuclear Dipole Moment: [e a0]
     X:    39.6713      Y:     3.2401      Z:     8.2641

  Electronic Dipole Moment: [e a0]
     X:   -40.5751      Y:    -0.6654      Z:    -8.3339

  Dipole Moment: [e a0]
     X:    -0.9038      Y:     2.5747      Z:    -0.0699     Total:     2.7296

  Dipole Moment: [D]
     X:    -2.2972      Y:     6.5442      Z:    -0.1776     Total:     6.9380


*** tstop() called on node42.bme.utexas.edu at Fri Apr 24 12:09:21 2020
Module time:
	user time   =    3351.00 seconds =      55.85 minutes
	system time =      22.82 seconds =       0.38 minutes
	total time  =        601 seconds =      10.02 minutes
Total time:
	user time   =    3351.00 seconds =      55.85 minutes
	system time =      22.82 seconds =       0.38 minutes
	total time  =        601 seconds =      10.02 minutes

*** tstart() called on node42.bme.utexas.edu
*** at Fri Apr 24 12:09:21 2020


  //>>>>>>>>>>>>>>>>>>>>>>>>>>>>>>>>>>>//
  //               DFMP2               //
  //<<<<<<<<<<<<<<<<<<<<<<<<<<<<<<<<<<<//

   => Loading Basis Set <=

    Name: (6-311+G* AUX)
    Role: RIFIT
    Keyword: DF_BASIS_MP2
    atoms 1-4, 6-9, 11, 14-19, 21-28, 30-31, 33-35, 37 entry C          line   148 file /home/bdw2292/miniconda3/envs/p4env/share/psi4/basis/heavy-aug-cc-pvtz-ri.gbs 
    atoms 5, 10, 12-13, 20, 29, 32                     entry N          line   206 file /home/bdw2292/miniconda3/envs/p4env/share/psi4/basis/heavy-aug-cc-pvtz-ri.gbs 
    atoms 36                                           entry O          line   264 file /home/bdw2292/miniconda3/envs/p4env/share/psi4/basis/heavy-aug-cc-pvtz-ri.gbs 
    atoms 38-68                                        entry H          line    44 file /home/bdw2292/miniconda3/envs/p4env/share/psi4/basis/heavy-aug-cc-pvtz-ri.gbs 

	 --------------------------------------------------------
	                          DF-MP2                         
	      2nd-Order Density-Fitted Moller-Plesset Theory     
	              RMP2 Wavefunction,   6 Threads             
	                                                         
	        Rob Parrish, Justin Turney, Andy Simmonett,      
	           Ed Hohenstein, and C. David Sherrill          
	 --------------------------------------------------------

   => Auxiliary Basis Set <=

  Basis Set: (6-311+G* AUX)
    Blend: HEAVY-AUG-CC-PVTZ-RI
    Number of shells: 1346
    Number of basis function: 4852
    Number of Cartesian functions: 6117
    Spherical Harmonics?: true
    Max angular momentum: 4

	 --------------------------------------------------------
	                 NBF =   907, NAUX =  4852
	 --------------------------------------------------------
	   CLASS    FOCC     OCC    AOCC    AVIR     VIR    FVIR
	   PAIRS      37     131      94     776     776       0
	 --------------------------------------------------------

	-----------------------------------------------------------
	 ==================> DF-MP2 Energies <==================== 
	-----------------------------------------------------------
	 Reference Energy          =   -1572.3104639300402141 [Eh]
	 Singles Energy            =      -0.0000000000000000 [Eh]
	 Same-Spin Energy          =      -1.4481763461585990 [Eh]
	 Opposite-Spin Energy      =      -3.8915378735852268 [Eh]
	 Correlation Energy        =      -5.3397142197438257 [Eh]
	 Total Energy              =   -1577.6501781497840966 [Eh]
	-----------------------------------------------------------
	 ================> DF-SCS-MP2 Energies <================== 
	-----------------------------------------------------------
	 SCS Same-Spin Scale       =       0.3333333333333333 [-]
	 SCS Opposite-Spin Scale   =       1.2000000000000000 [-]
	 SCS Same-Spin Energy      =      -0.4827254487195330 [Eh]
	 SCS Opposite-Spin Energy  =      -4.6698454483022722 [Eh]
	 SCS Correlation Energy    =      -5.1525708970218052 [Eh]
	 SCS Total Energy          =   -1577.4630348270620743 [Eh]
	-----------------------------------------------------------


*** tstop() called on node42.bme.utexas.edu at Fri Apr 24 12:14:49 2020
Module time:
	user time   =    1824.36 seconds =      30.41 minutes
	system time =      14.91 seconds =       0.25 minutes
	total time  =        328 seconds =       5.47 minutes
Total time:
	user time   =    5175.36 seconds =      86.26 minutes
	system time =      37.73 seconds =       0.63 minutes
	total time  =        929 seconds =      15.48 minutes


Properties will be evaluated at   0.000000,   0.000000,   0.000000 [a0]
OEProp: No title given, name of density matrix used for the following properties is 'SCF density'


  Wiberg Bond Indices using Orthogonal Lowdin Orbitals:

  Irrep: 1 Size: 68 x 68

                 1                   2                   3                   4                   5

    1     0.00000000000000     1.50998237644920     0.12957767405693     0.14764218938484     0.12913147818490
    2     1.50998237644920     0.00000000000000     1.42440118231123     0.13176019606495     0.12528633564136
    3     0.12957767405693     1.42440118231123     0.00000000000000     1.38315890595961     0.12265493287557
    4     0.14764218938484     0.13176019606495     1.38315890595961     0.00000000000000     1.68610966895738
    5     0.12913147818490     0.12528633564136     0.12265493287557     1.68610966895738     0.00000000000000
    6     1.51147590056074     0.14371353061659     0.14000065297153     0.15769473888854     1.64925089341561
    7     0.01549619038528     0.10558151810658     1.02705565804722     0.10668501138044     0.01453689773149
    8     0.00404028332006     0.04603371966671     0.10079446647290     0.02496774110625     0.00237990183356
    9     0.00045200967669     0.00518710908528     0.01546683924177     0.00434020727199     0.00074214267209
   10     0.00044986098318     0.00557439708594     0.00599765934652     0.00626224935388     0.00034967292658
   11     0.00095341402954     0.00353796018988     0.01845364986658     0.00734419979096     0.00049527259156
   12     0.00300006794776     0.02265140511782     0.12065923086310     0.06477504385425     0.00429306803086
   13     0.00018551244083     0.00054009042421     0.00171626614218     0.00095960737747     0.00009775116591
   14     0.00004336568184     0.00012082174908     0.00062187550173     0.00140846737221     0.00011900065499
   15     0.00001420224522     0.00003124515318     0.00009013553419     0.00018505228157     0.00002055974136
   16     0.00000372317748     0.00000840814649     0.00005400054980     0.00025727284768     0.00001367942302
   17     0.00001474781000     0.00002401213489     0.00007044719351     0.00032340950356     0.00004135938512
   18     0.00003582530804     0.00006597082893     0.00032069895112     0.00192048407151     0.00020831238299
   19     0.00020895842868     0.00029573277738     0.00217560815525     0.01155987893564     0.00060685496370
   20     0.00005599518664     0.00007922588223     0.00035213254672     0.00326004406334     0.00045598540810
   21     0.00001542807494     0.00001686535620     0.00005765129063     0.00042399762389     0.00017189451509
   22     0.00005040228649     0.00003246454609     0.00004602172523     0.00054877331757     0.00131331307993
   23     0.00000941802834     0.00000538368901     0.00001199157508     0.00015010213843     0.00041779304565
   24     0.00000908783102     0.00000435119873     0.00000992868643     0.00012780550540     0.00035070753690
   25     0.00001222548007     0.00000818235992     0.00001597156191     0.00010487498087     0.00031099274732
   26     0.00015237818866     0.00014696451424     0.00020928612213     0.00081529746477     0.00674998456030
   27     0.00046283566294     0.00031467764763     0.00037501170733     0.00562625646841     0.01822116171634
   28     0.00000278619733     0.00000161874445     0.00000278743454     0.00002233963526     0.00004234612880
   29     0.00000138811479     0.00000053700699     0.00000126292959     0.00001080432555     0.00001496618287
   30     0.00000152433333     0.00000058256670     0.00000082740217     0.00000491935473     0.00000988563780
   31     0.00000238583740     0.00000065598967     0.00000177628309     0.00000532034893     0.00001376680025
   32     0.00000165956199     0.00000075491109     0.00000114587270     0.00001787848625     0.00001474970202
   33     0.00000130942707     0.00000035658397     0.00000045949515     0.00000289488810     0.00000442153430
   34     0.00002159343430     0.00002901471977     0.00002351184869     0.00002382830418     0.00006421836694
   35     0.00001480577352     0.00000925837882     0.00000672618547     0.00002010288846     0.00005063225909
   36     0.00000201253822     0.00000312150034     0.00001630666670     0.00019801637960     0.00004948654009
   37     0.00000374612679     0.00001123000770     0.00004978393115     0.00005615416126     0.00000435332258
   38     0.84216118011163     0.05680008087776     0.00960228699384     0.00272216767388     0.00790563788950
   39     0.05352462708371     0.82966949169902     0.05219277475525     0.00959791682671     0.00126763182330
   40     0.00207913127497     0.00824191071001     0.04960515614453     0.81052048906799     0.06247164454378
   41     0.05494485116040     0.00972555069985     0.00258974321554     0.01283422170432     0.06464929822932
   42     0.00073653030605     0.01057849023095     0.01116067429289     0.00056949147114     0.00016405566240
   43     0.00003699157711     0.00020728758940     0.00109541634859     0.00026341340326     0.00006379725981
   44     0.00001360278161     0.00004984743461     0.00023453273590     0.00004270646795     0.00000606650900
   45     0.00000068025956     0.00000168479809     0.00000854838055     0.00002000183949     0.00000195567785
   46     0.00000118175094     0.00000211863482     0.00000717558520     0.00002501033846     0.00000755898945
   47     0.00005516477159     0.00007690240855     0.00137880220437     0.00548634444907     0.00031364841428
   48     0.00003029450177     0.00002970015528     0.00011807281054     0.00122191857683     0.00029045994577
   49     0.00000145820706     0.00000091796853     0.00000121844113     0.00000604234784     0.00002695576098
   50     0.00000124142140     0.00000076268604     0.00000225218020     0.00001688473913     0.00001926172104
   51     0.00000725453776     0.00000658555183     0.00001478682391     0.00003611948491     0.00029754646888
   52     0.00017950406884     0.00007176752501     0.00010924310416     0.00302569694045     0.00605699494952
   53     0.00000064808424     0.00000019178555     0.00000059115262     0.00000675308631     0.00000890499078
   54     0.00000045754639     0.00000007264993     0.00000041914325     0.00000395881181     0.00000790295735
   55     0.00000014518476     0.00000007692940     0.00000008014455     0.00000050873943     0.00000168841170
   56     0.00000094231960     0.00000015312205     0.00000034295731     0.00000179817709     0.00000238114618
   57     0.00000007431421     0.00000003835256     0.00000007686784     0.00000024612004     0.00000066901941
   58     0.00000137133384     0.00000027865173     0.00000086085558     0.00000278315818     0.00000665657486
   59     0.00000037964735     0.00000010328886     0.00000016200023     0.00000025863451     0.00000091014669
   60     0.00000015020238     0.00000006773142     0.00000004462529     0.00000030169861     0.00000035184846
   61     0.00000006151025     0.00000002249064     0.00000001410625     0.00000011623052     0.00000040577032
   62     0.00000115005662     0.00000027312389     0.00000035080555     0.00000060580911     0.00000211571629
   63     0.00000083745396     0.00000093023476     0.00000215163255     0.00001199992180     0.00005781834927
   64     0.00000062557592     0.00000007623500     0.00000017883800     0.00001232495829     0.00001394873857
   65     0.00000126683294     0.00000033271638     0.00000038707991     0.00000113926481     0.00001406654566
   66     0.00000088790574     0.00000163240707     0.00001064623756     0.00000847163913     0.00000059489625
   67     0.00000071321898     0.00000145710042     0.00000644485300     0.00000962191619     0.00000042096552
   68     0.00000032534239     0.00000076415223     0.00000392562933     0.00000862138184     0.00000045334676

                 6                   7                   8                   9                  10

    1     1.51147590056074     0.01549619038528     0.00404028332006     0.00045200967669     0.00044986098318
    2     0.14371353061659     0.10558151810658     0.04603371966671     0.00518710908528     0.00557439708594
    3     0.14000065297153     1.02705565804722     0.10079446647290     0.01546683924177     0.00599765934652
    4     0.15769473888854     0.10668501138044     0.02496774110625     0.00434020727199     0.00626224935388
    5     1.64925089341561     0.01453689773149     0.00237990183356     0.00074214267209     0.00034967292658
    6     0.00000000000000     0.01018004965216     0.00731034128667     0.00128633315390     0.00345131349670
    7     0.01018004965216     0.00000000000000     1.40996912789951     0.14991083267144     0.11320442952062
    8     0.00731034128667     1.40996912789951     0.00000000000000     1.47451262490334     0.13579861147118
    9     0.00128633315390     0.14991083267144     1.47451262490334     0.00000000000000     1.68296982127865
   10     0.00345131349670     0.11320442952062     0.13579861147118     1.68296982127865     0.00000000000000
   11     0.00091592606541     0.14272540660373     0.11667617042763     0.15468770794766     1.51364996851582
   12     0.00628892459109     1.53536362758260     0.12917465711469     0.11348204174428     0.11115662378974
   13     0.00008458954160     0.01987114377570     0.02221445672445     0.02554966859003     0.16663523133486
   14     0.00005586112175     0.00305958703556     0.00263825776145     0.00346500533736     0.01760592460413
   15     0.00000822992935     0.00055783727349     0.00154922759993     0.00101740976597     0.00335155866729
   16     0.00000529145047     0.00018979713791     0.00021716544058     0.00018830307009     0.00053657201820
   17     0.00000732018748     0.00028009395885     0.00139115014986     0.00047683630137     0.00133880029414
   18     0.00005081393417     0.00058812600864     0.00029169416288     0.00016740354219     0.00046447861231
   19     0.00023305891209     0.00605532291553     0.00341811557798     0.00167229035012     0.00460909590202
   20     0.00006715851812     0.00013565813982     0.00003302106067     0.00002321479999     0.00006927117675
   21     0.00002775464373     0.00002540881474     0.00001132385624     0.00000775728627     0.00001890805991
   22     0.00015883954063     0.00000825601275     0.00000361258927     0.00000216568816     0.00000437122931
   23     0.00008890020060     0.00000352787673     0.00000151009172     0.00000071775254     0.00000134788979
   24     0.00009888706651     0.00000262275977     0.00000094060302     0.00000036939231     0.00000029685918
   25     0.00014670777235     0.00000275442429     0.00000158094645     0.00000030789493     0.00000040386821
   26     0.00115882792487     0.00002602449586     0.00001543286352     0.00000252518001     0.00000221923523
   27     0.00171139757996     0.00006334627283     0.00002038758890     0.00000595077043     0.00000428060397
   28     0.00003272421988     0.00000080691496     0.00000025770525     0.00000006558507     0.00000006796452
   29     0.00001140911019     0.00000034617572     0.00000012886964     0.00000002475369     0.00000003258484
   30     0.00002287085287     0.00000022471340     0.00000013000981     0.00000004393135     0.00000001706429
   31     0.00002095425280     0.00000070887874     0.00000016485489     0.00000006597297     0.00000002911767
   32     0.00003147293802     0.00000032078532     0.00000020676406     0.00000002888309     0.00000003295364
   33     0.00001367390715     0.00000012046675     0.00000008399368     0.00000001202291     0.00000001572962
   34     0.00007190674762     0.00000213581396     0.00000284308749     0.00000038798042     0.00000105680704
   35     0.00004262157508     0.00000154761141     0.00000045534239     0.00000008943522     0.00000017327704
   36     0.00000803807420     0.00001282731971     0.00001025365927     0.00000547090087     0.00001372999755
   37     0.00000332323358     0.00018407169650     0.00016906046308     0.00016647216120     0.00088373822270
   38     0.05965597359356     0.00092866425857     0.00017496290572     0.00003387711445     0.00001793046837
   39     0.00972076473749     0.01297695280457     0.01105430154426     0.00076797732630     0.00019126960287
   40     0.01192537380984     0.01224371689501     0.00074169212813     0.00019882908780     0.00023752556225
   41     0.84025193658828     0.00033834866238     0.00008099532865     0.00002594083439     0.00001169367488
   42     0.00021097108209     0.05541195122320     0.82742557462280     0.05776863779240     0.00716828636923
   43     0.00003563311496     0.00944131330612     0.05385522070337     0.83792151494998     0.06629318025981
   44     0.00000441433662     0.00114266503662     0.00062714528342     0.00202304658196     0.01863388448743
   45     0.00000065646732     0.00001869294596     0.00000849947716     0.00002394146169     0.00005262704991
   46     0.00000150772875     0.00001799188694     0.00000629815620     0.00000499039032     0.00001286529728
   47     0.00009119241809     0.00273506757436     0.00040805344581     0.00021977753830     0.00022006628472
   48     0.00002728754066     0.00004414467983     0.00001031169898     0.00000276725315     0.00001235999294
   49     0.00000943464863     0.00000073896997     0.00000012216106     0.00000009524659     0.00000010112340
   50     0.00000397708016     0.00000032326337     0.00000017044813     0.00000004214359     0.00000004793573
   51     0.00035378275649     0.00000141430872     0.00000078081856     0.00000010854999     0.00000021219392
   52     0.00068436643482     0.00001370418587     0.00000513504110     0.00000107341151     0.00000076972003
   53     0.00000720247155     0.00000009741008     0.00000004606362     0.00000001483361     0.00000000969325
   54     0.00000443093273     0.00000003520433     0.00000001752800     0.00000000408598     0.00000000476889
   55     0.00000171517585     0.00000001790802     0.00000001758236     0.00000000373478     0.00000000133399
   56     0.00001959991290     0.00000016943448     0.00000005555952     0.00000002434509     0.00000000420062
   57     0.00000052725918     0.00000001344787     0.00000000630763     0.00000000104506     0.00000000123127
   58     0.00001383720469     0.00000040821866     0.00000007605952     0.00000003415168     0.00000001162704
   59     0.00000440829820     0.00000002697274     0.00000001568842     0.00000000280178     0.00000000495201
   60     0.00000059280582     0.00000001526730     0.00000002570943     0.00000000088897     0.00000000143773
   61     0.00000077929375     0.00000000980385     0.00000000154531     0.00000000114633     0.00000000138103
   62     0.00001117014673     0.00000004236046     0.00000004069953     0.00000000410959     0.00000001502252
   63     0.00001814862169     0.00000038402695     0.00000009211727     0.00000001877647     0.00000001100377
   64     0.00000697396569     0.00000038353196     0.00000005967197     0.00000001113831     0.00000001169287
   65     0.00000248148546     0.00000010599875     0.00000003895849     0.00000000907516     0.00000000899028
   66     0.00000029819871     0.00003341189668     0.00006195826438     0.00001892425739     0.00010776806163
   67     0.00000037078315     0.00002757827570     0.00009374751247     0.00001685345507     0.00015454538341
   68     0.00000020590893     0.00001428156986     0.00000522214277     0.00000351442573     0.00003346008724

                11                  12                  13                  14                  15

    1     0.00095341402954     0.00300006794776     0.00018551244083     0.00004336568184     0.00001420224522
    2     0.00353796018988     0.02265140511782     0.00054009042421     0.00012082174908     0.00003124515318
    3     0.01845364986658     0.12065923086310     0.00171626614218     0.00062187550173     0.00009013553419
    4     0.00734419979096     0.06477504385425     0.00095960737747     0.00140846737221     0.00018505228157
    5     0.00049527259156     0.00429306803086     0.00009775116591     0.00011900065499     0.00002055974136
    6     0.00091592606541     0.00628892459109     0.00008458954160     0.00005586112175     0.00000822992935
    7     0.14272540660373     1.53536362758260     0.01987114377570     0.00305958703556     0.00055783727349
    8     0.11667617042763     0.12917465711469     0.02221445672445     0.00263825776145     0.00154922759993
    9     0.15468770794766     0.11348204174428     0.02554966859003     0.00346500533736     0.00101740976597
   10     1.51364996851582     0.11115662378974     0.16663523133486     0.01760592460413     0.00335155866729
   11     0.00000000000000     1.53842589950968     1.30201280090875     0.08523651230483     0.01840067857533
   12     1.53842589950968     0.00000000000000     0.14477598690552     0.03018222118826     0.00368361273240
   13     1.30201280090875     0.14477598690552     0.00000000000000     1.14974958435451     0.10908760999903
   14     0.08523651230483     0.03018222118826     1.14974958435451     0.00000000000000     1.32548906462626
   15     0.01840067857533     0.00368361273240     0.10908760999903     1.32548906462626     0.00000000000000
   16     0.00257498493378     0.00126404211189     0.01513885443342     0.12867229216024     1.46803123147162
   17     0.00435259276228     0.00263098481682     0.01285772104154     0.12371335024849     0.12870451157853
   18     0.00264572945159     0.00499360875603     0.01375178961028     0.12573353044015     0.12191864422963
   19     0.03005935870314     0.05717360665483     0.11410835953875     1.42890956865895     0.12190049127737
   20     0.00037766491817     0.00106825738074     0.00139531884757     0.01584689772686     0.01184642081883
   21     0.00008083799581     0.00013919272939     0.00033691677317     0.00291732614054     0.00584491884856
   22     0.00001647937288     0.00002061595388     0.00006706496151     0.00040342782960     0.00030975781279
   23     0.00000484610253     0.00000606949085     0.00001644413555     0.00012273523815     0.00040780463376
   24     0.00000121917192     0.00000128173634     0.00000359212699     0.00002624474742     0.00005085075104
   25     0.00000123293271     0.00000241405824     0.00000195501565     0.00003048200456     0.00023075222859
   26     0.00000315804488     0.00001174621287     0.00000388936340     0.00001766992779     0.00004338173847
   27     0.00001492263003     0.00008033365162     0.00001662099210     0.00012899159511     0.00034809276501
   28     0.00000027195679     0.00000045811566     0.00000042506859     0.00000350685962     0.00001713641275
   29     0.00000009667229     0.00000014879762     0.00000009940230     0.00000171936571     0.00001405793059
   30     0.00000008649782     0.00000011710077     0.00000007735148     0.00000063157495     0.00000223086809
   31     0.00000012082199     0.00000011638610     0.00000009490878     0.00000069307156     0.00000208725415
   32     0.00000004897278     0.00000013348973     0.00000003069978     0.00000037653506     0.00000031356875
   33     0.00000002408044     0.00000005433067     0.00000001345093     0.00000014787193     0.00000017803063
   34     0.00000038225740     0.00000206783444     0.00000019080095     0.00000078610543     0.00000196928918
   35     0.00000017410948     0.00000049553441     0.00000008005392     0.00000061317354     0.00000254505434
   36     0.00005288989586     0.00006716168251     0.00017719370867     0.00112294445843     0.00352509920553
   37     0.00424173521175     0.00095457501743     0.04275363951561     0.10106527763526     1.11492164358160
   38     0.00007151790679     0.00024901109595     0.00001153379618     0.00000717500248     0.00000081157163
   39     0.00014678422086     0.00037133053281     0.00005189802662     0.00002261801943     0.00000463359907
   40     0.00180707389384     0.01771207605883     0.00020056832402     0.00075895202401     0.00008243093583
   41     0.00002592360291     0.00009130185156     0.00000407470917     0.00000348742588     0.00000065232704
   42     0.00286218633494     0.00758243642037     0.00030508037204     0.00004385383564     0.00001440817071
   43     0.01303865669059     0.00139113635146     0.00081067808969     0.00029513309800     0.00004428845638
   44     0.04495762327629     0.00614117889312     0.79159001248891     0.03763549196387     0.00984287073156
   45     0.00033207248360     0.00004104559585     0.00088812386374     0.00938169395591     0.05406578074910
   46     0.00003816536363     0.00009462747696     0.00014101509345     0.00215361974802     0.00828014450630
   47     0.00719499053435     0.02473945627804     0.01186008031804     0.05102186325563     0.00747461237005
   48     0.00006410130061     0.00044947270208     0.00007643074371     0.00122663758144     0.00034582615457
   49     0.00000054433522     0.00000056224633     0.00000104156389     0.00001208801028     0.00000898207672
   50     0.00000015956904     0.00000008787709     0.00000062808969     0.00000300209143     0.00000151866574
   51     0.00000029616744     0.00000078202984     0.00000020625282     0.00000145837512     0.00000065506086
   52     0.00000216582087     0.00001487502377     0.00000238679934     0.00000905391233     0.00001751461435
   53     0.00000004021023     0.00000005262793     0.00000005556303     0.00000033570456     0.00000151724705
   54     0.00000004233000     0.00000001675186     0.00000004805022     0.00000036800877     0.00000184092583
   55     0.00000000865202     0.00000001521530     0.00000000999132     0.00000003989392     0.00000009609066
   56     0.00000002587183     0.00000001484170     0.00000001191208     0.00000017939641     0.00000061205571
   57     0.00000000737210     0.00000001042870     0.00000000123506     0.00000002155921     0.00000011934898
   58     0.00000004612653     0.00000007537957     0.00000003730369     0.00000024739432     0.00000023632406
   59     0.00000000538570     0.00000001767591     0.00000000136473     0.00000000975756     0.00000002448752
   60     0.00000000283878     0.00000000182049     0.00000000123917     0.00000001529477     0.00000001621080
   61     0.00000000309975     0.00000000637127     0.00000000113061     0.00000001682984     0.00000001245008
   62     0.00000000813403     0.00000002158378     0.00000000422480     0.00000002638951     0.00000008391721
   63     0.00000005614415     0.00000011481869     0.00000002052575     0.00000039161252     0.00000123631800
   64     0.00000002161722     0.00000003307621     0.00000001460048     0.00000016361406     0.00000068819016
   65     0.00000001707317     0.00000006038664     0.00000000810466     0.00000003786515     0.00000006270447
   66     0.00064588442460     0.00019004387340     0.00730668574890     0.01390664550423     0.04139783067834
   67     0.00076418812385     0.00021261921318     0.00790484272748     0.01361471800409     0.04198645353842
   68     0.00019441134860     0.00006124108534     0.00165445359254     0.00678921854589     0.04505649353238

                16                  17                  18                  19                  20

    1     0.00000372317748     0.00001474781000     0.00003582530804     0.00020895842868     0.00005599518664
    2     0.00000840814649     0.00002401213489     0.00006597082893     0.00029573277738     0.00007922588223
    3     0.00005400054980     0.00007044719351     0.00032069895112     0.00217560815525     0.00035213254672
    4     0.00025727284768     0.00032340950356     0.00192048407151     0.01155987893564     0.00326004406334
    5     0.00001367942302     0.00004135938512     0.00020831238299     0.00060685496370     0.00045598540810
    6     0.00000529145047     0.00000732018748     0.00005081393417     0.00023305891209     0.00006715851812
    7     0.00018979713791     0.00028009395885     0.00058812600864     0.00605532291553     0.00013565813982
    8     0.00021716544058     0.00139115014986     0.00029169416288     0.00341811557798     0.00003302106067
    9     0.00018830307009     0.00047683630137     0.00016740354219     0.00167229035012     0.00002321479999
   10     0.00053657201820     0.00133880029414     0.00046447861231     0.00460909590202     0.00006927117675
   11     0.00257498493378     0.00435259276228     0.00264572945159     0.03005935870314     0.00037766491817
   12     0.00126404211189     0.00263098481682     0.00499360875603     0.05717360665483     0.00106825738074
   13     0.01513885443342     0.01285772104154     0.01375178961028     0.11410835953875     0.00139531884757
   14     0.12867229216024     0.12371335024849     0.12573353044015     1.42890956865895     0.01584689772686
   15     1.46803123147162     0.12870451157853     0.12191864422963     0.12190049127737     0.01184642081883
   16     0.00000000000000     1.48993173244729     0.13679884105955     0.13227271359364     0.01454149095340
   17     1.48993173244729     0.00000000000000     1.42414549575544     0.12527278029402     0.10753471489230
   18     0.13679884105955     1.42414549575544     0.00000000000000     1.38822942445269     1.14791686612850
   19     0.13227271359364     0.12527278029402     1.38822942445269     0.00000000000000     0.12989750380087
   20     0.01454149095340     0.10753471489230     1.14791686612850     0.12989750380087     0.00000000000000
   21     0.00303761455224     0.03330508382869     0.08876685764407     0.02351970691976     1.34355544040116
   22     0.00042473817131     0.00355340215700     0.01484725013292     0.00216529863508     0.10047425465141
   23     0.00013044867103     0.00110633895931     0.00238019223472     0.00087279011022     0.01842086904151
   24     0.00002595849837     0.00017623794010     0.00054922265641     0.00014181629462     0.00265599364197
   25     0.00003544661957     0.00035879652935     0.00035512914400     0.00031603914805     0.00366749604296
   26     0.00002879451341     0.00019852954184     0.00040314580214     0.00014195238378     0.00353196820256
   27     0.00018967392974     0.00132664884081     0.00379372309250     0.00125060022868     0.04279934870380
   28     0.00000465931870     0.00003679258526     0.00004943604902     0.00002857908489     0.00033670388240
   29     0.00000210220696     0.00002039881524     0.00001848494972     0.00001800395996     0.00017758862133
   30     0.00000091366117     0.00000585399840     0.00000734072106     0.00000432577840     0.00003974545802
   31     0.00000078516287     0.00000585434187     0.00000984068688     0.00000537169816     0.00004695070202
   32     0.00000023508138     0.00000200590316     0.00000410199808     0.00000198165087     0.00000959210222
   33     0.00000011839326     0.00000055129651     0.00000131095444     0.00000061591726     0.00000259493453
   34     0.00000083622519     0.00000592884783     0.00000895105890     0.00000398530794     0.00005177480464
   35     0.00000080580967     0.00000463648070     0.00000697023957     0.00000359107274     0.00004987193733
   36     0.00398803761836     0.05450669252693     0.03362853448972     0.00547922440873     0.19712885726992
   37     0.12283528650783     0.01593211765803     0.00768391266804     0.01533853892875     0.00080818668345
   38     0.00000052538598     0.00000080219438     0.00000645598452     0.00002408376329     0.00000608010696
   39     0.00000146627979     0.00000218477235     0.00000453589062     0.00002991522141     0.00000613211375
   40     0.00012575183359     0.00011983069091     0.00128149884787     0.00577686857447     0.00128684261475
   41     0.00000052390497     0.00000099346792     0.00000293720332     0.00001304702500     0.00000518823599
   42     0.00000508395432     0.00000548357569     0.00002351828343     0.00012304329902     0.00000767625851
   43     0.00001135454427     0.00000481676810     0.00001333280530     0.00006967453418     0.00000118799073
   44     0.00068359322447     0.00027603364067     0.00075875367129     0.00646988723794     0.00018453271535
   45     0.83141442052274     0.05601495335057     0.00975363909854     0.00229024091743     0.00072115068313
   46     0.05513655622418     0.81013671013727     0.05401880365260     0.00885914434889     0.01057709085244
   47     0.00222434244442     0.00808282282165     0.05143956864762     0.79061302269350     0.01904368852234
   48     0.00071898545015     0.00602262586261     0.03905536374261     0.01511563619716     0.80025277761288
   49     0.00002582406877     0.00013975480950     0.00015192431466     0.00004835039126     0.00049089701764
   50     0.00000247665497     0.00001440816770     0.00005648643523     0.00001586730428     0.00023024641426
   51     0.00000248289098     0.00001207232373     0.00002408262631     0.00000644071318     0.00011283165349
   52     0.00003493310449     0.00018359017342     0.00104858577843     0.00033875008157     0.01182902958925
   53     0.00000072702977     0.00000373305694     0.00000882103901     0.00000301046985     0.00005284709173
   54     0.00000073645658     0.00000433091166     0.00000603348929     0.00000344140432     0.00003484063193
   55     0.00000007151138     0.00000035962189     0.00000059744490     0.00000020047916     0.00000435450120
   56     0.00000013074623     0.00000141214919     0.00000280548846     0.00000172178776     0.00000697959561
   57     0.00000003141283     0.00000019696766     0.00000026991108     0.00000018133998     0.00000164434694
   58     0.00000014809432     0.00000135969930     0.00000485845429     0.00000208919473     0.00001537363316
   59     0.00000001705940     0.00000003599016     0.00000010580603     0.00000004725296     0.00000020549719
   60     0.00000001611518     0.00000004326287     0.00000006992228     0.00000004522095     0.00000019198988
   61     0.00000000852143     0.00000002336301     0.00000013282769     0.00000004626425     0.00000044689400
   62     0.00000002075273     0.00000015648932     0.00000022164332     0.00000017399440     0.00000154763639
   63     0.00000042285001     0.00000376953422     0.00000568047640     0.00000272795266     0.00002075343480
   64     0.00000011062642     0.00000151301738     0.00000209675014     0.00000107667192     0.00000852613492
   65     0.00000006968527     0.00000025647760     0.00000047693033     0.00000021488165     0.00000322895610
   66     0.01287876160309     0.00084916213359     0.00288153849433     0.00079737993640     0.00036930971310
   67     0.01265774838536     0.00083115422385     0.00266800696517     0.00085335417022     0.00032173047555
   68     0.01959144601169     0.00143219280116     0.00034131804229     0.00072926095402     0.00006808606605

                21                  22                  23                  24                  25

    1     0.00001542807494     0.00005040228649     0.00000941802834     0.00000908783102     0.00001222548007
    2     0.00001686535620     0.00003246454609     0.00000538368901     0.00000435119873     0.00000818235992
    3     0.00005765129063     0.00004602172523     0.00001199157508     0.00000992868643     0.00001597156191
    4     0.00042399762389     0.00054877331757     0.00015010213843     0.00012780550540     0.00010487498087
    5     0.00017189451509     0.00131331307993     0.00041779304565     0.00035070753690     0.00031099274732
    6     0.00002775464373     0.00015883954063     0.00008890020060     0.00009888706651     0.00014670777235
    7     0.00002540881474     0.00000825601275     0.00000352787673     0.00000262275977     0.00000275442429
    8     0.00001132385624     0.00000361258927     0.00000151009172     0.00000094060302     0.00000158094645
    9     0.00000775728627     0.00000216568816     0.00000071775254     0.00000036939231     0.00000030789493
   10     0.00001890805991     0.00000437122931     0.00000134788979     0.00000029685918     0.00000040386821
   11     0.00008083799581     0.00001647937288     0.00000484610253     0.00000121917192     0.00000123293271
   12     0.00013919272939     0.00002061595388     0.00000606949085     0.00000128173634     0.00000241405824
   13     0.00033691677317     0.00006706496151     0.00001644413555     0.00000359212699     0.00000195501565
   14     0.00291732614054     0.00040342782960     0.00012273523815     0.00002624474742     0.00003048200456
   15     0.00584491884856     0.00030975781279     0.00040780463376     0.00005085075104     0.00023075222859
   16     0.00303761455224     0.00042473817131     0.00013044867103     0.00002595849837     0.00003544661957
   17     0.03330508382869     0.00355340215700     0.00110633895931     0.00017623794010     0.00035879652935
   18     0.08876685764407     0.01484725013292     0.00238019223472     0.00054922265641     0.00035512914400
   19     0.02351970691976     0.00216529863508     0.00087279011022     0.00014181629462     0.00031603914805
   20     1.34355544040116     0.10047425465141     0.01842086904151     0.00265599364197     0.00366749604296
   21     0.00000000000000     0.98520531715251     0.11515693173509     0.01595398037484     0.01196819636330
   22     0.98520531715251     0.00000000000000     1.40213334300402     0.12993844017024     0.12552757826196
   23     0.11515693173509     1.40213334300402     0.00000000000000     1.51923371903438     0.13244738580237
   24     0.01595398037484     0.12993844017024     1.51923371903438     0.00000000000000     1.42170220129275
   25     0.01196819636330     0.12552757826196     0.13244738580237     1.42170220129275     0.00000000000000
   26     0.01536335100520     0.13174388205539     0.13715520336755     0.13019794969558     1.43153207489365
   27     0.10494925572869     1.42694205660320     0.12813884513154     0.13667232801330     0.13082058488057
   28     0.00089688353054     0.00965341906083     0.01585972540926     0.11504394924798     1.05454199514058
   29     0.00043829272329     0.00446752210438     0.00224781314278     0.02276075486879     0.09163153109274
   30     0.00013898288924     0.00117241121023     0.00235450445116     0.01799492631529     0.02322804296952
   31     0.00014214154998     0.00219797236432     0.01154894850966     0.02767538539965     0.02229851316351
   32     0.00008396508724     0.00072290641732     0.00123169092357     0.00302665046473     0.00461761835167
   33     0.00001861688570     0.00015727619765     0.00036738816680     0.00095086452371     0.00147388957779
   34     0.00013247513056     0.00217699035755     0.00241470501295     0.00580671589356     0.02195289690797
   35     0.00013060952934     0.00116193333326     0.00113325383749     0.00541256416999     0.02321466351692
   36     2.16287914186769     0.13775874165876     0.07076522015655     0.00524789113851     0.00721370558516
   37     0.00034498690226     0.00004317321818     0.00002555303139     0.00000468145043     0.00001179232243
   38     0.00000198188659     0.00000345667347     0.00000132925627     0.00000104162770     0.00000074190133
   39     0.00000113297138     0.00000222193927     0.00000060782223     0.00000058602631     0.00000151633026
   40     0.00017798658314     0.00006429951116     0.00001028729303     0.00000448342638     0.00000975783857
   41     0.00000142466194     0.00000454283923     0.00000176100952     0.00000169622793     0.00000508270495
   42     0.00000196622814     0.00000057822788     0.00000012675547     0.00000011515116     0.00000010616426
   43     0.00000094182876     0.00000029125431     0.00000010161036     0.00000006978810     0.00000003523318
   44     0.00004630490344     0.00001126152463     0.00000215385118     0.00000060134981     0.00000035466285
   45     0.00018085632083     0.00003932437371     0.00000972377784     0.00000194724445     0.00000124192730
   46     0.00715124279599     0.00044023722877     0.00016078218898     0.00003267463074     0.00001810384482
   47     0.00164452603158     0.00014956867270     0.00003615948528     0.00000615100600     0.00000484427566
   48     0.04562059114701     0.00990120321212     0.00086148902418     0.00019978578769     0.00032969336974
   49     0.01605982939612     0.05158189883454     0.81429442223335     0.05474697782631     0.00869237854620
   50     0.00093377382728     0.00913050579037     0.05531238721073     0.82298677119692     0.05360350887699
   51     0.00090797582664     0.00922816129873     0.00205211628468     0.00908992414952     0.05378543476730
   52     0.01240393594449     0.05365372545662     0.00916811360339     0.00200519906092     0.00855169727587
   53     0.00010820781018     0.00071725431605     0.00103467067250     0.01603047685742     0.04257023285906
   54     0.00010881948707     0.00071414294641     0.00083843298135     0.00742106513222     0.04268162853322
   55     0.00001384262047     0.00007132390289     0.00021397565310     0.00458868485146     0.00460578449673
   56     0.00004822305350     0.00030736645911     0.00047697718332     0.00086725740738     0.00129150633031
   57     0.00000586606489     0.00006351550237     0.00011976260824     0.00049014047185     0.00039775606694
   58     0.00006859007208     0.00152856897294     0.00697191001442     0.01815680901314     0.01103189376837
   59     0.00000207528979     0.00000627482140     0.00001109593077     0.00005737630975     0.00007055940493
   60     0.00000104878174     0.00001024746611     0.00003721026307     0.00008525904261     0.00007304827812
   61     0.00000084717399     0.00001045477663     0.00002029293594     0.00003662671070     0.00007509026112
[...]
   15     0.00000061205571     0.00000011934898     0.00000023632406     0.00000002448752     0.00000001621080
   16     0.00000013074623     0.00000003141283     0.00000014809432     0.00000001705940     0.00000001611518
   17     0.00000141214919     0.00000019696766     0.00000135969930     0.00000003599016     0.00000004326287
   18     0.00000280548846     0.00000026991108     0.00000485845429     0.00000010580603     0.00000006992228
   19     0.00000172178776     0.00000018133998     0.00000208919473     0.00000004725296     0.00000004522095
   20     0.00000697959561     0.00000164434694     0.00001537363316     0.00000020549719     0.00000019198988
   21     0.00004822305350     0.00000586606489     0.00006859007208     0.00000207528979     0.00000104878174
   22     0.00030736645911     0.00006351550237     0.00152856897294     0.00000627482140     0.00001024746611
   23     0.00047697718332     0.00011976260824     0.00697191001442     0.00001109593077     0.00003721026307
   24     0.00086725740738     0.00049014047185     0.01815680901314     0.00005737630975     0.00008525904261
   25     0.00129150633031     0.00039775606694     0.01103189376837     0.00007055940493     0.00007304827812
   26     0.00053893959948     0.00016422448490     0.00346439142568     0.00005430309343     0.00003639628759
   27     0.00021347691076     0.00004819071009     0.00162764538341     0.00001033325592     0.00002039060290
   28     0.01088627035728     0.00064137875929     0.00518914785923     0.00022777869822     0.00004250136692
   29     0.05905593685976     0.00928439555256     0.00935616075678     0.00129397680166     0.00011655773226
   30     0.79391068299014     0.04622957024580     0.03606479067458     0.00828094191755     0.00232222755715
   31     0.04199603341860     0.84003358357668     0.77463238366597     0.01281031444828     0.01488190560629
   32     0.01120816641767     0.04400008649460     0.05163676788328     0.04913468232941     0.04790750226319
   33     0.01276994083862     0.01759762815192     0.01097111740475     0.89221624376293     0.90388550779885
   34     0.00657728456355     0.01211736333991     0.01588917579463     0.01273513677979     0.01041072820042
   35     0.01806109992275     0.00120704153622     0.00563063453138     0.00816477109032     0.00099865688966
   36     0.00001455414329     0.00000331478172     0.00003593040799     0.00000045927328     0.00000056165690
   37     0.00000006452333     0.00000001590293     0.00000003459475     0.00000000964946     0.00000000685834
   38     0.00000003419313     0.00000000238935     0.00000001859255     0.00000001716690     0.00000000254027
   39     0.00000004399568     0.00000000562795     0.00000004334935     0.00000000677205     0.00000000752600
   40     0.00000009787393     0.00000005183113     0.00000024803951     0.00000000723041     0.00000000304787
   41     0.00000016673823     0.00000001550633     0.00000025782032     0.00000002544136     0.00000005651185
   42     0.00000000056783     0.00000000005001     0.00000000156130     0.00000000018166     0.00000000058146
   43     0.00000000126878     0.00000000009256     0.00000000339012     0.00000000028685     0.00000000006708
   44     0.00000000251192     0.00000000068365     0.00000000471200     0.00000000032345     0.00000000008517
   45     0.00000000812137     0.00000000067940     0.00000003349284     0.00000000273567     0.00000000044710
   46     0.00000006428066     0.00000000618985     0.00000002097281     0.00000001046887     0.00000000233286
   47     0.00000000133663     0.00000000159208     0.00000003693207     0.00000000557302     0.00000000116363
   48     0.00000176168455     0.00000002978323     0.00000450886480     0.00000005265692     0.00000004069537
   49     0.00000072549749     0.00001000606228     0.00017754148188     0.00000036902599     0.00000019071963
   50     0.00001968105117     0.00006198954400     0.00106596378589     0.00003346945051     0.00000888540483
   51     0.00007973394647     0.00001321003802     0.00002784778556     0.00003388230617     0.00000513744065
   52     0.00000199577373     0.00000099092951     0.00000205449316     0.00000039846972     0.00000017111992
   53     0.00069085543097     0.00003683117881     0.00018245827158     0.00003459439962     0.00000483648470
   54     0.00009372743476     0.00027463297512     0.00002616591797     0.00003376646420     0.00000795110911
   55     0.00652513373981     0.00180721398462     0.00357900627784     0.00013163395173     0.00002102782950
   56     0.00000000000000     0.00404172302684     0.01770227236874     0.00169512529464     0.00026280161535
   57     0.00404172302684     0.00000000000000     0.00668223730745     0.00098037507749     0.00178203952319
   58     0.01770227236874     0.00668223730745     0.00000000000000     0.00010249723733     0.00064530352777
   59     0.00169512529464     0.00098037507749     0.00010249723733     0.00000000000000     0.00742711893036
   60     0.00026280161535     0.00178203952319     0.00064530352777     0.00742711893036     0.00000000000000
   61     0.00008655608723     0.00057421235240     0.00015275681784     0.00742506644949     0.00933114740986
   62     0.00005852583461     0.00056118408196     0.00057469454171     0.00097048281258     0.00056900973344
   63     0.00007719550116     0.00052587737814     0.00092048042640     0.00010936541905     0.00014529275003
   64     0.00067538248897     0.00005016850186     0.00007576934877     0.00169561080859     0.00008512443581
   65     0.00029856187917     0.00033692595443     0.00002350879349     0.00012260619554     0.00014903364219
   66     0.00000001656182     0.00000000494853     0.00000000760882     0.00000000044788     0.00000000039245
   67     0.00000003209225     0.00000000656769     0.00000000930451     0.00000000071440     0.00000000044640
   68     0.00000000168691     0.00000000016591     0.00000000145994     0.00000000009204     0.00000000028108

                61                  62                  63                  64                  65

    1     0.00000006151025     0.00000115005662     0.00000083745396     0.00000062557592     0.00000126683294
    2     0.00000002249064     0.00000027312389     0.00000093023476     0.00000007623500     0.00000033271638
    3     0.00000001410625     0.00000035080555     0.00000215163255     0.00000017883800     0.00000038707991
    4     0.00000011623052     0.00000060580911     0.00001199992180     0.00001232495829     0.00000113926481
    5     0.00000040577032     0.00000211571629     0.00005781834927     0.00001394873857     0.00001406654566
    6     0.00000077929375     0.00001117014673     0.00001814862169     0.00000697396569     0.00000248148546
    7     0.00000000980385     0.00000004236046     0.00000038402695     0.00000038353196     0.00000010599875
    8     0.00000000154531     0.00000004069953     0.00000009211727     0.00000005967197     0.00000003895849
    9     0.00000000114633     0.00000000410959     0.00000001877647     0.00000001113831     0.00000000907516
   10     0.00000000138103     0.00000001502252     0.00000001100377     0.00000001169287     0.00000000899028
   11     0.00000000309975     0.00000000813403     0.00000005614415     0.00000002161722     0.00000001707317
   12     0.00000000637127     0.00000002158378     0.00000011481869     0.00000003307621     0.00000006038664
   13     0.00000000113061     0.00000000422480     0.00000002052575     0.00000001460048     0.00000000810466
   14     0.00000001682984     0.00000002638951     0.00000039161252     0.00000016361406     0.00000003786515
   15     0.00000001245008     0.00000008391721     0.00000123631800     0.00000068819016     0.00000006270447
   16     0.00000000852143     0.00000002075273     0.00000042285001     0.00000011062642     0.00000006968527
   17     0.00000002336301     0.00000015648932     0.00000376953422     0.00000151301738     0.00000025647760
   18     0.00000013282769     0.00000022164332     0.00000568047640     0.00000209675014     0.00000047693033
   19     0.00000004626425     0.00000017399440     0.00000272795266     0.00000107667192     0.00000021488165
   20     0.00000044689400     0.00000154763639     0.00002075343480     0.00000852613492     0.00000322895610
   21     0.00000084717399     0.00000451376549     0.00006195806849     0.00004296457475     0.00001434824760
   22     0.00001045477663     0.00006672935302     0.00149903734454     0.00031885136122     0.00007072574015
   23     0.00002029293594     0.00004321537449     0.00159061872034     0.00021713327424     0.00006721794832
   24     0.00003662671070     0.00016979795132     0.00336056117756     0.00056274228756     0.00021167664538
   25     0.00007509026112     0.00039771782469     0.01070277149465     0.00130863335628     0.00452334853498
   26     0.00008191166466     0.00045466422050     0.01707124551185     0.00084705762013     0.00443651753524
   27     0.00003630719786     0.00011917520603     0.00658343146046     0.00045587866450     0.00020338652891
   28     0.00004178309085     0.00065483826572     0.00508729905386     0.01107390198583     0.01631753877256
   29     0.00011729553896     0.00956162347387     0.00928586991441     0.05994567306888     0.04197962530651
   30     0.00098252017991     0.00120688622570     0.00557213630903     0.01820388412117     0.00999053569307
   31     0.01038761389085     0.01234646362188     0.01575794172220     0.00662516268709     0.00124119308088
   32     0.04776295413130     0.04420560485048     0.05159739866652     0.01129642944300     0.00802967142238
   33     0.90393175756262     0.01798189356250     0.01087738876054     0.01299149167106     0.00082229100422
   34     0.01508466135029     0.83790426811971     0.77648306153307     0.04272604371249     0.04267990615847
   35     0.00235910233938     0.04692354472305     0.03604816905211     0.79165708327180     0.84699556831565
   36     0.00000041537441     0.00000379498041     0.00002492378973     0.00001626800339     0.00000530309504
   37     0.00000000242854     0.00000000663768     0.00000009190639     0.00000006266984     0.00000001323866
   38     0.00000000391337     0.00000001796305     0.00000012791755     0.00000005028240     0.00000001694916
   39     0.00000000236388     0.00000005482915     0.00000004756991     0.00000000348545     0.00000003436418
   40     0.00000000402132     0.00000004909493     0.00000021611530     0.00000022723467     0.00000004232346
   41     0.00000001583235     0.00000032665072     0.00000146703304     0.00000003154495     0.00000047722348
   42     0.00000000003754     0.00000000046367     0.00000000055920     0.00000000220167     0.00000000200161
   43     0.00000000007887     0.00000000033940     0.00000000608644     0.00000000046330     0.00000000090074
   44     0.00000000076717     0.00000000024405     0.00000000110273     0.00000000060413     0.00000000066131
   45     0.00000000024925     0.00000000060606     0.00000004419424     0.00000000556093     0.00000000585591
   46     0.00000000286773     0.00000000524382     0.00000004857297     0.00000004905765     0.00000008984814
   47     0.00000000033923     0.00000001320222     0.00000010125088     0.00000001727910     0.00000001220801
   48     0.00000004219433     0.00000021018544     0.00000411113244     0.00000027993970     0.00000062501327
   49     0.00000026505922     0.00000120714255     0.00000165111469     0.00000190919819     0.00000572236456
   50     0.00000558368957     0.00001273963489     0.00003069612326     0.00008307805240     0.00002754610177
   51     0.00000829566038     0.00005652636965     0.00101879040211     0.00001893391747     0.00039615356417
   52     0.00000021010394     0.00000963959465     0.00016510217902     0.00000089484185     0.00000609309867
   53     0.00000785447270     0.00028481501599     0.00002599483290     0.00009468479581     0.00038809959153
   54     0.00000484154484     0.00004135620785     0.00017016410041     0.00071129044235     0.00151720474541
   55     0.00014792592415     0.00035498069306     0.00002417665741     0.00031692551775     0.00040695729831
   56     0.00008655608723     0.00005852583461     0.00007719550116     0.00067538248897     0.00029856187917
   57     0.00057421235240     0.00056118408196     0.00052587737814     0.00005016850186     0.00033692595443
   58     0.00015275681784     0.00057469454171     0.00092048042640     0.00007576934877     0.00002350879349
   59     0.00742506644949     0.00097048281258     0.00010936541905     0.00169561080859     0.00012260619554
   60     0.00933114740986     0.00056900973344     0.00014529275003     0.00008512443581     0.00014903364219
   61     0.00000000000000     0.00183061064246     0.00063539750718     0.00027039630806     0.00002007736264
   62     0.00183061064246     0.00000000000000     0.00676845903549     0.00421060556134     0.00180160366672
   63     0.00063539750718     0.00676845903549     0.00000000000000     0.01794068510412     0.00351353136688
   64     0.00027039630806     0.00421060556134     0.01794068510412     0.00000000000000     0.00656071012877
   65     0.00002007736264     0.00180160366672     0.00351353136688     0.00656071012877     0.00000000000000
   66     0.00000000028247     0.00000000541992     0.00000003101494     0.00000002205428     0.00000001109688
   67     0.00000000030581     0.00000000348602     0.00000005414546     0.00000003086662     0.00000000384530
   68     0.00000000030246     0.00000000023452     0.00000000136151     0.00000000150013     0.00000000080552

                66                  67                  68

    1     0.00000088790574     0.00000071321898     0.00000032534239
    2     0.00000163240707     0.00000145710042     0.00000076415223
    3     0.00001064623756     0.00000644485300     0.00000392562933
    4     0.00000847163913     0.00000962191619     0.00000862138184
    5     0.00000059489625     0.00000042096552     0.00000045334676
    6     0.00000029819871     0.00000037078315     0.00000020590893
    7     0.00003341189668     0.00002757827570     0.00001428156986
    8     0.00006195826438     0.00009374751247     0.00000522214277
    9     0.00001892425739     0.00001685345507     0.00000351442573
   10     0.00010776806163     0.00015454538341     0.00003346008724
   11     0.00064588442460     0.00076418812385     0.00019441134860
   12     0.00019004387340     0.00021261921318     0.00006124108534
   13     0.00730668574890     0.00790484272748     0.00165445359254
   14     0.01390664550423     0.01361471800409     0.00678921854589
   15     0.04139783067834     0.04198645353842     0.04505649353238
   16     0.01287876160309     0.01265774838536     0.01959144601169
   17     0.00084916213359     0.00083115422385     0.00143219280116
   18     0.00288153849433     0.00266800696517     0.00034131804229
   19     0.00079737993640     0.00085335417022     0.00072926095402
   20     0.00036930971310     0.00032173047555     0.00006808606605
   21     0.00021434437073     0.00019554886745     0.00002856226934
   22     0.00001020762199     0.00001064727011     0.00000732503107
   23     0.00001622896632     0.00001534602513     0.00000220141891
   24     0.00000208975617     0.00000184534004     0.00000046160526
   25     0.00000977072315     0.00000901079676     0.00000029203069
   26     0.00000172209128     0.00000180358651     0.00000040939747
   27     0.00001411181852     0.00001282208441     0.00000245599147
   28     0.00000058735738     0.00000066245596     0.00000006937059
   29     0.00000059984619     0.00000051753417     0.00000001666839
   30     0.00000008879490     0.00000005671181     0.00000001437433
   31     0.00000007802035     0.00000006981735     0.00000001097901
   32     0.00000000996278     0.00000001790209     0.00000000156287
   33     0.00000000559782     0.00000001093687     0.00000000148351
   34     0.00000005270099     0.00000007617977     0.00000001108078
   35     0.00000011780953     0.00000006003743     0.00000001212257
   36     0.00012143474432     0.00012320896097     0.00001429202937
   37     0.89886418730246     0.89827160200859     0.90341165975949
   38     0.00000007232240     0.00000008939946     0.00000001773852
   39     0.00000014896209     0.00000003983859     0.00000007040580
   40     0.00000129836962     0.00000518926643     0.00000360106760
   41     0.00000004936155     0.00000001042590     0.00000005735604
   42     0.00000028479729     0.00000080120262     0.00000008398902
   43     0.00000066021682     0.00000078552045     0.00000021301891
   44     0.00140631361918     0.00115286114212     0.00043824291451
   45     0.00009836076609     0.00010581517818     0.00221437195722
   46     0.00012800362028     0.00014365010768     0.00002925247364
   47     0.00006905920405     0.00007261213741     0.00025812196860
   48     0.00000593984383     0.00001085892970     0.00001799075237
   49     0.00000057451661     0.00000030896874     0.00000024979376
   50     0.00000010056258     0.00000003054374     0.00000004421567
   51     0.00000004637384     0.00000004308373     0.00000004216625
   52     0.00000078705343     0.00000008407198     0.00000027873828
   53     0.00000007893033     0.00000004623301     0.00000000969562
   54     0.00000009218728     0.00000005752339     0.00000000956071
   55     0.00000000363005     0.00000000122307     0.00000000088719
   56     0.00000001656182     0.00000003209225     0.00000000168691
   57     0.00000000494853     0.00000000656769     0.00000000016591
   58     0.00000000760882     0.00000000930451     0.00000000145994
   59     0.00000000044788     0.00000000071440     0.00000000009204
   60     0.00000000039245     0.00000000044640     0.00000000028108
   61     0.00000000028247     0.00000000030581     0.00000000030246
   62     0.00000000541992     0.00000000348602     0.00000000023452
   63     0.00000003101494     0.00000005414546     0.00000000136151
   64     0.00000002205428     0.00000003086662     0.00000000150013
   65     0.00000001109688     0.00000000384530     0.00000000080552
   66     0.00000000000000     0.00692564664255     0.00907900587381
   67     0.00692564664255     0.00000000000000     0.00922073203092
   68     0.00907900587381     0.00922073203092     0.00000000000000



  Atomic Valences: 

 #  #
 Irrep: 1
      1:  4.4073125
      2:  4.4409308
      3:  4.6225998
      4:  4.5952317
      5:  3.9082602
      6:  4.5588013
      7:  4.7571740
      8:  4.3782098
      9:  4.5348223
     10:  3.8675549
     11:  5.0200915
     12:  3.9556736
     13:  3.9669206
     14:  4.6854033
     15:  4.6502430
     16:  4.4569256
     17:  4.4178047
     18:  4.6863247
     19:  4.4401401
     20:  3.9943795
     21:  5.0021382
     22:  4.6250774
     23:  4.4599613
     24:  4.5029813
     25:  4.7545400
     26:  4.5061100
     27:  4.4813839
     28:  4.5379813
     29:  4.2691125
     30:  4.5913043
     31:  4.6018852
     32:  4.2460668
     33:  4.3064672
     34:  4.6036802
     35:  4.5929731
     36:  2.7627762
     37:  4.1581274
     38:  0.9888186
     39:  0.9889008
     40:  0.9911835
     41:  0.9896537
     42:  0.9881399
     43:  0.9887625
     44:  0.9345376
     45:  0.9904054
     46:  0.9827136
     47:  0.9934802
     48:  0.9494368
     49:  0.9820775
     50:  0.9881479
     51:  0.9874188
     52:  0.9930764
     53:  0.9924849
     54:  0.9927789
     55:  0.9924266
     56:  0.9905754
     57:  0.9901477
     58:  0.9842525
     59:  1.0058796
     60:  1.0012769
     61:  1.0014330
     62:  0.9901699
     63:  0.9838106
     64:  0.9911310
     65:  0.9931888
     66:  0.9984401
     67:  0.9984097
     68:  1.0007191


    Psi4 stopped on: Friday, 24 April 2020 12:14PM
    Psi4 wall time for execution: 0:15:29.58

*** Psi4 exiting successfully. Buy a developer a beer!
