 Entering Gaussian System, Link 0=g09
 Input=MOLECULE0-opt-2-3-7-8-283.com
 Output=MOLECULE0-opt-2-3-7-8-283.log
 Initial command:
 /opt/g09gh/gaussian/g09/l1.exe /scratch/bdw2292/Gau-MOLECULE0/Gau-105428.inp -scrdir=/scratch/bdw2292/Gau-MOLECULE0/
 Entering Link 1 = /opt/g09gh/gaussian/g09/l1.exe PID=    105510.
  
 Copyright (c) 1988,1990,1992,1993,1995,1998,2003,2009, Gaussian, Inc.
                  All Rights Reserved.
  
 This is part of the Gaussian(R) 09 program.  It is based on
 the Gaussian(R) 03 system (copyright 2003, Gaussian, Inc.),
 the Gaussian(R) 98 system (copyright 1998, Gaussian, Inc.),
 the Gaussian(R) 94 system (copyright 1995, Gaussian, Inc.),
 the Gaussian 92(TM) system (copyright 1992, Gaussian, Inc.),
 the Gaussian 90(TM) system (copyright 1990, Gaussian, Inc.),
 the Gaussian 88(TM) system (copyright 1988, Gaussian, Inc.),
 the Gaussian 86(TM) system (copyright 1986, Carnegie Mellon
 University), and the Gaussian 82(TM) system (copyright 1983,
 Carnegie Mellon University). Gaussian is a federally registered
 trademark of Gaussian, Inc.
  
 This software contains proprietary and confidential information,
 including trade secrets, belonging to Gaussian, Inc.
  
 This software is provided under written license and may be
 used, copied, transmitted, or stored only in accord with that
 written license.
  
 The following legend is applicable only to US Government
 contracts under FAR:
  
                    RESTRICTED RIGHTS LEGEND
  
 Use, reproduction and disclosure by the US Government is
 subject to restrictions as set forth in subparagraphs (a)
 and (c) of the Commercial Computer Software - Restricted
 Rights clause in FAR 52.227-19.
  
 Gaussian, Inc.
 340 Quinnipiac St., Bldg. 40, Wallingford CT 06492
  
  
 ---------------------------------------------------------------
 Warning -- This program may not be used in any manner that
 competes with the business of Gaussian, Inc. or will provide
 assistance to any competitor of Gaussian, Inc.  The licensee
 of this program is prohibited from giving any competitor of
 Gaussian, Inc. access to this program.  By using this program,
 the user acknowledges that Gaussian, Inc. is engaged in the
 business of creating and licensing software in the field of
 computational chemistry and represents and warrants to the
 licensee that it is not a competitor of Gaussian, Inc. and that
 it will not use this program in any manner prohibited above.
 ---------------------------------------------------------------
  

 Cite this work as:
 Gaussian 09, Revision A.02,
 M. J. Frisch, G. W. Trucks, H. B. Schlegel, G. E. Scuseria, 
 M. A. Robb, J. R. Cheeseman, G. Scalmani, V. Barone, B. Mennucci, 
 G. A. Petersson, H. Nakatsuji, M. Caricato, X. Li, H. P. Hratchian, 
 A. F. Izmaylov, J. Bloino, G. Zheng, J. L. Sonnenberg, M. Hada, 
 M. Ehara, K. Toyota, R. Fukuda, J. Hasegawa, M. Ishida, T. Nakajima, 
 Y. Honda, O. Kitao, H. Nakai, T. Vreven, J. A. Montgomery, Jr., 
 J. E. Peralta, F. Ogliaro, M. Bearpark, J. J. Heyd, E. Brothers, 
 K. N. Kudin, V. N. Staroverov, R. Kobayashi, J. Normand, 
 K. Raghavachari, A. Rendell, J. C. Burant, S. S. Iyengar, J. Tomasi, 
 M. Cossi, N. Rega, J. M. Millam, M. Klene, J. E. Knox, J. B. Cross, 
 V. Bakken, C. Adamo, J. Jaramillo, R. Gomperts, R. E. Stratmann, 
 O. Yazyev, A. J. Austin, R. Cammi, C. Pomelli, J. W. Ochterski, 
 R. L. Martin, K. Morokuma, V. G. Zakrzewski, G. A. Voth, 
 P. Salvador, J. J. Dannenberg, S. Dapprich, A. D. Daniels, 
 O. Farkas, J. B. Foresman, J. V. Ortiz, J. Cioslowski, 
 and D. J. Fox, Gaussian, Inc., Wallingford CT, 2009.
 
 ******************************************
 Gaussian 09:  EM64L-G09RevA.02 11-Jun-2009
                28-Mar-2020 
 ******************************************
 %RWF=/scratch/bdw2292/Gau-MOLECULE0/,100GB
 %Nosave
 %Chk=MOLECULE0-opt-2-3-7-8-283.chk
 %Mem=20GB
 %Nproc=6
 Will use up to    6 processors via shared memory.
 --------------------------------------------------
 #P opt=(,maxcycle=400) wB97XD/6-31G* MaxDisk=100GB
 --------------------------------------------------
 1/6=400,14=-1,18=20,19=15,26=3,38=1/1,3;
 2/9=110,12=2,17=6,18=5,40=1/2;
 3/5=1,6=6,7=1,11=2,16=1,25=1,30=1,71=1,74=-58/1,2,3;
 4//1;
 5/5=2,38=5/2;
 6/7=2,8=2,9=2,10=2,28=1/1;
 7//1,2,3,16;
 1/6=400,14=-1,18=20,19=15/3(2);
 2/9=110/2;
 99//99;
 2/9=110/2;
 3/5=1,6=6,7=1,11=2,16=1,25=1,30=1,71=1,74=-58/1,2,3;
 4/5=5,16=3/1;
 5/5=2,38=5/2;
 7//1,2,3,16;
 1/6=400,14=-1,18=20,19=15/3(-5);
 2/9=110/2;
 6/7=2,8=2,9=2,10=2,19=2,28=1/1;
 99/9=1/99;
 Leave Link    1 at Sat Mar 28 23:14:39 2020, MaxMem= 2684354560 cpu:       0.2
 (Enter /opt/g09gh/gaussian/g09/l101.exe)
 --------------------------------------------------------------
 MOLECULE0 Rotatable Bond Optimization on node37.bme.utexas.edu
 --------------------------------------------------------------
 Symbolic Z-matrix:
 Charge =  0 Multiplicity = 1
 C                    -0.32019   4.2596   -0.72401 
 C                     1.04162   4.19722  -0.40237 
 C                     1.75503   3.01242  -0.64996 
 C                     1.04699   1.94635  -1.24669 
 N                    -0.25348   1.99438  -1.56504 
 C                    -0.91647   3.13287  -1.30447 
 C                     3.19137   2.83981  -0.27941 
 C                     4.28897   3.3636   -0.96962 
 C                     5.53498   3.08563  -0.39403 
 N                     5.71061   2.37472   0.719 
 C                     4.58772   1.90186   1.30193 
 N                     3.35554   2.11274   0.83616 
 N                     4.76058   1.15765   2.45811 
 C                     3.83857   0.43613   3.30457 
 C                     4.34011  -0.53237   4.22607 
 C                     3.39955  -1.2051    5.02546 
 C                     2.01698  -0.99652   4.95058 
 C                     1.54176  -0.0481    4.03942 
 C                     2.45743   0.65968   3.24532 
 N                     0.17021   0.27439   3.7949 
 C                    -0.99605  -0.30823   4.22871 
 C                    -2.27495   0.13347   3.54344 
 C                    -2.33554   0.44664   2.17473 
 C                    -3.52707   0.89838   1.60449 
 C                    -4.69566   1.04973   2.37383 
 C                    -4.62867   0.70017   3.73677 
 C                    -3.44687   0.22548   4.31088 
 C                    -5.97286   1.63093   1.76574 
 N                    -6.11674   3.09558   1.67939 
 C                    -5.34813   3.83384   0.65255 
 C                    -3.99504   4.40826   1.14426 
 N                    -4.09799   5.23965   2.36606 
 C                    -4.50212   6.63835   2.18113 
 C                    -4.82893   4.47703   3.40827 
 C                    -6.17993   3.877     2.93612 
 O                    -1.03148  -1.12868   5.13171 
 C                     5.8157   -0.86127   4.37257 
 H                    -0.90479   5.15215  -0.52354 
 H                     1.5284    5.05394   0.05865 
 H                     1.55823   1.0095   -1.45916 
 H                    -1.972     3.13853  -1.57206 
 H                     4.19934   3.94949  -1.87689 
 H                     6.44764   3.46013  -0.85645 
 H                     5.74437   1.06163   2.66042 
 H                     3.74676  -1.94833   5.74248 
 H                     1.32308  -1.557     5.56553 
 H                     2.08792   1.38534   2.53562 
 H                     0.04212   1.02329   3.12869 
 H                    -1.44749   0.33223   1.55712 
 H                    -3.53549   1.14707   0.54311 
 H                    -5.50945   0.80434   4.36994 
 H                    -3.40359  -0.05096   5.3614 
 H                    -6.08638   1.23533   0.74576 
 H                    -6.83263   1.26254   2.3438 
 H                    -5.25343   3.26089  -0.231 
 H                    -6.21788   5.10309   0.26795 
 H                    -3.45952   5.24967   0.04763 
 H                    -3.2263    3.55792   1.35301 
 H                    -5.52918   6.70522   1.80508 
 H                    -3.83201   7.13496   1.47038 
 H                    -4.43945   7.17819   3.13307 
 H                    -4.96938   5.13571   4.33486 
 H                    -3.95776   3.34692   3.79846 
 H                    -7.1159    5.12011   2.65966 
 H                    -6.67243   3.27472   3.74889 
 H                     6.38633   0.00813   4.72843 
 H                     6.25515  -1.17631   3.41558 
 H                     6.00446  -1.67531   5.08599 
 
 NAtoms=     68 NQM=     68 NQMF=      0 NMic=      0 NMicF=      0 NTot=     68.
                    Isotopes and Nuclear Properties:
 (Nuclear quadrupole moments (NQMom) in fm**2, nuclear magnetic moments (NMagM)
  in nuclear magnetons)

  Atom         1           2           3           4           5           6           7           8           9          10
 IAtWgt=          12          12          12          12          14          12          12          12          12          14
 AtmWgt=  12.0000000  12.0000000  12.0000000  12.0000000  14.0030740  12.0000000  12.0000000  12.0000000  12.0000000  14.0030740
 NucSpn=           0           0           0           0           2           0           0           0           0           2
 AtZEff=   0.0000000   0.0000000   0.0000000   0.0000000   0.0000000   0.0000000   0.0000000   0.0000000   0.0000000   0.0000000
 NQMom=    0.0000000   0.0000000   0.0000000   0.0000000   2.0440000   0.0000000   0.0000000   0.0000000   0.0000000   2.0440000
 NMagM=    0.0000000   0.0000000   0.0000000   0.0000000   0.4037610   0.0000000   0.0000000   0.0000000   0.0000000   0.4037610

  Atom        11          12          13          14          15          16          17          18          19          20
 IAtWgt=          12          14          14          12          12          12          12          12          12          14
 AtmWgt=  12.0000000  14.0030740  14.0030740  12.0000000  12.0000000  12.0000000  12.0000000  12.0000000  12.0000000  14.0030740
 NucSpn=           0           2           2           0           0           0           0           0           0           2
 AtZEff=   0.0000000   0.0000000   0.0000000   0.0000000   0.0000000   0.0000000   0.0000000   0.0000000   0.0000000   0.0000000
 NQMom=    0.0000000   2.0440000   2.0440000   0.0000000   0.0000000   0.0000000   0.0000000   0.0000000   0.0000000   2.0440000
 NMagM=    0.0000000   0.4037610   0.4037610   0.0000000   0.0000000   0.0000000   0.0000000   0.0000000   0.0000000   0.4037610

  Atom        21          22          23          24          25          26          27          28          29          30
 IAtWgt=          12          12          12          12          12          12          12          12          14          12
 AtmWgt=  12.0000000  12.0000000  12.0000000  12.0000000  12.0000000  12.0000000  12.0000000  12.0000000  14.0030740  12.0000000
 NucSpn=           0           0           0           0           0           0           0           0           2           0
 AtZEff=   0.0000000   0.0000000   0.0000000   0.0000000   0.0000000   0.0000000   0.0000000   0.0000000   0.0000000   0.0000000
 NQMom=    0.0000000   0.0000000   0.0000000   0.0000000   0.0000000   0.0000000   0.0000000   0.0000000   2.0440000   0.0000000
 NMagM=    0.0000000   0.0000000   0.0000000   0.0000000   0.0000000   0.0000000   0.0000000   0.0000000   0.4037610   0.0000000

  Atom        31          32          33          34          35          36          37          38          39          40
 IAtWgt=          12          14          12          12          12          16          12           1           1           1
 AtmWgt=  12.0000000  14.0030740  12.0000000  12.0000000  12.0000000  15.9949146  12.0000000   1.0078250   1.0078250   1.0078250
 NucSpn=           0           2           0           0           0           0           0           1           1           1
 AtZEff=   0.0000000   0.0000000   0.0000000   0.0000000   0.0000000   0.0000000   0.0000000   0.0000000   0.0000000   0.0000000
 NQMom=    0.0000000   2.0440000   0.0000000   0.0000000   0.0000000   0.0000000   0.0000000   0.0000000   0.0000000   0.0000000
 NMagM=    0.0000000   0.4037610   0.0000000   0.0000000   0.0000000   0.0000000   0.0000000   2.7928460   2.7928460   2.7928460

  Atom        41          42          43          44          45          46          47          48          49          50
 IAtWgt=           1           1           1           1           1           1           1           1           1           1
 AtmWgt=   1.0078250   1.0078250   1.0078250   1.0078250   1.0078250   1.0078250   1.0078250   1.0078250   1.0078250   1.0078250
 NucSpn=           1           1           1           1           1           1           1           1           1           1
 AtZEff=   0.0000000   0.0000000   0.0000000   0.0000000   0.0000000   0.0000000   0.0000000   0.0000000   0.0000000   0.0000000
 NQMom=    0.0000000   0.0000000   0.0000000   0.0000000   0.0000000   0.0000000   0.0000000   0.0000000   0.0000000   0.0000000
 NMagM=    2.7928460   2.7928460   2.7928460   2.7928460   2.7928460   2.7928460   2.7928460   2.7928460   2.7928460   2.7928460

  Atom        51          52          53          54          55          56          57          58          59          60
 IAtWgt=           1           1           1           1           1           1           1           1           1           1
 AtmWgt=   1.0078250   1.0078250   1.0078250   1.0078250   1.0078250   1.0078250   1.0078250   1.0078250   1.0078250   1.0078250
 NucSpn=           1           1           1           1           1           1           1           1           1           1
 AtZEff=   0.0000000   0.0000000   0.0000000   0.0000000   0.0000000   0.0000000   0.0000000   0.0000000   0.0000000   0.0000000
 NQMom=    0.0000000   0.0000000   0.0000000   0.0000000   0.0000000   0.0000000   0.0000000   0.0000000   0.0000000   0.0000000
 NMagM=    2.7928460   2.7928460   2.7928460   2.7928460   2.7928460   2.7928460   2.7928460   2.7928460   2.7928460   2.7928460

  Atom        61          62          63          64          65          66          67          68
 IAtWgt=           1           1           1           1           1           1           1           1
 AtmWgt=   1.0078250   1.0078250   1.0078250   1.0078250   1.0078250   1.0078250   1.0078250   1.0078250
 NucSpn=           1           1           1           1           1           1           1           1
 AtZEff=   0.0000000   0.0000000   0.0000000   0.0000000   0.0000000   0.0000000   0.0000000   0.0000000
 NQMom=    0.0000000   0.0000000   0.0000000   0.0000000   0.0000000   0.0000000   0.0000000   0.0000000
 NMagM=    2.7928460   2.7928460   2.7928460   2.7928460   2.7928460   2.7928460   2.7928460   2.7928460
 Leave Link  101 at Sat Mar 28 23:14:39 2020, MaxMem= 2684354560 cpu:       0.4
 (Enter /opt/g09gh/gaussian/g09/l103.exe)

 GradGradGradGradGradGradGradGradGradGradGradGradGradGradGradGradGradGrad
 Berny optimization.
 Initialization pass.
                           ----------------------------
                           !    Initial Parameters    !
                           ! (Angstroms and Degrees)  !
 --------------------------                            --------------------------
 ! Name  Definition              Value          Derivative Info.                !
 --------------------------------------------------------------------------------
 ! R1    R(1,2)                  1.4007         estimate D2E/DX2                !
 ! R2    R(1,6)                  1.4007         estimate D2E/DX2                !
 ! R3    R(1,38)                 1.0856         estimate D2E/DX2                !
 ! R4    R(2,3)                  1.405          estimate D2E/DX2                !
 ! R5    R(2,39)                 1.0879         estimate D2E/DX2                !
 ! R6    R(3,4)                  1.4121         estimate D2E/DX2                !
 ! R7    R(3,7)                  1.4934         estimate D2E/DX2                !
 ! R8    R(4,5)                  1.3397         estimate D2E/DX2                !
 ! R9    R(4,40)                 1.0882         estimate D2E/DX2                !
 ! R10   R(5,6)                  1.343          estimate D2E/DX2                !
 ! R11   R(6,41)                 1.0889         estimate D2E/DX2                !
 ! R12   R(7,8)                  1.3984         estimate D2E/DX2                !
 ! R13   R(7,12)                 1.3417         estimate D2E/DX2                !
 ! R14   R(8,9)                  1.4004         estimate D2E/DX2                !
 ! R15   R(8,42)                 1.0837         estimate D2E/DX2                !
 ! R16   R(9,10)                 1.3323         estimate D2E/DX2                !
 ! R17   R(9,43)                 1.0895         estimate D2E/DX2                !
 ! R18   R(10,11)                1.3507         estimate D2E/DX2                !
 ! R19   R(11,12)                1.334          estimate D2E/DX2                !
 ! R20   R(11,13)                1.3858         estimate D2E/DX2                !
 ! R21   R(13,14)                1.4447         estimate D2E/DX2                !
 ! R22   R(13,44)                1.009          estimate D2E/DX2                !
 ! R23   R(14,15)                1.4278         estimate D2E/DX2                !
 ! R24   R(14,19)                1.4004         estimate D2E/DX2                !
 ! R25   R(15,16)                1.4058         estimate D2E/DX2                !
 ! R26   R(15,37)                1.5189         estimate D2E/DX2                !
 ! R27   R(16,17)                1.4002         estimate D2E/DX2                !
 ! R28   R(16,45)                1.0895         estimate D2E/DX2                !
 ! R29   R(17,18)                1.3984         estimate D2E/DX2                !
 ! R30   R(17,46)                1.0834         estimate D2E/DX2                !
 ! R31   R(18,19)                1.4036         estimate D2E/DX2                !
 ! R32   R(18,20)                1.43           estimate D2E/DX2                !
 ! R33   R(19,47)                1.0802         estimate D2E/DX2                !
 ! R34   R(20,21)                1.374          estimate D2E/DX2                !
 ! R35   R(20,48)                1.0105         estimate D2E/DX2                !
 ! R36   R(21,22)                1.5167         estimate D2E/DX2                !
 ! R37   R(21,36)                1.2206         estimate D2E/DX2                !
 ! R38   R(22,23)                1.4054         estimate D2E/DX2                !
 ! R39   R(22,27)                1.4039         estimate D2E/DX2                !
 ! R40   R(23,24)                1.3961         estimate D2E/DX2                !
 ! R41   R(23,49)                1.0877         estimate D2E/DX2                !
 ! R42   R(24,25)                1.4073         estimate D2E/DX2                !
 ! R43   R(24,50)                1.0902         estimate D2E/DX2                !
 ! R44   R(25,26)                1.4086         estimate D2E/DX2                !
 ! R45   R(25,28)                1.5293         estimate D2E/DX2                !
 ! R46   R(26,27)                1.397          estimate D2E/DX2                !
 ! R47   R(26,51)                1.0897         estimate D2E/DX2                !
 ! R48   R(27,52)                1.0871         estimate D2E/DX2                !
 ! R49   R(28,29)                1.4742         estimate D2E/DX2                !
 ! R50   R(28,53)                1.0999         estimate D2E/DX2                !
 ! R51   R(28,54)                1.0996         estimate D2E/DX2                !
 ! R52   R(29,30)                1.4799         estimate D2E/DX2                !
 ! R53   R(29,35)                1.4812         estimate D2E/DX2                !
 ! R54   R(30,31)                1.55           estimate D2E/DX2                !
 ! R55   R(30,55)                1.0573         estimate D2E/DX2                !
 ! R56   R(30,56)                1.586          estimate D2E/DX2                !
 ! R57   R(31,32)                1.4814         estimate D2E/DX2                !
 ! R58   R(31,57)                1.4824         estimate D2E/DX2                !
 ! R59   R(31,58)                1.1652         estimate D2E/DX2                !
 ! R60   R(32,33)                1.4676         estimate D2E/DX2                !
 ! R61   R(32,34)                1.4839         estimate D2E/DX2                !
 ! R62   R(33,59)                1.0958         estimate D2E/DX2                !
 ! R63   R(33,60)                1.0958         estimate D2E/DX2                !
 ! R64   R(33,61)                1.0962         estimate D2E/DX2                !
 ! R65   R(34,35)                1.5518         estimate D2E/DX2                !
 ! R66   R(34,62)                1.1455         estimate D2E/DX2                !
 ! R67   R(34,63)                1.4793         estimate D2E/DX2                !
 ! R68   R(35,64)                1.5804         estimate D2E/DX2                !
 ! R69   R(35,65)                1.1251         estimate D2E/DX2                !
 ! R70   R(37,66)                1.0991         estimate D2E/DX2                !
 ! R71   R(37,67)                1.0992         estimate D2E/DX2                !
 ! R72   R(37,68)                1.0988         estimate D2E/DX2                !
 ! A1    A(2,1,6)              118.2435         estimate D2E/DX2                !
 ! A2    A(2,1,38)             121.1821         estimate D2E/DX2                !
 ! A3    A(6,1,38)             120.5725         estimate D2E/DX2                !
 ! A4    A(1,2,3)              119.3913         estimate D2E/DX2                !
 ! A5    A(1,2,39)             119.8209         estimate D2E/DX2                !
 ! A6    A(3,2,39)             120.7685         estimate D2E/DX2                !
 ! A7    A(2,3,4)              117.1624         estimate D2E/DX2                !
 ! A8    A(2,3,7)              122.8279         estimate D2E/DX2                !
 ! A9    A(4,3,7)              119.9916         estimate D2E/DX2                !
 ! A10   A(3,4,5)              124.062          estimate D2E/DX2                !
 ! A11   A(3,4,40)             119.7955         estimate D2E/DX2                !
 ! A12   A(5,4,40)             116.1355         estimate D2E/DX2                !
 ! A13   A(4,5,6)              117.6124         estimate D2E/DX2                !
 ! A14   A(1,6,5)              123.5155         estimate D2E/DX2                !
 ! A15   A(1,6,41)             120.6827         estimate D2E/DX2                !
 ! A16   A(5,6,41)             115.8017         estimate D2E/DX2                !
 ! A17   A(3,7,8)              126.0975         estimate D2E/DX2                !
 ! A18   A(3,7,12)             112.7457         estimate D2E/DX2                !
 ! A19   A(8,7,12)             121.1541         estimate D2E/DX2                !
 ! A20   A(7,8,9)              114.9074         estimate D2E/DX2                !
 ! A21   A(7,8,42)             123.422          estimate D2E/DX2                !
 ! A22   A(9,8,42)             121.6683         estimate D2E/DX2                !
 ! A23   A(8,9,10)             124.5116         estimate D2E/DX2                !
 ! A24   A(8,9,43)             120.1755         estimate D2E/DX2                !
 ! A25   A(10,9,43)            115.3128         estimate D2E/DX2                !
 ! A26   A(9,10,11)            115.9615         estimate D2E/DX2                !
 ! A27   A(10,11,12)           124.1841         estimate D2E/DX2                !
 ! A28   A(10,11,13)           116.3838         estimate D2E/DX2                !
 ! A29   A(12,11,13)           119.4317         estimate D2E/DX2                !
 ! A30   A(7,12,11)            119.2739         estimate D2E/DX2                !
 ! A31   A(11,13,14)           132.6418         estimate D2E/DX2                !
 ! A32   A(11,13,44)           109.878          estimate D2E/DX2                !
 ! A33   A(14,13,44)           117.2109         estimate D2E/DX2                !
 ! A34   A(13,14,15)           119.5194         estimate D2E/DX2                !
 ! A35   A(13,14,19)           121.6623         estimate D2E/DX2                !
 ! A36   A(15,14,19)           118.8183         estimate D2E/DX2                !
 ! A37   A(14,15,16)           117.166          estimate D2E/DX2                !
 ! A38   A(14,15,37)           123.3928         estimate D2E/DX2                !
 ! A39   A(16,15,37)           119.441          estimate D2E/DX2                !
 ! A40   A(15,16,17)           123.9822         estimate D2E/DX2                !
 ! A41   A(15,16,45)           119.173          estimate D2E/DX2                !
 ! A42   A(17,16,45)           116.8384         estimate D2E/DX2                !
 ! A43   A(16,17,18)           118.1266         estimate D2E/DX2                !
 ! A44   A(16,17,46)           121.667          estimate D2E/DX2                !
 ! A45   A(18,17,46)           120.2011         estimate D2E/DX2                !
 ! A46   A(17,18,19)           119.2714         estimate D2E/DX2                !
 ! A47   A(17,18,20)           126.1781         estimate D2E/DX2                !
 ! A48   A(19,18,20)           114.535          estimate D2E/DX2                !
 ! A49   A(14,19,18)           122.6144         estimate D2E/DX2                !
 ! A50   A(14,19,47)           118.1925         estimate D2E/DX2                !
 ! A51   A(18,19,47)           119.1646         estimate D2E/DX2                !
 ! A52   A(18,20,21)           131.6447         estimate D2E/DX2                !
 ! A53   A(18,20,48)           113.6687         estimate D2E/DX2                !
 ! A54   A(21,20,48)           114.5083         estimate D2E/DX2                !
 ! A55   A(20,21,22)           116.7188         estimate D2E/DX2                !
 ! A56   A(20,21,36)           122.9052         estimate D2E/DX2                !
 ! A57   A(22,21,36)           120.3679         estimate D2E/DX2                !
 ! A58   A(21,22,23)           122.771          estimate D2E/DX2                !
 ! A59   A(21,22,27)           118.4251         estimate D2E/DX2                !
 ! A60   A(23,22,27)           118.8031         estimate D2E/DX2                !
 ! A61   A(22,23,24)           120.4446         estimate D2E/DX2                !
 ! A62   A(22,23,49)           119.6262         estimate D2E/DX2                !
 ! A63   A(24,23,49)           119.9289         estimate D2E/DX2                !
 ! A64   A(23,24,25)           121.3481         estimate D2E/DX2                !
 ! A65   A(23,24,50)           118.5608         estimate D2E/DX2                !
 ! A66   A(25,24,50)           120.0869         estimate D2E/DX2                !
 ! A67   A(24,25,26)           117.5664         estimate D2E/DX2                !
 ! A68   A(24,25,28)           121.131          estimate D2E/DX2                !
 ! A69   A(26,25,28)           121.248          estimate D2E/DX2                !
 ! A70   A(25,26,27)           121.4788         estimate D2E/DX2                !
 ! A71   A(25,26,51)           120.001          estimate D2E/DX2                !
 ! A72   A(27,26,51)           118.5187         estimate D2E/DX2                !
 ! A73   A(22,27,26)           120.252          estimate D2E/DX2                !
 ! A74   A(22,27,52)           118.5771         estimate D2E/DX2                !
 ! A75   A(26,27,52)           121.1451         estimate D2E/DX2                !
 ! A76   A(25,28,29)           118.8401         estimate D2E/DX2                !
 ! A77   A(25,28,53)           108.5565         estimate D2E/DX2                !
 ! A78   A(25,28,54)           108.4607         estimate D2E/DX2                !
 ! A79   A(29,28,53)           107.0344         estimate D2E/DX2                !
 ! A80   A(29,28,54)           106.6985         estimate D2E/DX2                !
 ! A81   A(53,28,54)           106.6371         estimate D2E/DX2                !
 ! A82   A(28,29,30)           119.0494         estimate D2E/DX2                !
 ! A83   A(28,29,35)           118.5933         estimate D2E/DX2                !
 ! A84   A(30,29,35)           110.3455         estimate D2E/DX2                !
 ! A85   A(29,30,31)           114.7163         estimate D2E/DX2                !
 ! A86   A(29,30,55)           110.8555         estimate D2E/DX2                !
 ! A87   A(29,30,56)           106.4197         estimate D2E/DX2                !
 ! A88   A(31,30,55)           112.8126         estimate D2E/DX2                !
 ! A89   A(31,30,56)           105.0152         estimate D2E/DX2                !
 ! A90   A(55,30,56)           106.2688         estimate D2E/DX2                !
 ! A91   A(30,31,32)           114.1383         estimate D2E/DX2                !
 ! A92   A(30,31,57)           106.9197         estimate D2E/DX2                !
 ! A93   A(30,31,58)           111.243          estimate D2E/DX2                !
 ! A94   A(32,31,57)           108.463          estimate D2E/DX2                !
 ! A95   A(32,31,58)           107.9187         estimate D2E/DX2                !
 ! A96   A(57,31,58)           107.9653         estimate D2E/DX2                !
 ! A97   A(31,32,33)           116.7487         estimate D2E/DX2                !
 ! A98   A(31,32,34)           108.9691         estimate D2E/DX2                !
 ! A99   A(33,32,34)           116.273          estimate D2E/DX2                !
 ! A100  A(32,33,59)           111.0692         estimate D2E/DX2                !
 ! A101  A(32,33,60)           110.1965         estimate D2E/DX2                !
 ! A102  A(32,33,61)           110.1325         estimate D2E/DX2                !
 ! A103  A(59,33,60)           108.8399         estimate D2E/DX2                !
 ! A104  A(59,33,61)           108.7574         estimate D2E/DX2                !
 ! A105  A(60,33,61)           107.7654         estimate D2E/DX2                !
 ! A106  A(32,34,35)           114.4468         estimate D2E/DX2                !
 ! A107  A(32,34,62)           109.451          estimate D2E/DX2                !
 ! A108  A(32,34,63)           106.7252         estimate D2E/DX2                !
 ! A109  A(35,34,62)           111.2046         estimate D2E/DX2                !
 ! A110  A(35,34,63)           107.311          estimate D2E/DX2                !
 ! A111  A(62,34,63)           107.3453         estimate D2E/DX2                !
 ! A112  A(29,35,34)           115.1499         estimate D2E/DX2                !
 ! A113  A(29,35,64)           106.9658         estimate D2E/DX2                !
 ! A114  A(29,35,65)           110.4374         estimate D2E/DX2                !
 ! A115  A(34,35,64)           105.3472         estimate D2E/DX2                !
 ! A116  A(34,35,65)           111.6093         estimate D2E/DX2                !
 ! A117  A(64,35,65)           106.7489         estimate D2E/DX2                !
 ! A118  A(15,37,66)           111.3651         estimate D2E/DX2                !
 ! A119  A(15,37,67)           111.4993         estimate D2E/DX2                !
 ! A120  A(15,37,68)           112.9513         estimate D2E/DX2                !
 ! A121  A(66,37,67)           107.5194         estimate D2E/DX2                !
 ! A122  A(66,37,68)           106.6555         estimate D2E/DX2                !
 ! A123  A(67,37,68)           106.516          estimate D2E/DX2                !
 ! D1    D(6,1,2,3)             -0.9701         estimate D2E/DX2                !
 ! D2    D(6,1,2,39)          -179.3823         estimate D2E/DX2                !
 ! D3    D(38,1,2,3)           178.5395         estimate D2E/DX2                !
 ! D4    D(38,1,2,39)            0.1273         estimate D2E/DX2                !
 ! D5    D(2,1,6,5)              0.2311         estimate D2E/DX2                !
 ! D6    D(2,1,6,41)          -179.8875         estimate D2E/DX2                !
 ! D7    D(38,1,6,5)          -179.2816         estimate D2E/DX2                !
 ! D8    D(38,1,6,41)            0.5998         estimate D2E/DX2                !
 ! D9    D(1,2,3,4)              1.3674         estimate D2E/DX2                !
 ! D10   D(1,2,3,7)           -177.0792         estimate D2E/DX2                !
 ! D11   D(39,2,3,4)           179.7643         estimate D2E/DX2                !
 ! D12   D(39,2,3,7)             1.3176         estimate D2E/DX2                !
 ! D13   D(2,3,4,5)             -1.1153         estimate D2E/DX2                !
 ! D14   D(2,3,4,40)           179.8873         estimate D2E/DX2                !
 ! D15   D(7,3,4,5)            177.3777         estimate D2E/DX2                !
 ! D16   D(7,3,4,40)            -1.6198         estimate D2E/DX2                !
 ! D17   D(2,3,7,8)            -77.2607         estimate D2E/DX2                !
 ! D18   D(2,3,7,12)           102.141          estimate D2E/DX2                !
 ! D19   D(4,3,7,8)            104.3351         estimate D2E/DX2                !
 ! D20   D(4,3,7,12)           -76.2633         estimate D2E/DX2                !
 ! D21   D(3,4,5,6)              0.3921         estimate D2E/DX2                !
 ! D22   D(40,4,5,6)           179.4229         estimate D2E/DX2                !
 ! D23   D(4,5,6,1)              0.0697         estimate D2E/DX2                !
 ! D24   D(4,5,6,41)          -179.817          estimate D2E/DX2                !
 ! D25   D(3,7,8,9)            178.3938         estimate D2E/DX2                !
 ! D26   D(3,7,8,42)            -1.0734         estimate D2E/DX2                !
 ! D27   D(12,7,8,9)            -0.9614         estimate D2E/DX2                !
 ! D28   D(12,7,8,42)          179.5715         estimate D2E/DX2                !
 ! D29   D(3,7,12,11)         -178.5762         estimate D2E/DX2                !
 ! D30   D(8,7,12,11)            0.8589         estimate D2E/DX2                !
 ! D31   D(7,8,9,10)             0.4055         estimate D2E/DX2                !
 ! D32   D(7,8,9,43)          -179.4614         estimate D2E/DX2                !
 ! D33   D(42,8,9,10)          179.8829         estimate D2E/DX2                !
 ! D34   D(42,8,9,43)            0.016          estimate D2E/DX2                !
 ! D35   D(8,9,10,11)            0.2456         estimate D2E/DX2                !
 ! D36   D(43,9,10,11)        -179.8817         estimate D2E/DX2                !
 ! D37   D(9,10,11,12)          -0.4025         estimate D2E/DX2                !
 ! D38   D(9,10,11,13)         179.8095         estimate D2E/DX2                !
 ! D39   D(10,11,12,7)          -0.1419         estimate D2E/DX2                !
 ! D40   D(13,11,12,7)         179.6401         estimate D2E/DX2                !
 ! D41   D(10,11,13,14)       -175.8555         estimate D2E/DX2                !
 ! D42   D(10,11,13,44)         -2.154          estimate D2E/DX2                !
 ! D43   D(12,11,13,14)          4.3459         estimate D2E/DX2                !
 ! D44   D(12,11,13,44)        178.0474         estimate D2E/DX2                !
 ! D45   D(11,13,14,15)        163.1848         estimate D2E/DX2                !
 ! D46   D(11,13,14,19)        -16.7223         estimate D2E/DX2                !
 ! D47   D(44,13,14,15)        -10.1532         estimate D2E/DX2                !
 ! D48   D(44,13,14,19)        169.9397         estimate D2E/DX2                !
 ! D49   D(13,14,15,16)        179.9942         estimate D2E/DX2                !
 ! D50   D(13,14,15,37)         -0.1673         estimate D2E/DX2                !
 ! D51   D(19,14,15,16)         -0.096          estimate D2E/DX2                !
 ! D52   D(19,14,15,37)        179.7425         estimate D2E/DX2                !
 ! D53   D(13,14,19,18)        178.7274         estimate D2E/DX2                !
 ! D54   D(13,14,19,47)          0.686          estimate D2E/DX2                !
 ! D55   D(15,14,19,18)         -1.1804         estimate D2E/DX2                !
 ! D56   D(15,14,19,47)       -179.2217         estimate D2E/DX2                !
 ! D57   D(14,15,16,17)          1.1712         estimate D2E/DX2                !
 ! D58   D(14,15,16,45)       -179.7813         estimate D2E/DX2                !
 ! D59   D(37,15,16,17)       -178.674          estimate D2E/DX2                !
 ! D60   D(37,15,16,45)          0.3734         estimate D2E/DX2                !
 ! D61   D(14,15,37,66)         63.5999         estimate D2E/DX2                !
 ! D62   D(14,15,37,67)        -56.4996         estimate D2E/DX2                !
 ! D63   D(14,15,37,68)       -176.4079         estimate D2E/DX2                !
 ! D64   D(16,15,37,66)       -116.5651         estimate D2E/DX2                !
 ! D65   D(16,15,37,67)        123.3355         estimate D2E/DX2                !
 ! D66   D(16,15,37,68)          3.4272         estimate D2E/DX2                !
 ! D67   D(15,16,17,18)         -0.9534         estimate D2E/DX2                !
 ! D68   D(15,16,17,46)        178.208          estimate D2E/DX2                !
 ! D69   D(45,16,17,18)        179.9787         estimate D2E/DX2                !
 ! D70   D(45,16,17,46)         -0.8599         estimate D2E/DX2                !
 ! D71   D(16,17,18,19)         -0.3482         estimate D2E/DX2                !
 ! D72   D(16,17,18,20)        178.1344         estimate D2E/DX2                !
 ! D73   D(46,17,18,19)       -179.5224         estimate D2E/DX2                !
 ! D74   D(46,17,18,20)         -1.0397         estimate D2E/DX2                !
 ! D75   D(17,18,19,14)          1.4179         estimate D2E/DX2                !
 ! D76   D(17,18,19,47)        179.441          estimate D2E/DX2                !
 ! D77   D(20,18,19,14)       -177.2358         estimate D2E/DX2                !
 ! D78   D(20,18,19,47)          0.7873         estimate D2E/DX2                !
 ! D79   D(17,18,20,21)         -8.1438         estimate D2E/DX2                !
 ! D80   D(17,18,20,48)        177.0675         estimate D2E/DX2                !
 ! D81   D(19,18,20,21)        170.4013         estimate D2E/DX2                !
 ! D82   D(19,18,20,48)         -4.3875         estimate D2E/DX2                !
 ! D83   D(18,20,21,22)       -168.0085         estimate D2E/DX2                !
 ! D84   D(18,20,21,36)         13.0262         estimate D2E/DX2                !
 ! D85   D(48,20,21,22)          6.7458         estimate D2E/DX2                !
 ! D86   D(48,20,21,36)       -172.2194         estimate D2E/DX2                !
 ! D87   D(20,21,22,23)         35.852          estimate D2E/DX2                !
 ! D88   D(20,21,22,27)       -144.4819         estimate D2E/DX2                !
 ! D89   D(36,21,22,23)       -145.1549         estimate D2E/DX2                !
 ! D90   D(36,21,22,27)         34.5112         estimate D2E/DX2                !
 ! D91   D(21,22,23,24)       -177.4959         estimate D2E/DX2                !
 ! D92   D(21,22,23,49)          2.7081         estimate D2E/DX2                !
 ! D93   D(27,22,23,24)          2.8392         estimate D2E/DX2                !
 ! D94   D(27,22,23,49)       -176.9567         estimate D2E/DX2                !
 ! D95   D(21,22,27,26)        176.3873         estimate D2E/DX2                !
 ! D96   D(21,22,27,52)         -1.7876         estimate D2E/DX2                !
 ! D97   D(23,22,27,26)         -3.9331         estimate D2E/DX2                !
 ! D98   D(23,22,27,52)        177.892          estimate D2E/DX2                !
 ! D99   D(22,23,24,25)         -0.176          estimate D2E/DX2                !
 ! D100  D(22,23,24,50)        179.0707         estimate D2E/DX2                !
 ! D101  D(49,23,24,25)        179.6194         estimate D2E/DX2                !
 ! D102  D(49,23,24,50)         -1.1339         estimate D2E/DX2                !
 ! D103  D(23,24,25,26)         -1.3834         estimate D2E/DX2                !
 ! D104  D(23,24,25,28)        175.9633         estimate D2E/DX2                !
 ! D105  D(50,24,25,26)        179.3812         estimate D2E/DX2                !
 ! D106  D(50,24,25,28)         -3.2721         estimate D2E/DX2                !
 ! D107  D(24,25,26,27)          0.2676         estimate D2E/DX2                !
 ! D108  D(24,25,26,51)        179.8286         estimate D2E/DX2                !
 ! D109  D(28,25,26,27)       -177.0759         estimate D2E/DX2                !
 ! D110  D(28,25,26,51)          2.4851         estimate D2E/DX2                !
 ! D111  D(24,25,28,29)        -82.8353         estimate D2E/DX2                !
 ! D112  D(24,25,28,53)         39.6865         estimate D2E/DX2                !
 ! D113  D(24,25,28,54)        155.1832         estimate D2E/DX2                !
 ! D114  D(26,25,28,29)         94.4134         estimate D2E/DX2                !
 ! D115  D(26,25,28,53)       -143.0648         estimate D2E/DX2                !
 ! D116  D(26,25,28,54)        -27.5681         estimate D2E/DX2                !
 ! D117  D(25,26,27,22)          2.4137         estimate D2E/DX2                !
 ! D118  D(25,26,27,52)       -179.459          estimate D2E/DX2                !
 ! D119  D(51,26,27,22)       -177.1536         estimate D2E/DX2                !
 ! D120  D(51,26,27,52)          0.9737         estimate D2E/DX2                !
 ! D121  D(25,28,29,30)         74.6677         estimate D2E/DX2                !
 ! D122  D(25,28,29,35)        -64.4194         estimate D2E/DX2                !
 ! D123  D(53,28,29,30)        -48.6094         estimate D2E/DX2                !
 ! D124  D(53,28,29,35)        172.3036         estimate D2E/DX2                !
 ! D125  D(54,28,29,30)       -162.4717         estimate D2E/DX2                !
 ! D126  D(54,28,29,35)         58.4412         estimate D2E/DX2                !
 ! D127  D(28,29,30,31)        -94.4323         estimate D2E/DX2                !
 ! D128  D(28,29,30,55)         34.7733         estimate D2E/DX2                !
 ! D129  D(28,29,30,56)        149.9114         estimate D2E/DX2                !
 ! D130  D(35,29,30,31)         47.7392         estimate D2E/DX2                !
 ! D131  D(35,29,30,55)        176.9448         estimate D2E/DX2                !
 ! D132  D(35,29,30,56)        -67.9171         estimate D2E/DX2                !
 ! D133  D(28,29,35,34)         95.6297         estimate D2E/DX2                !
 ! D134  D(28,29,35,64)       -147.6956         estimate D2E/DX2                !
 ! D135  D(28,29,35,65)        -31.8968         estimate D2E/DX2                !
 ! D136  D(30,29,35,34)        -46.736          estimate D2E/DX2                !
 ! D137  D(30,29,35,64)         69.9387         estimate D2E/DX2                !
 ! D138  D(30,29,35,65)       -174.2625         estimate D2E/DX2                !
 ! D139  D(29,30,31,32)        -52.9579         estimate D2E/DX2                !
 ! D140  D(29,30,31,57)       -172.8956         estimate D2E/DX2                !
 ! D141  D(29,30,31,58)         69.449          estimate D2E/DX2                !
 ! D142  D(55,30,31,32)        178.8148         estimate D2E/DX2                !
 ! D143  D(55,30,31,57)         58.8771         estimate D2E/DX2                !
 ! D144  D(55,30,31,58)        -58.7783         estimate D2E/DX2                !
 ! D145  D(56,30,31,32)         63.5068         estimate D2E/DX2                !
 ! D146  D(56,30,31,57)        -56.4309         estimate D2E/DX2                !
 ! D147  D(56,30,31,58)       -174.0863         estimate D2E/DX2                !
 ! D148  D(30,31,32,33)        -82.1552         estimate D2E/DX2                !
 ! D149  D(30,31,32,34)         52.0634         estimate D2E/DX2                !
 ! D150  D(57,31,32,33)         36.9124         estimate D2E/DX2                !
 ! D151  D(57,31,32,34)        171.1311         estimate D2E/DX2                !
 ! D152  D(58,31,32,33)        153.6379         estimate D2E/DX2                !
 ! D153  D(58,31,32,34)        -72.1435         estimate D2E/DX2                !
 ! D154  D(31,32,33,59)         65.5082         estimate D2E/DX2                !
 ! D155  D(31,32,33,60)        -55.1856         estimate D2E/DX2                !
 ! D156  D(31,32,33,61)       -173.9442         estimate D2E/DX2                !
 ! D157  D(34,32,33,59)        -65.3925         estimate D2E/DX2                !
 ! D158  D(34,32,33,60)        173.9137         estimate D2E/DX2                !
 ! D159  D(34,32,33,61)         55.1551         estimate D2E/DX2                !
 ! D160  D(31,32,34,35)        -50.9856         estimate D2E/DX2                !
 ! D161  D(31,32,34,62)       -176.5712         estimate D2E/DX2                !
 ! D162  D(31,32,34,63)         67.5632         estimate D2E/DX2                !
 ! D163  D(33,32,34,35)         83.4759         estimate D2E/DX2                !
 ! D164  D(33,32,34,62)        -42.1097         estimate D2E/DX2                !
 ! D165  D(33,32,34,63)       -157.9754         estimate D2E/DX2                !
 ! D166  D(32,34,35,29)         50.7239         estimate D2E/DX2                !
 ! D167  D(32,34,35,64)        -66.8659         estimate D2E/DX2                !
 ! D168  D(32,34,35,65)        177.6576         estimate D2E/DX2                !
 ! D169  D(62,34,35,29)        175.3859         estimate D2E/DX2                !
 ! D170  D(62,34,35,64)         57.7961         estimate D2E/DX2                !
 ! D171  D(62,34,35,65)        -57.6805         estimate D2E/DX2                !
 ! D172  D(63,34,35,29)        -67.493          estimate D2E/DX2                !
 ! D173  D(63,34,35,64)        174.9172         estimate D2E/DX2                !
 ! D174  D(63,34,35,65)         59.4406         estimate D2E/DX2                !
 --------------------------------------------------------------------------------
 Trust Radius=3.00D-01 FncErr=1.00D-07 GrdErr=1.00D-06
 Number of steps in this run= 400 maximum allowed number of steps= 408.
 GradGradGradGradGradGradGradGradGradGradGradGradGradGradGradGradGradGrad

 Leave Link  103 at Sat Mar 28 23:14:39 2020, MaxMem= 2684354560 cpu:       1.1
 (Enter /opt/g09gh/gaussian/g09/l202.exe)
 Stoichiometry    C29H31N7O
 Framework group  C1[X(C29H31N7O)]
 Deg. of freedom   198
 Full point group                 C1      NOp   1
 Largest Abelian subgroup         C1      NOp   1
 Largest concise Abelian subgroup C1      NOp   1
                         Standard orientation:                         
 ---------------------------------------------------------------------
 Center     Atomic      Atomic             Coordinates (Angstroms)
 Number     Number       Type             X           Y           Z
 ---------------------------------------------------------------------
      1          6           0        0.587538   -3.554438   -0.117466
      2          6           0       -0.750029   -3.490319    0.293246
      3          6           0       -1.725826   -3.027344   -0.605363
      4          6           0       -1.292632   -2.675822   -1.902543
      5          7           0       -0.018065   -2.738007   -2.310571
      6          6           0        0.897681   -3.169510   -1.428059
      7          6           0       -3.162170   -2.867570   -0.229131
      8          6           0       -4.101886   -3.896236   -0.109646
      9          6           0       -5.378850   -3.484817    0.291858
     10          7           0       -5.720640   -2.221930    0.543574
     11          6           0       -4.744074   -1.302346    0.385528
     12          7           0       -3.496699   -1.590566    0.010469
     13          7           0       -5.091184    0.014723    0.641126
     14          6           0       -4.369429    1.259621    0.512667
     15          6           0       -5.089067    2.492828    0.508253
     16          6           0       -4.337579    3.674037    0.380785
     17          6           0       -2.945169    3.704009    0.236228
     18          6           0       -2.255904    2.487273    0.237590
     19          6           0       -2.974845    1.291436    0.389610
     20          7           0       -0.846757    2.315173    0.065440
     21          6           0        0.145839    3.200566   -0.278979
     22          6           0        1.494021    2.606939   -0.639924
     23          6           0        1.629271    1.390045   -1.329854
     24          6           0        2.894887    0.862190   -1.591677
     25          6           0        4.064904    1.527188   -1.180305
     26          6           0        3.914746    2.762133   -0.519529
     27          6           0        2.653086    3.309202   -0.273561
     28          6           0        5.444722    0.901358   -1.388326
     29          7           0        5.934806   -0.082439   -0.405820
     30          6           0        5.366211   -1.448763   -0.412074
     31          6           0        4.189213   -1.665460    0.572976
     32          7           0        4.486660   -1.268719    1.968940
     33          6           0        5.213785   -2.242477    2.791729
     34          6           0        5.012839    0.118785    1.974380
     35          6           0        6.181652    0.366278    0.984029
     36          8           0       -0.016988    4.410225   -0.283766
     37          6           0       -6.600660    2.579059    0.629345
     38          1           0        1.368414   -3.885252    0.560316
     39          1           0       -1.018298   -3.773596    1.308746
     40          1           0       -2.012861   -2.313820   -2.633590
     41          1           0        1.924228   -3.205446   -1.789563
     42          1           0       -3.873724   -4.938306   -0.300616
     43          1           0       -6.174941   -4.217387    0.420686
     44          1           0       -6.069615    0.071308    0.880856
     45          1           0       -4.853260    4.633787    0.377203
     46          1           0       -2.406133    4.635601    0.112204
     47          1           0       -2.441717    0.352022    0.381285
     48          1           0       -0.542535    1.354927    0.145904
     49          1           0        0.740311    0.859617   -1.663875
     50          1           0        2.963720   -0.091355   -2.115567
     51          1           0        4.794183    3.309644   -0.181348
     52          1           0        2.543777    4.266910    0.229164
     53          1           0        5.461468    0.409954   -2.372197
     54          1           0        6.190796    1.708184   -1.426663
     55          1           0        5.138207   -1.757081   -1.397395
     56          1           0        6.514693   -2.414641    0.101166
     57          1           0        3.871685   -3.113279    0.553925
     58          1           0        3.239185   -1.084633    0.229903
     59          1           0        6.227445   -2.403542    2.407957
     60          1           0        4.682676   -3.200950    2.801570
     61          1           0        5.280990   -1.886704    3.826360
     62          1           0        5.305723    0.411491    3.042419
     63          1           0        3.896240    0.999130    1.566306
     64          1           0        7.388075   -0.491253    1.538106
     65          1           0        6.514915    1.440831    0.996612
     66          1           0       -6.947191    2.195510    1.599349
     67          1           0       -7.101637    1.994942   -0.155524
     68          1           0       -6.979419    3.606897    0.543607
 ---------------------------------------------------------------------
 Rotational constants (GHZ):      0.1368060      0.0611239      0.0467176
 Leave Link  202 at Sat Mar 28 23:14:40 2020, MaxMem= 2684354560 cpu:       0.0
 (Enter /opt/g09gh/gaussian/g09/l301.exe)
 Standard basis: 6-31G(d) (6D, 7F)
 Ernie: Thresh=  0.10000D-02 Tol=  0.10000D-05 Strict=F.
 There are   617 symmetry adapted basis functions of A   symmetry.
 Integral buffers will be    131072 words long.
 Raffenetti 2 integral format.
 Two-electron integral symmetry is turned on.
   617 basis functions,  1160 primitive gaussians,   617 cartesian basis functions
   131 alpha electrons      131 beta electrons
       nuclear repulsion energy      3795.6267772177 Hartrees.
 IExCor= 4639 DFT=T Ex+Corr=wB97XD ExCW=0 ScaHFX=  1.000000
 ScaDFX=  1.000000  1.000000  1.000000  1.000000 ScalE2=  1.000000  1.000000
 IRadAn=      0 IRanWt=     -1 IRanGd=            0 ICorTp=0
  HFx wShort=  0.000000 wLong=  0.200000 cFull=  0.222036 cShort=  0.000000 cLong=  0.777964
  DFx wShort=  0.000000 wLong=  0.200000 cFull=  0.000000 cShort=  0.000000 cLong=  1.000000
 NAtoms=   68 NActive=   68 NUniq=   68 SFac= 7.50D-01 NAtFMM=   80 NAOKFM=F Big=T
 R6Disp: Dispersion energy =        -0.0581295859 Hartrees.
 Nuclear repulsion after empirical dispersion term =     3795.5686476319 Hartrees.
 Leave Link  301 at Sat Mar 28 23:14:40 2020, MaxMem= 2684354560 cpu:       0.2
 (Enter /opt/g09gh/gaussian/g09/l302.exe)
 NPDir=0 NMtPBC=     1 NCelOv=     1 NCel=       1 NClECP=     1 NCelD=      1
         NCelK=      1 NCelE2=     1 NClLst=     1 CellRange=     0.0.
 One-electron integrals computed using PRISM.
 NBasis=   617 RedAO= T  NBF=   617
 NBsUse=   617 1.00D-06 NBFU=   617
 Precomputing XC quadrature grid using
 IXCGrd= 2 IRadAn=           0 IRanWt=          -1 IRanGd=           0 AccXCQ= 1.00D-10.
 NRdTot=    4372 NPtTot=      558940 NUsed=      590441 NTot=      590473
 NSgBfM=   602   602   602   602   602 NAtAll=    68    68.
 Leave Link  302 at Sat Mar 28 23:14:41 2020, MaxMem= 2684354560 cpu:       7.0
 (Enter /opt/g09gh/gaussian/g09/l303.exe)
 DipDrv:  MaxL=1.
 Leave Link  303 at Sat Mar 28 23:14:41 2020, MaxMem= 2684354560 cpu:       0.5
 (Enter /opt/g09gh/gaussian/g09/l401.exe)
 Harris functional with IExCor= 4639 diagonalized for initial guess.
 ExpMin= 1.61D-01 ExpMax= 5.48D+03 ExpMxC= 8.25D+02 IAcc=1 IRadAn=         1 AccDes= 0.00D+00
 HarFok:  IExCor= 4639 AccDes= 0.00D+00 IRadAn=         1 IDoV= 1
 ScaDFX=  1.000000  1.000000  1.000000  1.000000
 FoFCou: FMM=F IPFlag=           0 FMFlag=      100000 FMFlg1=           1
         NFxFlg=           0 DoJE=T BraDBF=F KetDBF=T FulRan=T
         Omega=  0.000000  0.000000  1.000000  0.000000  0.000000 ICntrl=     500 IOpCl=  0
         NMat0=    1 NMatS0=    1 NMatT0=    0 NMatD0=    1 NMtDS0=    0 NMtDT0=    0
         I1Cent=           4 NGrid=           0.
 Petite list used in FoFCou.
 Harris En= -1512.39780602174    
 Initial guess orbital symmetries:
       Occupied  (A) (A) (A) (A) (A) (A) (A) (A) (A) (A) (A) (A)
                 (A) (A) (A) (A) (A) (A) (A) (A) (A) (A) (A) (A)
                 (A) (A) (A) (A) (A) (A) (A) (A) (A) (A) (A) (A)
                 (A) (A) (A) (A) (A) (A) (A) (A) (A) (A) (A) (A)
                 (A) (A) (A) (A) (A) (A) (A) (A) (A) (A) (A) (A)
                 (A) (A) (A) (A) (A) (A) (A) (A) (A) (A) (A) (A)
                 (A) (A) (A) (A) (A) (A) (A) (A) (A) (A) (A) (A)
                 (A) (A) (A) (A) (A) (A) (A) (A) (A) (A) (A) (A)
                 (A) (A) (A) (A) (A) (A) (A) (A) (A) (A) (A) (A)
                 (A) (A) (A) (A) (A) (A) (A) (A) (A) (A) (A) (A)
                 (A) (A) (A) (A) (A) (A) (A) (A) (A) (A) (A)
       Virtual   (A) (A) (A) (A) (A) (A) (A) (A) (A) (A) (A) (A)
                 (A) (A) (A) (A) (A) (A) (A) (A) (A) (A) (A) (A)
                 (A) (A) (A) (A) (A) (A) (A) (A) (A) (A) (A) (A)
                 (A) (A) (A) (A) (A) (A) (A) (A) (A) (A) (A) (A)
                 (A) (A) (A) (A) (A) (A) (A) (A) (A) (A) (A) (A)
                 (A) (A) (A) (A) (A) (A) (A) (A) (A) (A) (A) (A)
                 (A) (A) (A) (A) (A) (A) (A) (A) (A) (A) (A) (A)
                 (A) (A) (A) (A) (A) (A) (A) (A) (A) (A) (A) (A)
                 (A) (A) (A) (A) (A) (A) (A) (A) (A) (A) (A) (A)
                 (A) (A) (A) (A) (A) (A) (A) (A) (A) (A) (A) (A)
                 (A) (A) (A) (A) (A) (A) (A) (A) (A) (A) (A) (A)
                 (A) (A) (A) (A) (A) (A) (A) (A) (A) (A) (A) (A)
                 (A) (A) (A) (A) (A) (A) (A) (A) (A) (A) (A) (A)
                 (A) (A) (A) (A) (A) (A) (A) (A) (A) (A) (A) (A)
                 (A) (A) (A) (A) (A) (A) (A) (A) (A) (A) (A) (A)
                 (A) (A) (A) (A) (A) (A) (A) (A) (A) (A) (A) (A)
                 (A) (A) (A) (A) (A) (A) (A) (A) (A) (A) (A) (A)
                 (A) (A) (A) (A) (A) (A) (A) (A) (A) (A) (A) (A)
                 (A) (A) (A) (A) (A) (A) (A) (A) (A) (A) (A) (A)
                 (A) (A) (A) (A) (A) (A) (A) (A) (A) (A) (A) (A)
                 (A) (A) (A) (A) (A) (A) (A) (A) (A) (A) (A) (A)
                 (A) (A) (A) (A) (A) (A) (A) (A) (A) (A) (A) (A)
                 (A) (A) (A) (A) (A) (A) (A) (A) (A) (A) (A) (A)
                 (A) (A) (A) (A) (A) (A) (A) (A) (A) (A) (A) (A)
                 (A) (A) (A) (A) (A) (A) (A) (A) (A) (A) (A) (A)
                 (A) (A) (A) (A) (A) (A) (A) (A) (A) (A) (A) (A)
                 (A) (A) (A) (A) (A) (A) (A) (A) (A) (A) (A) (A)
                 (A) (A) (A) (A) (A) (A) (A) (A) (A) (A) (A) (A)
                 (A) (A) (A) (A) (A) (A) (A) (A) (A) (A) (A) (A)
                 (A) (A) (A) (A) (A) (A) (A) (A) (A) (A) (A) (A)
                 (A) (A) (A) (A) (A) (A) (A) (A) (A) (A) (A) (A)
                 (A) (A) (A) (A) (A) (A) (A) (A) (A) (A) (A) (A)
                 (A) (A) (A) (A) (A) (A) (A) (A) (A) (A) (A) (A)
                 (A) (A) (A) (A) (A) (A) (A) (A) (A) (A) (A) (A)
                 (A) (A) (A) (A) (A) (A) (A) (A) (A) (A) (A) (A)
                 (A) (A) (A) (A) (A) (A) (A) (A) (A) (A) (A) (A)
                 (A) (A) (A) (A) (A) (A) (A) (A) (A) (A) (A) (A)
                 (A) (A) (A) (A) (A) (A) (A) (A) (A) (A) (A) (A)
                 (A) (A) (A) (A) (A) (A) (A) (A) (A) (A) (A) (A)
                 (A) (A) (A) (A) (A) (A) (A) (A) (A) (A) (A) (A)
                 (A) (A) (A) (A) (A) (A)
 The electronic state of the initial guess is 1-A.
 Leave Link  401 at Sat Mar 28 23:14:43 2020, MaxMem= 2684354560 cpu:      14.7
 (Enter /opt/g09gh/gaussian/g09/l502.exe)
 Closed shell SCF:
 Requested convergence on RMS density matrix=1.00D-08 within 128 cycles.
 Requested convergence on MAX density matrix=1.00D-06.
 Requested convergence on             energy=1.00D-06.
 No special actions if energy rises.
 Using DIIS extrapolation, IDIIS=  1040.
 Integral symmetry usage will be decided dynamically.
       589816 words used for storage of precomputed grid.
 IEnd=     1758396 IEndB=     1758396 NGot=  2684354560 MDV=  2682994111
 LenX=  2682994111 LenY=  2682612805
 Fock matrices will be formed incrementally for  20 cycles.
 Integral accuracy reduced to 1.0D-05 until final iterations.

 Cycle   1  Pass 0  IDiag  1:
 FoFJK:  IHMeth= 1 ICntrl=     0 DoSepK=T KAlg= 1 I1Cent= 0 FoldK=F
 FoFCou: FMM=T IPFlag=           0 FMFlag=      100000 FMFlg1=           1
         NFxFlg=           0 DoJE=T BraDBF=F KetDBF=F FulRan=T
         Omega=  0.000000  0.000000  1.000000  0.000000  0.000000 ICntrl=     500 IOpCl=  0
         NMat0=    1 NMatS0=    1 NMatT0=    0 NMatD0=    1 NMtDS0=    0 NMtDT0=    0
         I1Cent=           0 NGrid=           0.
 Symmetry not used in FoFCou.
 FMM levels:  10  Number of levels for PrismC:   9
 E= -1581.16135416780    
 DIIS: error= 4.64D-02 at cycle   1 NSaved=   1.
 NSaved= 1 IEnMin= 1 EnMin= -1581.16135416780     IErMin= 1 ErrMin= 4.64D-02
 ErrMax= 4.64D-02 EMaxC= 1.00D-01 BMatC= 1.46D+00 BMatP= 1.46D+00
 IDIUse=3 WtCom= 5.36D-01 WtEn= 4.64D-01
 Coeff-Com:  0.100D+01
 Coeff-En:   0.100D+01
 Coeff:      0.100D+01
 Gap=     0.323 Goal=   None    Shift=    0.000
 GapD=    0.323 DampG=1.000 DampE=0.500 DampFc=0.5000 IDamp=-1.
 Damping current iteration by 5.00D-01
 RMSDP=1.86D-03 MaxDP=8.43D-02              OVMax= 1.70D-01

 Cycle   2  Pass 0  IDiag  1:
 RMSU=  6.58D-04    CP:  1.00D+00
 FoFJK:  IHMeth= 1 ICntrl=     0 DoSepK=T KAlg= 1 I1Cent= 0 FoldK=F
 E= -1581.33726328733     Delta-E=       -0.175909119535 Rises=F Damp=T
 DIIS: error= 2.39D-02 at cycle   2 NSaved=   2.
 NSaved= 2 IEnMin= 2 EnMin= -1581.33726328733     IErMin= 2 ErrMin= 2.39D-02
 ErrMax= 2.39D-02 EMaxC= 1.00D-01 BMatC= 3.22D-01 BMatP= 1.46D+00
 IDIUse=3 WtCom= 7.61D-01 WtEn= 2.39D-01
 Coeff-Com: -0.651D+00 0.165D+01
 Coeff-En:   0.000D+00 0.100D+01
 Coeff:     -0.496D+00 0.150D+01
 Gap=     0.313 Goal=   None    Shift=    0.000
 RMSDP=8.78D-04 MaxDP=3.65D-02 DE=-1.76D-01 OVMax= 1.24D-01

 Cycle   3  Pass 0  IDiag  1:
 RMSU=  5.75D-04    CP:  1.00D+00  1.36D+00
 FoFJK:  IHMeth= 1 ICntrl=     0 DoSepK=T KAlg= 1 I1Cent= 0 FoldK=F
 E= -1581.46011434297     Delta-E=       -0.122851055638 Rises=F Damp=F
 DIIS: error= 1.02D-02 at cycle   3 NSaved=   3.
 NSaved= 3 IEnMin= 3 EnMin= -1581.46011434297     IErMin= 3 ErrMin= 1.02D-02
 ErrMax= 1.02D-02 EMaxC= 1.00D-01 BMatC= 6.99D-02 BMatP= 3.22D-01
 IDIUse=3 WtCom= 8.98D-01 WtEn= 1.02D-01
 Coeff-Com: -0.376D+00 0.777D+00 0.600D+00
 Coeff-En:   0.000D+00 0.000D+00 0.100D+01
 Coeff:     -0.338D+00 0.698D+00 0.640D+00
 Gap=     0.295 Goal=   None    Shift=    0.000
 RMSDP=5.00D-04 MaxDP=3.43D-02 DE=-1.23D-01 OVMax= 6.52D-02

 Cycle   4  Pass 0  IDiag  1:
 RMSU=  1.41D-04    CP:  1.00D+00  1.67D+00  5.69D-01
 FoFJK:  IHMeth= 1 ICntrl=     0 DoSepK=T KAlg= 1 I1Cent= 0 FoldK=F
 E= -1581.52158507104     Delta-E=       -0.061470728065 Rises=F Damp=F
 DIIS: error= 2.11D-03 at cycle   4 NSaved=   4.
 NSaved= 4 IEnMin= 4 EnMin= -1581.52158507104     IErMin= 4 ErrMin= 2.11D-03
 ErrMax= 2.11D-03 EMaxC= 1.00D-01 BMatC= 4.34D-03 BMatP= 6.99D-02
 IDIUse=3 WtCom= 9.79D-01 WtEn= 2.11D-02
 Coeff-Com: -0.164D+00 0.335D+00 0.344D+00 0.485D+00
 Coeff-En:   0.000D+00 0.000D+00 0.000D+00 0.100D+01
 Coeff:     -0.161D+00 0.328D+00 0.337D+00 0.496D+00
 Gap=     0.286 Goal=   None    Shift=    0.000
 RMSDP=1.08D-04 MaxDP=9.21D-03 DE=-6.15D-02 OVMax= 1.12D-02

 Cycle   5  Pass 0  IDiag  1:
 RMSU=  4.49D-05    CP:  1.00D+00  1.65D+00  6.46D-01  7.20D-01
 FoFJK:  IHMeth= 1 ICntrl=     0 DoSepK=T KAlg= 1 I1Cent= 0 FoldK=F
 E= -1581.52533187357     Delta-E=       -0.003746802538 Rises=F Damp=F
 DIIS: error= 5.22D-04 at cycle   5 NSaved=   5.
 NSaved= 5 IEnMin= 5 EnMin= -1581.52533187357     IErMin= 5 ErrMin= 5.22D-04
 ErrMax= 5.22D-04 EMaxC= 1.00D-01 BMatC= 8.51D-05 BMatP= 4.34D-03
 IDIUse=3 WtCom= 9.95D-01 WtEn= 5.22D-03
 Coeff-Com: -0.120D-01 0.234D-01 0.487D-01 0.152D+00 0.788D+00
 Coeff-En:   0.000D+00 0.000D+00 0.000D+00 0.000D+00 0.100D+01
 Coeff:     -0.119D-01 0.232D-01 0.484D-01 0.151D+00 0.789D+00
 Gap=     0.285 Goal=   None    Shift=    0.000
 RMSDP=2.45D-05 MaxDP=2.63D-03 DE=-3.75D-03 OVMax= 3.04D-03

 Cycle   6  Pass 0  IDiag  1:
 RMSU=  1.33D-05    CP:  1.00D+00  1.65D+00  6.53D-01  7.88D-01  9.94D-01
 FoFJK:  IHMeth= 1 ICntrl=     0 DoSepK=T KAlg= 1 I1Cent= 0 FoldK=F
 E= -1581.52541681339     Delta-E=       -0.000084939816 Rises=F Damp=F
 DIIS: error= 2.71D-04 at cycle   6 NSaved=   6.
 NSaved= 6 IEnMin= 6 EnMin= -1581.52541681339     IErMin= 6 ErrMin= 2.71D-04
 ErrMax= 2.71D-04 EMaxC= 1.00D-01 BMatC= 2.78D-05 BMatP= 8.51D-05
 IDIUse=3 WtCom= 9.97D-01 WtEn= 2.71D-03
 Coeff-Com:  0.243D-01-0.502D-01-0.370D-01-0.155D-01 0.410D+00 0.668D+00
 Coeff-En:   0.000D+00 0.000D+00 0.000D+00 0.000D+00 0.000D+00 0.100D+01
 Coeff:      0.242D-01-0.501D-01-0.369D-01-0.154D-01 0.409D+00 0.669D+00
 Gap=     0.286 Goal=   None    Shift=    0.000
 RMSDP=1.29D-05 MaxDP=8.27D-04 DE=-8.49D-05 OVMax= 1.62D-03

 Cycle   7  Pass 0  IDiag  1:
 RMSU=  5.67D-06    CP:  1.00D+00  1.65D+00  6.56D-01  8.14D-01  1.11D+00
                    CP:  8.93D-01
 FoFJK:  IHMeth= 1 ICntrl=     0 DoSepK=T KAlg= 1 I1Cent= 0 FoldK=F
 E= -1581.52544717259     Delta-E=       -0.000030359206 Rises=F Damp=F
 DIIS: error= 7.54D-05 at cycle   7 NSaved=   7.
 NSaved= 7 IEnMin= 7 EnMin= -1581.52544717259     IErMin= 7 ErrMin= 7.54D-05
 ErrMax= 7.54D-05 EMaxC= 1.00D-01 BMatC= 1.67D-06 BMatP= 2.78D-05
 IDIUse=1 WtCom= 1.00D+00 WtEn= 0.00D+00
 Coeff-Com:  0.963D-02-0.197D-01-0.168D-01-0.202D-01 0.675D-01 0.229D+00
 Coeff-Com:  0.751D+00
 Coeff:      0.963D-02-0.197D-01-0.168D-01-0.202D-01 0.675D-01 0.229D+00
 Coeff:      0.751D+00
 Gap=     0.286 Goal=   None    Shift=    0.000
 RMSDP=4.09D-06 MaxDP=2.64D-04 DE=-3.04D-05 OVMax= 6.53D-04

 Initial convergence to 1.0D-05 achieved.  Increase integral accuracy.
 Cycle   8  Pass 1  IDiag  1:
 FoFJK:  IHMeth= 1 ICntrl=     0 DoSepK=T KAlg= 1 I1Cent= 0 FoldK=F
 E= -1581.52352918427     Delta-E=        0.001917988328 Rises=F Damp=F
 DIIS: error= 9.37D-05 at cycle   1 NSaved=   1.
 NSaved= 1 IEnMin= 1 EnMin= -1581.52352918427     IErMin= 1 ErrMin= 9.37D-05
 ErrMax= 9.37D-05 EMaxC= 1.00D-01 BMatC= 1.32D-05 BMatP= 1.32D-05
 IDIUse=1 WtCom= 1.00D+00 WtEn= 0.00D+00
 Coeff-Com:  0.100D+01
 Coeff:      0.100D+01
 Gap=     0.286 Goal=   None    Shift=    0.000
 RMSDP=4.09D-06 MaxDP=2.64D-04 DE= 1.92D-03 OVMax= 3.76D-04

 Cycle   9  Pass 1  IDiag  1:
 RMSU=  2.03D-05    CP:  1.00D+00
 FoFJK:  IHMeth= 1 ICntrl=     0 DoSepK=T KAlg= 1 I1Cent= 0 FoldK=F
 E= -1581.52354002573     Delta-E=       -0.000010841464 Rises=F Damp=F
 DIIS: error= 3.71D-05 at cycle   2 NSaved=   2.
 NSaved= 2 IEnMin= 2 EnMin= -1581.52354002573     IErMin= 2 ErrMin= 3.71D-05
 ErrMax= 3.71D-05 EMaxC= 1.00D-01 BMatC= 6.86D-07 BMatP= 1.32D-05
 IDIUse=1 WtCom= 1.00D+00 WtEn= 0.00D+00
 Coeff-Com:  0.222D-01 0.978D+00
 Coeff:      0.222D-01 0.978D+00
 Gap=     0.286 Goal=   None    Shift=    0.000
 RMSDP=3.15D-06 MaxDP=2.17D-04 DE=-1.08D-05 OVMax= 3.24D-04

 Cycle  10  Pass 1  IDiag  1:
 RMSU=  1.99D-06    CP:  1.00D+00  1.05D+00
 FoFJK:  IHMeth= 1 ICntrl=     0 DoSepK=T KAlg= 1 I1Cent= 0 FoldK=F
 E= -1581.52354010097     Delta-E=       -0.000000075243 Rises=F Damp=F
 DIIS: error= 4.01D-05 at cycle   3 NSaved=   3.
 NSaved= 3 IEnMin= 3 EnMin= -1581.52354010097     IErMin= 2 ErrMin= 3.71D-05
 ErrMax= 4.01D-05 EMaxC= 1.00D-01 BMatC= 8.29D-07 BMatP= 6.86D-07
 IDIUse=1 WtCom= 1.00D+00 WtEn= 0.00D+00
 Coeff-Com: -0.396D-01 0.542D+00 0.497D+00
 Coeff:     -0.396D-01 0.542D+00 0.497D+00
 Gap=     0.286 Goal=   None    Shift=    0.000
 RMSDP=1.51D-06 MaxDP=1.26D-04 DE=-7.52D-08 OVMax= 1.56D-04

 Cycle  11  Pass 1  IDiag  1:
 RMSU=  6.19D-07    CP:  1.00D+00  1.06D+00  5.69D-01
 FoFJK:  IHMeth= 1 ICntrl=     0 DoSepK=T KAlg= 1 I1Cent= 0 FoldK=F
 E= -1581.52354083254     Delta-E=       -0.000000731561 Rises=F Damp=F
 DIIS: error= 6.98D-06 at cycle   4 NSaved=   4.
 NSaved= 4 IEnMin= 4 EnMin= -1581.52354083254     IErMin= 4 ErrMin= 6.98D-06
 ErrMax= 6.98D-06 EMaxC= 1.00D-01 BMatC= 2.16D-08 BMatP= 6.86D-07
 IDIUse=1 WtCom= 1.00D+00 WtEn= 0.00D+00
 Coeff-Com: -0.158D-01 0.115D+00 0.169D+00 0.732D+00
 Coeff:     -0.158D-01 0.115D+00 0.169D+00 0.732D+00
 Gap=     0.286 Goal=   None    Shift=    0.000
 RMSDP=3.53D-07 MaxDP=3.53D-05 DE=-7.32D-07 OVMax= 3.55D-05

 Cycle  12  Pass 1  IDiag  1:
 RMSU=  2.16D-07    CP:  1.00D+00  1.06D+00  6.28D-01  1.05D+00
 FoFJK:  IHMeth= 1 ICntrl=     0 DoSepK=T KAlg= 1 I1Cent= 0 FoldK=F
 E= -1581.52354085456     Delta-E=       -0.000000022022 Rises=F Damp=F
 DIIS: error= 3.17D-06 at cycle   5 NSaved=   5.
 NSaved= 5 IEnMin= 5 EnMin= -1581.52354085456     IErMin= 5 ErrMin= 3.17D-06
 ErrMax= 3.17D-06 EMaxC= 1.00D-01 BMatC= 5.18D-09 BMatP= 2.16D-08
 IDIUse=1 WtCom= 1.00D+00 WtEn= 0.00D+00
 Coeff-Com:  0.248D-03-0.444D-01-0.119D-01 0.332D+00 0.724D+00
 Coeff:      0.248D-03-0.444D-01-0.119D-01 0.332D+00 0.724D+00
 Gap=     0.286 Goal=   None    Shift=    0.000
 RMSDP=1.87D-07 MaxDP=1.30D-05 DE=-2.20D-08 OVMax= 2.80D-05

 Cycle  13  Pass 1  IDiag  1:
 RMSU=  9.28D-08    CP:  1.00D+00  1.06D+00  6.45D-01  1.19D+00  9.33D-01
 FoFJK:  IHMeth= 1 ICntrl=     0 DoSepK=T KAlg= 1 I1Cent= 0 FoldK=F
 E= -1581.52354086146     Delta-E=       -0.000000006907 Rises=F Damp=F
 DIIS: error= 7.28D-07 at cycle   6 NSaved=   6.
 NSaved= 6 IEnMin= 6 EnMin= -1581.52354086146     IErMin= 6 ErrMin= 7.28D-07
 ErrMax= 7.28D-07 EMaxC= 1.00D-01 BMatC= 5.26D-10 BMatP= 5.18D-09
 IDIUse=1 WtCom= 1.00D+00 WtEn= 0.00D+00
 Coeff-Com:  0.198D-02-0.284D-01-0.242D-01 0.253D-01 0.258D+00 0.768D+00
 Coeff:      0.198D-02-0.284D-01-0.242D-01 0.253D-01 0.258D+00 0.768D+00
 Gap=     0.286 Goal=   None    Shift=    0.000
 RMSDP=7.99D-08 MaxDP=3.78D-06 DE=-6.91D-09 OVMax= 1.43D-05

 Cycle  14  Pass 1  IDiag  1:
 RMSU=  3.45D-08    CP:  1.00D+00  1.06D+00  6.50D-01  1.25D+00  1.06D+00
                    CP:  1.05D+00
 FoFJK:  IHMeth= 1 ICntrl=     0 DoSepK=T KAlg= 1 I1Cent= 0 FoldK=F
 E= -1581.52354086251     Delta-E=       -0.000000001050 Rises=F Damp=F
 DIIS: error= 3.75D-07 at cycle   7 NSaved=   7.
 NSaved= 7 IEnMin= 7 EnMin= -1581.52354086251     IErMin= 7 ErrMin= 3.75D-07
 ErrMax= 3.75D-07 EMaxC= 1.00D-01 BMatC= 1.13D-10 BMatP= 5.26D-10
 IDIUse=1 WtCom= 1.00D+00 WtEn= 0.00D+00
 Coeff-Com:  0.752D-03-0.343D-02-0.835D-02-0.588D-01-0.358D-01 0.308D+00
 Coeff-Com:  0.798D+00
 Coeff:      0.752D-03-0.343D-02-0.835D-02-0.588D-01-0.358D-01 0.308D+00
 Coeff:      0.798D+00
 Gap=     0.286 Goal=   None    Shift=    0.000
 RMSDP=4.35D-08 MaxDP=2.33D-06 DE=-1.05D-09 OVMax= 7.88D-06

 Cycle  15  Pass 1  IDiag  1:
 RMSU=  1.36D-08    CP:  1.00D+00  1.06D+00  6.54D-01  1.27D+00  1.11D+00
                    CP:  1.26D+00  1.06D+00
 FoFJK:  IHMeth= 1 ICntrl=     0 DoSepK=T KAlg= 1 I1Cent= 0 FoldK=F
 E= -1581.52354086278     Delta-E=       -0.000000000265 Rises=F Damp=F
 DIIS: error= 1.49D-07 at cycle   8 NSaved=   8.
 NSaved= 8 IEnMin= 8 EnMin= -1581.52354086278     IErMin= 8 ErrMin= 1.49D-07
 ErrMax= 1.49D-07 EMaxC= 1.00D-01 BMatC= 1.47D-11 BMatP= 1.13D-10
 IDIUse=1 WtCom= 1.00D+00 WtEn= 0.00D+00
 Coeff-Com: -0.823D-04 0.364D-02 0.143D-02-0.226D-01-0.504D-01-0.280D-01
 Coeff-Com:  0.258D+00 0.838D+00
 Coeff:     -0.823D-04 0.364D-02 0.143D-02-0.226D-01-0.504D-01-0.280D-01
 Coeff:      0.258D+00 0.838D+00
 Gap=     0.286 Goal=   None    Shift=    0.000
 RMSDP=1.74D-08 MaxDP=9.70D-07 DE=-2.65D-10 OVMax= 3.80D-06

 Cycle  16  Pass 1  IDiag  1:
 RMSU=  5.84D-09    CP:  1.00D+00  1.06D+00  6.55D-01  1.28D+00  1.13D+00
                    CP:  1.32D+00  1.25D+00  1.11D+00
 FoFJK:  IHMeth= 1 ICntrl=     0 DoSepK=T KAlg= 1 I1Cent= 0 FoldK=F
 E= -1581.52354086286     Delta-E=       -0.000000000081 Rises=F Damp=F
 DIIS: error= 6.08D-08 at cycle   9 NSaved=   9.
 NSaved= 9 IEnMin= 9 EnMin= -1581.52354086286     IErMin= 9 ErrMin= 6.08D-08
 ErrMax= 6.08D-08 EMaxC= 1.00D-01 BMatC= 2.87D-12 BMatP= 1.47D-11
 IDIUse=1 WtCom= 1.00D+00 WtEn= 0.00D+00
 Coeff-Com: -0.156D-03 0.197D-02 0.201D-02 0.140D-02-0.135D-01-0.687D-01
 Coeff-Com: -0.409D-01 0.313D+00 0.805D+00
 Coeff:     -0.156D-03 0.197D-02 0.201D-02 0.140D-02-0.135D-01-0.687D-01
 Coeff:     -0.409D-01 0.313D+00 0.805D+00
 Gap=     0.286 Goal=   None    Shift=    0.000
 RMSDP=7.27D-09 MaxDP=3.68D-07 DE=-8.09D-11 OVMax= 1.50D-06

 SCF Done:  E(RwB97XD) =  -1581.52354086     A.U. after   16 cycles
             Convg  =    0.7269D-08             -V/T =  2.0109
 KE= 1.564434511552D+03 PE=-1.125925444677D+04 EE= 4.317727746720D+03
 Leave Link  502 at Sat Mar 28 23:17:28 2020, MaxMem= 2684354560 cpu:     984.3
 (Enter /opt/g09gh/gaussian/g09/l601.exe)
 Copying SCF densities to generalized density rwf, IOpCl= 0 IROHF=0.

 **********************************************************************

            Population analysis using the SCF density.

 **********************************************************************

 Orbital symmetries:
       Occupied  (A) (A) (A) (A) (A) (A) (A) (A) (A) (A) (A) (A)
                 (A) (A) (A) (A) (A) (A) (A) (A) (A) (A) (A) (A)
                 (A) (A) (A) (A) (A) (A) (A) (A) (A) (A) (A) (A)
                 (A) (A) (A) (A) (A) (A) (A) (A) (A) (A) (A) (A)
                 (A) (A) (A) (A) (A) (A) (A) (A) (A) (A) (A) (A)
                 (A) (A) (A) (A) (A) (A) (A) (A) (A) (A) (A) (A)
                 (A) (A) (A) (A) (A) (A) (A) (A) (A) (A) (A) (A)
                 (A) (A) (A) (A) (A) (A) (A) (A) (A) (A) (A) (A)
                 (A) (A) (A) (A) (A) (A) (A) (A) (A) (A) (A) (A)
                 (A) (A) (A) (A) (A) (A) (A) (A) (A) (A) (A) (A)
                 (A) (A) (A) (A) (A) (A) (A) (A) (A) (A) (A)
       Virtual   (A) (A) (A) (A) (A) (A) (A) (A) (A) (A) (A) (A)
                 (A) (A) (A) (A) (A) (A) (A) (A) (A) (A) (A) (A)
                 (A) (A) (A) (A) (A) (A) (A) (A) (A) (A) (A) (A)
                 (A) (A) (A) (A) (A) (A) (A) (A) (A) (A) (A) (A)
                 (A) (A) (A) (A) (A) (A) (A) (A) (A) (A) (A) (A)
                 (A) (A) (A) (A) (A) (A) (A) (A) (A) (A) (A) (A)
                 (A) (A) (A) (A) (A) (A) (A) (A) (A) (A) (A) (A)
                 (A) (A) (A) (A) (A) (A) (A) (A) (A) (A) (A) (A)
                 (A) (A) (A) (A) (A) (A) (A) (A) (A) (A) (A) (A)
                 (A) (A) (A) (A) (A) (A) (A) (A) (A) (A) (A) (A)
                 (A) (A) (A) (A) (A) (A) (A) (A) (A) (A) (A) (A)
                 (A) (A) (A) (A) (A) (A) (A) (A) (A) (A) (A) (A)
                 (A) (A) (A) (A) (A) (A) (A) (A) (A) (A) (A) (A)
                 (A) (A) (A) (A) (A) (A) (A) (A) (A) (A) (A) (A)
                 (A) (A) (A) (A) (A) (A) (A) (A) (A) (A) (A) (A)
                 (A) (A) (A) (A) (A) (A) (A) (A) (A) (A) (A) (A)
                 (A) (A) (A) (A) (A) (A) (A) (A) (A) (A) (A) (A)
                 (A) (A) (A) (A) (A) (A) (A) (A) (A) (A) (A) (A)
                 (A) (A) (A) (A) (A) (A) (A) (A) (A) (A) (A) (A)
                 (A) (A) (A) (A) (A) (A) (A) (A) (A) (A) (A) (A)
                 (A) (A) (A) (A) (A) (A) (A) (A) (A) (A) (A) (A)
                 (A) (A) (A) (A) (A) (A) (A) (A) (A) (A) (A) (A)
                 (A) (A) (A) (A) (A) (A) (A) (A) (A) (A) (A) (A)
                 (A) (A) (A) (A) (A) (A) (A) (A) (A) (A) (A) (A)
                 (A) (A) (A) (A) (A) (A) (A) (A) (A) (A) (A) (A)
                 (A) (A) (A) (A) (A) (A) (A) (A) (A) (A) (A) (A)
                 (A) (A) (A) (A) (A) (A) (A) (A) (A) (A) (A) (A)
                 (A) (A) (A) (A) (A) (A) (A) (A) (A) (A) (A) (A)
                 (A) (A) (A) (A) (A) (A) (A) (A) (A) (A) (A) (A)
                 (A) (A) (A) (A) (A) (A) (A) (A) (A) (A) (A) (A)
                 (A) (A) (A) (A) (A) (A) (A) (A) (A) (A) (A) (A)
                 (A) (A) (A) (A) (A) (A) (A) (A) (A) (A) (A) (A)
                 (A) (A) (A) (A) (A) (A) (A) (A) (A) (A) (A) (A)
                 (A) (A) (A) (A) (A) (A) (A) (A) (A) (A) (A) (A)
                 (A) (A) (A) (A) (A) (A) (A) (A) (A) (A) (A) (A)
                 (A) (A) (A) (A) (A) (A) (A) (A) (A) (A) (A) (A)
                 (A) (A) (A) (A) (A) (A) (A) (A) (A) (A) (A) (A)
                 (A) (A) (A) (A) (A) (A) (A) (A) (A) (A) (A) (A)
                 (A) (A) (A) (A) (A) (A) (A) (A) (A) (A) (A) (A)
                 (A) (A) (A) (A) (A) (A) (A) (A) (A) (A) (A) (A)
                 (A) (A) (A) (A) (A) (A)
 The electronic state is 1-A.
 Alpha  occ. eigenvalues --  -19.23749 -14.49554 -14.49098 -14.47092 -14.46314
 Alpha  occ. eigenvalues --  -14.46093 -14.45755 -14.45211 -10.42001 -10.40853
 Alpha  occ. eigenvalues --  -10.37645 -10.37041 -10.36732 -10.36489 -10.36428
 Alpha  occ. eigenvalues --  -10.36317 -10.35790 -10.34976 -10.34896 -10.34741
 Alpha  occ. eigenvalues --  -10.34633 -10.33718 -10.33552 -10.32431 -10.32376
 Alpha  occ. eigenvalues --  -10.32306 -10.32146 -10.31961 -10.31586 -10.31521
 Alpha  occ. eigenvalues --  -10.31458 -10.31455 -10.31444 -10.30390 -10.30211
 Alpha  occ. eigenvalues --  -10.29566 -10.29233  -1.13825  -1.11676  -1.05123
 Alpha  occ. eigenvalues --   -1.03986  -1.03827  -1.03210  -1.00194  -1.00042
 Alpha  occ. eigenvalues --   -0.96587  -0.94581  -0.92110  -0.89397  -0.88386
 Alpha  occ. eigenvalues --   -0.86913  -0.86517  -0.85474  -0.84214  -0.83811
 Alpha  occ. eigenvalues --   -0.82379  -0.79725  -0.78232  -0.77772  -0.75559
 Alpha  occ. eigenvalues --   -0.73404  -0.73118  -0.72288  -0.72193  -0.71099
 Alpha  occ. eigenvalues --   -0.70868  -0.69823  -0.68411  -0.66554  -0.64636
 Alpha  occ. eigenvalues --   -0.63147  -0.62452  -0.61467  -0.61242  -0.60066
 Alpha  occ. eigenvalues --   -0.58865  -0.58545  -0.58153  -0.57021  -0.56136
 Alpha  occ. eigenvalues --   -0.55896  -0.55312  -0.54842  -0.54550  -0.54174
 Alpha  occ. eigenvalues --   -0.53488  -0.53206  -0.52857  -0.52307  -0.52209
 Alpha  occ. eigenvalues --   -0.51630  -0.51447  -0.51142  -0.51070  -0.50497
 Alpha  occ. eigenvalues --   -0.50219  -0.49875  -0.49706  -0.49095  -0.48648
 Alpha  occ. eigenvalues --   -0.47532  -0.47458  -0.46697  -0.46626  -0.46049
 Alpha  occ. eigenvalues --   -0.45626  -0.45155  -0.44754  -0.44275  -0.43946
 Alpha  occ. eigenvalues --   -0.43586  -0.42900  -0.42522  -0.40943  -0.40342
 Alpha  occ. eigenvalues --   -0.40068  -0.38535  -0.37811  -0.37293  -0.36205
 Alpha  occ. eigenvalues --   -0.35120  -0.34617  -0.34422  -0.34220  -0.33578
 Alpha  occ. eigenvalues --   -0.33340  -0.32546  -0.31653  -0.29472  -0.27567
 Alpha  occ. eigenvalues --   -0.26623
 Alpha virt. eigenvalues --    0.01936   0.02500   0.03476   0.04111   0.05102
 Alpha virt. eigenvalues --    0.05282   0.07253   0.07482   0.09294   0.09395
 Alpha virt. eigenvalues --    0.11196   0.13302   0.13928   0.15007   0.16050
 Alpha virt. eigenvalues --    0.17123   0.17611   0.18528   0.18824   0.19169
 Alpha virt. eigenvalues --    0.19590   0.19748   0.20786   0.21223   0.21410
 Alpha virt. eigenvalues --    0.21949   0.22768   0.23041   0.23195   0.23575
 Alpha virt. eigenvalues --    0.23764   0.24068   0.24173   0.24475   0.24662
 Alpha virt. eigenvalues --    0.24804   0.25428   0.25894   0.26428   0.26721
 Alpha virt. eigenvalues --    0.27113   0.27373   0.27549   0.28042   0.28099
 Alpha virt. eigenvalues --    0.28750   0.28763   0.30187   0.30309   0.31041
 Alpha virt. eigenvalues --    0.31502   0.31795   0.31952   0.32527   0.32907
 Alpha virt. eigenvalues --    0.33510   0.34126   0.35343   0.35651   0.36096
 Alpha virt. eigenvalues --    0.37519   0.37636   0.38885   0.39290   0.39621
 Alpha virt. eigenvalues --    0.39700   0.40631   0.40872   0.41386   0.41510
 Alpha virt. eigenvalues --    0.41732   0.43463   0.44409   0.45248   0.46361
 Alpha virt. eigenvalues --    0.48261   0.48482   0.49519   0.51794   0.52831
 Alpha virt. eigenvalues --    0.55084   0.55272   0.56557   0.57604   0.57734
 Alpha virt. eigenvalues --    0.58055   0.58497   0.58746   0.59423   0.59685
 Alpha virt. eigenvalues --    0.60136   0.60751   0.60911   0.61387   0.62118
 Alpha virt. eigenvalues --    0.62251   0.62860   0.63133   0.63221   0.63567
 Alpha virt. eigenvalues --    0.63788   0.64117   0.64474   0.64848   0.65045
 Alpha virt. eigenvalues --    0.65146   0.65423   0.65917   0.65998   0.66178
 Alpha virt. eigenvalues --    0.66618   0.66746   0.67008   0.67606   0.68118
 Alpha virt. eigenvalues --    0.68295   0.68843   0.69157   0.69311   0.70064
 Alpha virt. eigenvalues --    0.70594   0.70727   0.70966   0.71407   0.71933
 Alpha virt. eigenvalues --    0.72156   0.72508   0.72670   0.73034   0.73760
 Alpha virt. eigenvalues --    0.74003   0.74512   0.74759   0.75546   0.76428
 Alpha virt. eigenvalues --    0.77226   0.77691   0.78855   0.79746   0.80108
 Alpha virt. eigenvalues --    0.80161   0.80867   0.81024   0.82274   0.82752
 Alpha virt. eigenvalues --    0.83196   0.83550   0.83755   0.84626   0.84676
 Alpha virt. eigenvalues --    0.85682   0.86556   0.86912   0.87253   0.87608
 Alpha virt. eigenvalues --    0.88562   0.89090   0.89465   0.89572   0.89873
 Alpha virt. eigenvalues --    0.90358   0.90897   0.91035   0.91385   0.91830
 Alpha virt. eigenvalues --    0.91949   0.92299   0.92735   0.92879   0.93540
 Alpha virt. eigenvalues --    0.93707   0.94087   0.94202   0.94695   0.94931
 Alpha virt. eigenvalues --    0.95470   0.95729   0.96668   0.97008   0.97049
 Alpha virt. eigenvalues --    0.97704   0.98681   0.98749   0.99470   0.99961
 Alpha virt. eigenvalues --    1.00335   1.00674   1.01268   1.01544   1.01912
 Alpha virt. eigenvalues --    1.02538   1.03021   1.03461   1.03671   1.04490
 Alpha virt. eigenvalues --    1.04945   1.06774   1.07113   1.07525   1.07786
[...]
                 (A) (A) (A) (A) (A) (A) (A) (A) (A) (A) (A) (A)
                 (A) (A) (A) (A) (A) (A) (A) (A) (A) (A) (A) (A)
                 (A) (A) (A) (A) (A) (A) (A) (A) (A) (A) (A) (A)
                 (A) (A) (A) (A) (A) (A) (A) (A) (A) (A) (A) (A)
                 (A) (A) (A) (A) (A) (A) (A) (A) (A) (A) (A) (A)
                 (A) (A) (A) (A) (A) (A) (A) (A) (A) (A) (A) (A)
                 (A) (A) (A) (A) (A) (A) (A) (A) (A) (A) (A) (A)
                 (A) (A) (A) (A) (A) (A) (A) (A) (A) (A) (A) (A)
                 (A) (A) (A) (A) (A) (A) (A) (A) (A) (A) (A) (A)
                 (A) (A) (A) (A) (A) (A) (A) (A) (A) (A) (A) (A)
                 (A) (A) (A) (A) (A) (A) (A) (A) (A) (A) (A) (A)
                 (A) (A) (A) (A) (A) (A) (A) (A) (A) (A) (A) (A)
                 (A) (A) (A) (A) (A) (A) (A) (A) (A) (A) (A) (A)
                 (A) (A) (A) (A) (A) (A) (A) (A) (A) (A) (A) (A)
                 (A) (A) (A) (A) (A) (A) (A) (A) (A) (A) (A) (A)
                 (A) (A) (A) (A) (A) (A) (A) (A) (A) (A) (A) (A)
                 (A) (A) (A) (A) (A) (A) (A) (A) (A) (A) (A) (A)
                 (A) (A) (A) (A) (A) (A) (A) (A) (A) (A) (A) (A)
                 (A) (A) (A) (A) (A) (A) (A) (A) (A) (A) (A) (A)
                 (A) (A) (A) (A) (A) (A) (A) (A) (A) (A) (A) (A)
                 (A) (A) (A) (A) (A) (A) (A) (A) (A) (A) (A) (A)
                 (A) (A) (A) (A) (A) (A) (A) (A) (A) (A) (A) (A)
                 (A) (A) (A) (A) (A) (A) (A) (A) (A) (A) (A) (A)
                 (A) (A) (A) (A) (A) (A) (A) (A) (A) (A) (A) (A)
                 (A) (A) (A) (A) (A) (A) (A) (A) (A) (A) (A) (A)
                 (A) (A) (A) (A) (A) (A) (A) (A) (A) (A) (A) (A)
                 (A) (A) (A) (A) (A) (A) (A) (A) (A) (A) (A) (A)
                 (A) (A) (A) (A) (A) (A) (A) (A) (A) (A) (A) (A)
                 (A) (A) (A) (A) (A) (A) (A) (A) (A) (A) (A) (A)
                 (A) (A) (A) (A) (A) (A)
 The electronic state is 1-A.
 Alpha  occ. eigenvalues --  -19.23412 -14.49282 -14.48320 -14.46751 -14.46096
 Alpha  occ. eigenvalues --  -14.45764 -14.43616 -14.43135 -10.41777 -10.40081
 Alpha  occ. eigenvalues --  -10.37615 -10.36337 -10.35325 -10.35084 -10.34623
 Alpha  occ. eigenvalues --  -10.34135 -10.34016 -10.33622 -10.32863 -10.32367
 Alpha  occ. eigenvalues --  -10.31860 -10.31492 -10.31178 -10.30935 -10.30708
 Alpha  occ. eigenvalues --  -10.30688 -10.30677 -10.30585 -10.30534 -10.30403
 Alpha  occ. eigenvalues --  -10.30377 -10.30220 -10.30020 -10.29974 -10.29575
 Alpha  occ. eigenvalues --  -10.28741 -10.28405  -1.13443  -1.12295  -1.06322
 Alpha  occ. eigenvalues --   -1.04565  -1.03829  -1.03633  -1.00715  -0.99558
 Alpha  occ. eigenvalues --   -0.96086  -0.94671  -0.93098  -0.89777  -0.88124
 Alpha  occ. eigenvalues --   -0.87388  -0.86227  -0.85399  -0.84542  -0.83783
 Alpha  occ. eigenvalues --   -0.81888  -0.79581  -0.78269  -0.77798  -0.76320
 Alpha  occ. eigenvalues --   -0.73881  -0.73301  -0.73024  -0.72621  -0.70870
 Alpha  occ. eigenvalues --   -0.70314  -0.69614  -0.68039  -0.66413  -0.65150
 Alpha  occ. eigenvalues --   -0.63656  -0.63408  -0.62228  -0.61762  -0.60211
 Alpha  occ. eigenvalues --   -0.58848  -0.58045  -0.57570  -0.56611  -0.56100
 Alpha  occ. eigenvalues --   -0.55817  -0.55237  -0.55134  -0.54965  -0.54255
 Alpha  occ. eigenvalues --   -0.53867  -0.53239  -0.53154  -0.52612  -0.52174
 Alpha  occ. eigenvalues --   -0.51912  -0.51509  -0.51370  -0.50999  -0.50575
 Alpha  occ. eigenvalues --   -0.50365  -0.50117  -0.49974  -0.49497  -0.48335
 Alpha  occ. eigenvalues --   -0.47217  -0.46906  -0.46619  -0.46319  -0.46211
 Alpha  occ. eigenvalues --   -0.45762  -0.45236  -0.44797  -0.44045  -0.43932
 Alpha  occ. eigenvalues --   -0.43327  -0.43016  -0.42141  -0.41766  -0.41439
 Alpha  occ. eigenvalues --   -0.40964  -0.40777  -0.39912  -0.38187  -0.37592
 Alpha  occ. eigenvalues --   -0.35821  -0.35293  -0.34001  -0.33446  -0.33373
 Alpha  occ. eigenvalues --   -0.32818  -0.31904  -0.30772  -0.29115  -0.27080
 Alpha  occ. eigenvalues --   -0.24996
 Alpha virt. eigenvalues --   -0.00292   0.02872   0.03586   0.04481   0.06434
 Alpha virt. eigenvalues --    0.07259   0.08204   0.10371   0.13887   0.14814
 Alpha virt. eigenvalues --    0.15729   0.16386   0.17252   0.17441   0.18251
 Alpha virt. eigenvalues --    0.19198   0.19759   0.20074   0.20198   0.20629
 Alpha virt. eigenvalues --    0.21234   0.21900   0.22614   0.22766   0.23135
 Alpha virt. eigenvalues --    0.23343   0.23537   0.24192   0.24361   0.24839
 Alpha virt. eigenvalues --    0.25117   0.25125   0.26082   0.26488   0.26551
 Alpha virt. eigenvalues --    0.27067   0.27431   0.27681   0.27996   0.28430
 Alpha virt. eigenvalues --    0.28564   0.28864   0.29436   0.29708   0.30281
 Alpha virt. eigenvalues --    0.31015   0.31165   0.31763   0.32124   0.32246
 Alpha virt. eigenvalues --    0.32892   0.33214   0.33675   0.33955   0.34427
 Alpha virt. eigenvalues --    0.35001   0.36036   0.36538   0.37755   0.38123
 Alpha virt. eigenvalues --    0.38652   0.38809   0.39300   0.40138   0.40739
 Alpha virt. eigenvalues --    0.41234   0.41464   0.42063   0.42207   0.42713
 Alpha virt. eigenvalues --    0.43814   0.45044   0.46208   0.47058   0.47330
 Alpha virt. eigenvalues --    0.48355   0.49428   0.51940   0.53014   0.54230
 Alpha virt. eigenvalues --    0.55739   0.56536   0.57255   0.57912   0.58308
 Alpha virt. eigenvalues --    0.59048   0.59371   0.59612   0.60511   0.60896
 Alpha virt. eigenvalues --    0.61370   0.61485   0.61680   0.62222   0.62698
 Alpha virt. eigenvalues --    0.63200   0.63355   0.63864   0.64090   0.64889
 Alpha virt. eigenvalues --    0.64932   0.65336   0.65508   0.65529   0.65821
 Alpha virt. eigenvalues --    0.66022   0.66272   0.66897   0.66982   0.67472
 Alpha virt. eigenvalues --    0.67615   0.67787   0.68308   0.68614   0.69044
 Alpha virt. eigenvalues --    0.69766   0.70017   0.70550   0.71043   0.71240
 Alpha virt. eigenvalues --    0.71763   0.72092   0.72268   0.72585   0.73056
 Alpha virt. eigenvalues --    0.73334   0.73461   0.74255   0.75226   0.75348
 Alpha virt. eigenvalues --    0.75594   0.75945   0.76255   0.76932   0.77676
 Alpha virt. eigenvalues --    0.77801   0.79112   0.80381   0.80456   0.81763
 Alpha virt. eigenvalues --    0.81970   0.82303   0.83131   0.83262   0.84195
 Alpha virt. eigenvalues --    0.84653   0.85717   0.86629   0.86886   0.87420
 Alpha virt. eigenvalues --    0.88278   0.89045   0.89674   0.90199   0.90739
 Alpha virt. eigenvalues --    0.90923   0.91156   0.91468   0.92208   0.92296
 Alpha virt. eigenvalues --    0.92394   0.92544   0.93564   0.93886   0.94047
 Alpha virt. eigenvalues --    0.94343   0.94529   0.94676   0.95250   0.95605
 Alpha virt. eigenvalues --    0.95949   0.96539   0.97598   0.98196   0.98360
 Alpha virt. eigenvalues --    0.98517   0.99008   0.99058   0.99701   0.99825
 Alpha virt. eigenvalues --    1.00451   1.00623   1.01372   1.01926   1.02024
 Alpha virt. eigenvalues --    1.02501   1.02652   1.03219   1.03674   1.04407
 Alpha virt. eigenvalues --    1.05622   1.05881   1.06646   1.06767   1.07380
 Alpha virt. eigenvalues --    1.07619   1.08220   1.08750   1.08901   1.09056
 Alpha virt. eigenvalues --    1.10206   1.10699   1.11029   1.11714   1.12089
 Alpha virt. eigenvalues --    1.12635   1.13096   1.13793   1.14264   1.15632
 Alpha virt. eigenvalues --    1.16461   1.16988   1.17693   1.18301   1.19274
 Alpha virt. eigenvalues --    1.20081   1.21181   1.21737   1.23133   1.23418
 Alpha virt. eigenvalues --    1.24744   1.25514   1.26099   1.26963   1.27424
 Alpha virt. eigenvalues --    1.29018   1.29351   1.29703   1.30411   1.30872
 Alpha virt. eigenvalues --    1.31928   1.33068   1.33761   1.33902   1.34766
 Alpha virt. eigenvalues --    1.35489   1.36942   1.37302   1.37889   1.38646
 Alpha virt. eigenvalues --    1.39294   1.42346   1.43370   1.43714   1.44588
 Alpha virt. eigenvalues --    1.46484   1.47300   1.47752   1.48441   1.48547
 Alpha virt. eigenvalues --    1.48649   1.49180   1.49466   1.50259   1.51635
 Alpha virt. eigenvalues --    1.51971   1.52736   1.53659   1.54082   1.54529
 Alpha virt. eigenvalues --    1.55183   1.55559   1.56281   1.56871   1.56982
 Alpha virt. eigenvalues --    1.57523   1.57807   1.58456   1.59179   1.59302
 Alpha virt. eigenvalues --    1.59660   1.60105   1.60821   1.61984   1.62519
 Alpha virt. eigenvalues --    1.63914   1.64941   1.65123   1.65692   1.67669
 Alpha virt. eigenvalues --    1.68407   1.69749   1.72014   1.75168   1.76231
 Alpha virt. eigenvalues --    1.78748   1.80597   1.81505   1.82526   1.84279
 Alpha virt. eigenvalues --    1.84720   1.85643   1.86428   1.86959   1.87887
 Alpha virt. eigenvalues --    1.87957   1.88947   1.89941   1.90638   1.90826
 Alpha virt. eigenvalues --    1.91214   1.92461   1.92803   1.93433   1.94261
 Alpha virt. eigenvalues --    1.94425   1.94936   1.95570   1.96614   1.97939
 Alpha virt. eigenvalues --    1.98716   1.99605   2.00123   2.00241   2.01198
 Alpha virt. eigenvalues --    2.01311   2.01498   2.01783   2.02572   2.03678
 Alpha virt. eigenvalues --    2.05537   2.06500   2.06637   2.07321   2.08212
 Alpha virt. eigenvalues --    2.08612   2.08852   2.09737   2.10837   2.11394
 Alpha virt. eigenvalues --    2.12242   2.12580   2.13555   2.14169   2.14816
 Alpha virt. eigenvalues --    2.15877   2.16188   2.17689   2.19549   2.20431
 Alpha virt. eigenvalues --    2.21104   2.21285   2.21687   2.22412   2.22784
 Alpha virt. eigenvalues --    2.22977   2.23633   2.23942   2.24603   2.25134
 Alpha virt. eigenvalues --    2.25945   2.26148   2.26369   2.26888   2.28049
 Alpha virt. eigenvalues --    2.28543   2.29385   2.29952   2.31592   2.32595
 Alpha virt. eigenvalues --    2.34099   2.34930   2.36377   2.37130   2.37170
 Alpha virt. eigenvalues --    2.37912   2.38059   2.38211   2.39476   2.39886
 Alpha virt. eigenvalues --    2.40252   2.40812   2.42121   2.42800   2.43235
 Alpha virt. eigenvalues --    2.43390   2.44332   2.44770   2.44891   2.46221
 Alpha virt. eigenvalues --    2.46453   2.47885   2.48103   2.49415   2.49810
 Alpha virt. eigenvalues --    2.50305   2.50933   2.52051   2.53872   2.56002
 Alpha virt. eigenvalues --    2.58457   2.59877   2.60857   2.62124   2.63399
 Alpha virt. eigenvalues --    2.64709   2.65082   2.65954   2.66089   2.67627
 Alpha virt. eigenvalues --    2.68705   2.70009   2.71802   2.72054   2.72666
 Alpha virt. eigenvalues --    2.74011   2.74385   2.75463   2.76174   2.76863
 Alpha virt. eigenvalues --    2.77169   2.78480   2.78950   2.80938   2.81728
 Alpha virt. eigenvalues --    2.82745   2.83150   2.83724   2.84484   2.85526
 Alpha virt. eigenvalues --    2.86032   2.86478   2.87314   2.88412   2.89257
 Alpha virt. eigenvalues --    2.89962   2.91946   2.92699   2.93388   2.94567
 Alpha virt. eigenvalues --    2.94834   2.96131   2.97874   3.01370   3.02991
 Alpha virt. eigenvalues --    3.04141   3.06694   3.09290   3.10083   3.12016
 Alpha virt. eigenvalues --    3.18946   3.26898   3.29152   3.39170   3.41512
 Alpha virt. eigenvalues --    3.45037   3.53455   3.56406   3.57586   4.12659
 Alpha virt. eigenvalues --    4.13539   4.15201   4.16851   4.18260   4.19133
 Alpha virt. eigenvalues --    4.19561   4.20444   4.21989   4.23542   4.25284
 Alpha virt. eigenvalues --    4.26034   4.27470   4.28699   4.30758   4.31716
 Alpha virt. eigenvalues --    4.33379   4.34588   4.36933   4.40131   4.40370
 Alpha virt. eigenvalues --    4.41612   4.44510   4.46128   4.49149   4.49436
 Alpha virt. eigenvalues --    4.49746   4.52846   4.57340   4.60740   4.61922
 Alpha virt. eigenvalues --    4.64160   4.67475   4.69410   4.79023   4.85076
 Alpha virt. eigenvalues --    4.89515
          Condensed to atoms (all electrons):
 Mulliken atomic charges:
              1
     1  C   -0.197843
     2  C   -0.154408
     3  C    0.035494
     4  C    0.009596
     5  N   -0.437534
     6  C    0.035732
     7  C    0.295164
     8  C   -0.254760
     9  C    0.049021
    10  N   -0.493034
    11  C    0.714334
    12  N   -0.568398
    13  N   -0.802017
    14  C    0.291459
    15  C    0.119859
    16  C   -0.240377
    17  C   -0.191300
    18  C    0.358092
    19  C   -0.269646
    20  N   -0.757928
    21  C    0.585707
    22  C    0.015186
    23  C   -0.205344
    24  C   -0.217891
    25  C    0.155946
    26  C   -0.223073
    27  C   -0.178380
    28  C   -0.263555
    29  N   -0.382221
    30  C   -0.183896
    31  C   -0.181780
    32  N   -0.385707
    33  C   -0.349275
    34  C   -0.182634
    35  C   -0.186515
    36  O   -0.513268
    37  C   -0.607367
    38  H    0.186140
    39  H    0.186724
    40  H    0.198134
    41  H    0.179046
    42  H    0.180742
    43  H    0.189488
    44  H    0.369211
    45  H    0.160822
    46  H    0.213087
    47  H    0.199341
    48  H    0.361552
    49  H    0.185464
    50  H    0.172064
    51  H    0.163617
    52  H    0.195606
    53  H    0.170281
    54  H    0.168915
    55  H    0.148151
    56  H    0.158360
    57  H    0.141658
    58  H    0.174881
    59  H    0.135264
    60  H    0.164121
    61  H    0.167869
    62  H    0.153491
    63  H    0.172921
    64  H    0.159411
    65  H    0.154998
    66  H    0.178019
    67  H    0.182765
    68  H    0.190419
 Sum of Mulliken atomic charges =   0.00000
 Mulliken charges with hydrogens summed into heavy atoms:
              1
     1  C   -0.011703
     2  C    0.032316
     3  C    0.035494
     4  C    0.207729
     5  N   -0.437534
     6  C    0.214778
     7  C    0.295164
     8  C   -0.074019
     9  C    0.238509
    10  N   -0.493034
    11  C    0.714334
    12  N   -0.568398
    13  N   -0.432805
    14  C    0.291459
    15  C    0.119859
    16  C   -0.079555
    17  C    0.021786
    18  C    0.358092
    19  C   -0.070305
    20  N   -0.396376
    21  C    0.585707
    22  C    0.015186
    23  C   -0.019880
    24  C   -0.045827
    25  C    0.155946
    26  C   -0.059456
    27  C    0.017226
    28  C    0.075642
    29  N   -0.382221
    30  C    0.122615
    31  C    0.134759
    32  N   -0.385707
    33  C    0.117979
    34  C    0.143778
    35  C    0.127894
    36  O   -0.513268
    37  C   -0.056165
 Sum of Mulliken charges with hydrogens summed into heavy atoms =   0.00000
 Electronic spatial extent (au):  <R**2>=          21211.9200
 Charge=              0.0000 electrons
 Dipole moment (field-independent basis, Debye):
    X=              0.5800    Y=              6.5717    Z=              0.4335  Tot=              6.6114
 Quadrupole moment (field-independent basis, Debye-Ang):
   XX=           -193.2969   YY=           -202.5018   ZZ=           -220.4876
   XY=              3.1068   XZ=             -1.2830   YZ=             -5.2229
 Traceless Quadrupole moment (field-independent basis, Debye-Ang):
   XX=             12.1319   YY=              2.9269   ZZ=            -15.0588
   XY=              3.1068   XZ=             -1.2830   YZ=             -5.2229
 Octapole moment (field-independent basis, Debye-Ang**2):
  XXX=             80.0449  YYY=            204.3839  ZZZ=             11.3496  XYY=             33.4181
  XXY=            -43.1209  XXZ=             31.6102  XZZ=            -22.7223  YZZ=              1.3463
  YYZ=             17.7306  XYZ=              2.2850
 Hexadecapole moment (field-independent basis, Debye-Ang**3):
 XXXX=         -18570.1751 YYYY=          -7865.0468 ZZZZ=          -1607.5020 XXXY=            -50.9929
 XXXZ=           -102.9562 YYYX=            149.1870 YYYZ=            -76.3249 ZZZX=            -50.0460
 ZZZY=             15.0294 XXYY=          -4005.3797 XXZZ=          -3409.2116 YYZZ=          -1721.4934
 XXYZ=            -52.7091 YYXZ=            -15.9138 ZZXY=            -24.5946
 N-N= 3.895090155704D+03 E-N=-1.146177597034D+04  KE= 1.567155633187D+03
 No NMR shielding tensors so no spin-rotation constants.
 Leave Link  601 at Sun Mar 29 01:50:22 2020, MaxMem= 2684354560 cpu:       3.1
 (Enter /opt/g09gh/gaussian/g09/l9999.exe)
 1\1\GINC-NODE45\FOpt\RwB97XD\6-31G(d)\C29H31N7O1\BDW2292\29-Mar-2020\0
 \\#P opt=(,maxcycle=400) wB97XD/6-31G* MaxDisk=100GB\\MOLECULE0 Rotata
 ble Bond Optimization on node37.bme.utexas.edu\\0,1\C,-0.1976359059,4.
 2935505595,-1.6402370033\C,1.1512581792,4.174303284,-1.3281852365\C,1.
 5764024143,3.0853559127,-0.5690749342\C,0.6037655864,2.1591814804,-0.1
 694011894\N,-0.6922561891,2.261935462,-0.4584470805\C,-1.0766164095,3.
 3195295038,-1.179252818\C,2.9865573575,2.8967587538,-0.1439399159\C,4.
 0802410393,3.4288563943,-0.8208563193\C,5.3314600012,3.1678951098,-0.2
 633569177\N,5.5142063749,2.4531779198,0.8384551947\C,4.3903610142,1.97
 05257907,1.4065009553\N,3.1489845366,2.1683010063,0.9632152406\N,4.595
 2087303,1.2231610344,2.533998803\C,3.6784674462,0.5120030777,3.3307813
 741\C,4.1781611958,-0.4595160727,4.2217789694\C,3.256936401,-1.1707257
 248,4.9858964493\C,1.8790241197,-0.9804346363,4.8988885082\C,1.4116755
 288,-0.0129010926,4.0145935677\C,2.3099875288,0.7422872398,3.261210494
 1\N,0.0573237538,0.2700619107,3.7721084782\C,-1.071290143,-0.387784516
 7,4.1892646916\C,-2.3045318198,0.0835447659,3.471509672\C,-2.271442439
 2,0.459948578,2.1254868512\C,-3.4157346508,0.934764306,1.5018843539\C,
 -4.6113835149,1.0685863344,2.2076407024\C,-4.6504808308,0.6372390627,3
 .5365469927\C,-3.5134323957,0.1416330382,4.163939604\C,-5.8193987589,1
 .7271931086,1.561588898\N,-5.8759054218,3.1810474972,1.5808848804\C,-5
 .002338689,3.9153600238,0.671735989\C,-3.6639382558,4.3553389987,1.292
 6848218\N,-3.8244565016,5.0501336172,2.5670067316\C,-4.3102538867,6.41
 22376443,2.4358498002\C,-4.615263044,4.2282226963,3.4803129577\C,-5.97
 40344214,3.8134656294,2.8917227921\O,-1.0909793981,-1.2462878012,5.055
 1902426\C,5.656687846,-0.7309297687,4.3367741095\H,-0.5643408922,5.133
 6357217,-2.2201778959\H,1.8561380495,4.9362098128,-1.6483618713\H,0.90
 69197666,1.2906249298,0.4097124514\H,-2.1407861694,3.390558628,-1.3938
 200723\H,3.9839632762,3.9984929154,-1.7368136842\H,6.2335799976,3.5535
 071674,-0.7341314643\H,5.5749374422,1.1156130061,2.7502506202\H,3.6313
 865572,-1.9226497133,5.6760050403\H,1.1874933008,-1.5650888696,5.48992
 58291\H,1.9393334341,1.4974604987,2.5848234189\H,-0.099433587,1.034914
 8547,3.1324790212\H,-1.3621185096,0.3701647185,1.5383675667\H,-3.35932
 79765,1.2246066749,0.4557386647\H,-5.5831791546,0.7055429056,4.0921990
 59\H,-3.5426402424,-0.1895043785,5.1972598205\H,-5.8833316684,1.413188
 253,0.5127121608\H,-6.7284426759,1.3605531847,2.055414777\H,-4.8242925
 621,3.3002978888,-0.2185207216\H,-5.5470959088,4.8094817497,0.33282534
 41\H,-3.1294592188,5.0156160439,0.5976710295\H,-3.0259129631,3.4819549
 614,1.4675522121\H,-5.316330044,6.5186225043,1.9930980825\H,-3.6125449
 198,6.9831203446,1.8131241475\H,-4.3339901608,6.8789586993,3.426643256
 3\H,-4.7638207395,4.7829698461,4.4147341473\H,-4.0272827282,3.33408202
 48,3.7180730844\H,-6.6132520409,4.7036608231,2.7951192717\H,-6.4897126
 81,3.1298533088,3.5754381399\H,6.2151190446,0.147913029,4.6871873364\H
 ,6.0917141775,-1.0398458284,3.3773808024\H,5.8456794186,-1.5351358328,
 5.0522917151\\Version=EM64L-G09RevA.02\State=1-A\HF=-1581.7632161\RMSD
 =5.467e-09\RMSF=6.936e-06\Dipole=0.6811443,1.7659219,-1.7842392\Quadru
 pole=8.5577567,-8.4090299,-0.1487268,-3.1940661,-3.6074882,-5.6429062\
 PG=C01 [X(C29H31N7O1)]\\@


 ALL MEN WHO EXPLORE
 DEPLORE
 THAT FRUSTRATING HURDLE
 THE GIRDLE.

         -- COLIN FLETCHER
 Job cpu time:  0 days 11 hours 52 minutes  6.7 seconds.
 File lengths (MBytes):  RWF=    244 Int=      0 D2E=      0 Chk=     25 Scr=      1
 Normal termination of Gaussian 09 at Sun Mar 29 01:50:23 2020.
                         -- NEWTON (1642-1726)
 Job cpu time:  0 days 10 hours  7 minutes  6.0 seconds.
 File lengths (MBytes):  RWF=    244 Int=      0 D2E=      0 Chk=     25 Scr=      1
 Normal termination of Gaussian 09 at Sun Mar 29 00:56:18 2020.
