
Host: node47.bme.utexas.edu

Timers On : Tue Mar  3 18:02:00 2020
Timers Off: Tue Mar  3 18:19:26 2020

Wall Time:     1046.70 seconds

                                                       Time (seconds)
Module                                       User      System        Wall        Calls
DFH: sparsity prep                  :      2.350u      0.550s      0.892w      1 calls
JK: (A|mn)                          :   1547.917u      0.117s    155.004w      1 calls
JK: (A|Q)^-1/2                      :    266.283u      5.017s     28.412w      1 calls
JK: (Q|mn)                          :   1176.533u      1.150s    117.951w      1 calls
HF: Form core H                     :      0.567u      0.033s      0.066w      1 calls
HF: Form S/X                        :      3.217u      0.050s      0.327w      1 calls
HF: Guess                           :      8.583u      0.283s      0.888w      1 calls
SAD Guess                           :      8.400u      0.283s      0.870w      1 calls
HF: Form G                          :   4214.167u    248.417s    574.463w     15 calls
JK: D                               :      0.500u      0.000s      0.049w     15 calls
JK: USO2AO                          :      0.267u      0.033s      0.028w     15 calls
JK: JK                              :   4212.750u    248.367s    574.328w     15 calls
JK: J                               :     97.700u      0.617s      9.961w     30 calls
JK: J1                              :     46.100u      0.333s      4.733w     30 calls
JK: J2                              :     50.533u      0.200s      5.085w     30 calls
JK: K                               :   4064.833u      2.767s    409.311w     30 calls
JK: K1                              :   2284.850u      0.800s    228.967w     30 calls
JK: K2                              :   1779.800u      1.917s    180.321w     30 calls
JK: AO2USO                          :      0.000u      0.000s      0.000w     15 calls
HF: Form F                          :      0.267u      0.000s      0.028w     15 calls
HF: Form D                          :      0.483u      0.000s      0.047w     15 calls
HF: DIIS                            :     19.100u      1.300s      2.040w     14 calls
DIISManager::add_entry              :      1.550u      0.267s      0.188w     14 calls
DIISManager::extrapolate            :      5.400u      0.867s      0.634w     14 calls
bMatrix setup                       :      2.750u      0.550s      0.334w     14 calls
bMatrix pseudoinverse               :      0.000u      0.000s      0.001w     14 calls
New vector                          :      2.650u      0.317s      0.299w     14 calls
HF: Form C                          :     46.933u      0.600s      4.762w     14 calls
DFMP2 Singles                       :      0.483u      0.000s      0.048w      1 calls
DFMP2 Aia                           :      0.000u      0.000s      0.000w      0 calls
DFMP2 (A|mn)                        :    928.100u      0.183s     92.945w      3 calls
DFMP2 (A|mn)C_mi                    :    111.783u      0.167s     11.211w      3 calls
DFMP2 (A|mi)C_na                    :     77.033u      0.150s      7.764w      3 calls
DFMP2 Aia Write                     :      2.033u      2.617s      1.737w      2 calls

--------------------------------------------------------------------------------------
DFH: sparsity prep                  :      2.350u      0.550s      0.892w      1 calls
JK: (A|mn)                          :   1547.917u      0.117s    155.004w      1 calls
JK: (A|Q)^-1/2                      :    266.283u      5.017s     28.412w      1 calls
JK: (Q|mn)                          :   1176.533u      1.150s    117.951w      1 calls
HF: Form core H                     :      0.567u      0.033s      0.066w      1 calls
HF: Form S/X                        :      3.217u      0.050s      0.327w      1 calls
HF: Guess                           :      8.583u      0.283s      0.888w      1 calls
| SAD Guess                         :      8.400u      0.283s      0.870w      1 calls
HF: Form G                          :   4214.167u    248.417s    574.463w     15 calls
| JK: D                             :      0.500u      0.000s      0.049w     15 calls
| JK: USO2AO                        :      0.267u      0.033s      0.028w     15 calls
| JK: JK                            :   4212.750u    248.367s    574.328w     15 calls
| | JK: J                           :     97.700u      0.617s      9.961w     30 calls
| | | JK: J1                        :     46.100u      0.333s      4.733w     30 calls
| | | JK: J2                        :     50.533u      0.200s      5.085w     30 calls
| | JK: K                           :   4064.833u      2.767s    409.311w     30 calls
| | | JK: K1                        :   2284.850u      0.800s    228.967w     30 calls
| | | JK: K2                        :   1779.800u      1.917s    180.321w     30 calls
| JK: AO2USO                        :      0.000u      0.000s      0.000w     15 calls
HF: Form F                          :      0.267u      0.000s      0.028w     15 calls
HF: Form D                          :      0.483u      0.000s      0.047w     15 calls
HF: DIIS                            :     19.100u      1.300s      2.040w     14 calls
| DIISManager::add_entry            :      1.550u      0.267s      0.188w     14 calls
| DIISManager::extrapolate          :      5.400u      0.867s      0.634w     14 calls
| | bMatrix setup                   :      2.750u      0.550s      0.334w     14 calls
| | bMatrix pseudoinverse           :      0.000u      0.000s      0.001w     14 calls
| | New vector                      :      2.650u      0.317s      0.299w     14 calls
HF: Form C                          :     46.933u      0.600s      4.762w     14 calls
DFMP2 Singles                       :      0.483u      0.000s      0.048w      1 calls
DFMP2 Aia                           :      0.000u      0.000s      0.000w      1 calls
| DFMP2 (A|mn)                      :    928.100u      0.183s     92.945w      3 calls
| DFMP2 (A|mn)C_mi                  :    111.783u      0.167s     11.211w      3 calls
| DFMP2 (A|mi)C_na                  :     77.033u      0.150s      7.764w      3 calls
| DFMP2 Aia Write                   :      2.033u      2.617s      1.737w      3 calls

**************************************************************************************

Host: node44.bme.utexas.edu

Timers On : Tue Mar  3 18:01:55 2020
Timers Off: Tue Mar  3 18:22:43 2020

Wall Time:     1248.75 seconds

                                                       Time (seconds)
Module                                       User      System        Wall        Calls
DFH: sparsity prep                  :      2.383u      0.267s      0.820w      1 calls
JK: (A|mn)                          :   1458.050u      0.100s    145.991w      1 calls
JK: (A|Q)^-1/2                      :    279.883u      2.567s     28.327w      1 calls
JK: (Q|mn)                          :   1236.167u      0.783s    124.519w      1 calls
HF: Form core H                     :      0.450u      0.033s      0.052w      1 calls
HF: Form S/X                        :      2.933u      0.033s      0.296w      1 calls
HF: Guess                           :      8.333u      0.250s      0.860w      1 calls
SAD Guess                           :      8.167u      0.250s      0.843w      1 calls
HF: Form G                          :   4276.067u     24.350s    450.671w     15 calls
JK: D                               :      0.483u      0.000s      0.049w     15 calls
JK: USO2AO                          :      0.283u      0.017s      0.028w     15 calls
JK: JK                              :   4274.750u     24.333s    450.540w     15 calls
JK: J                               :    113.067u      0.850s     11.469w     30 calls
JK: J1                              :     57.300u      0.450s      5.796w     30 calls
JK: J2                              :     54.617u      0.350s      5.507w     30 calls
JK: K                               :   4112.867u      2.433s    413.803w     30 calls
JK: K1                              :   2382.583u      0.683s    238.717w     30 calls
JK: K2                              :   1730.017u      1.750s    175.063w     30 calls
JK: AO2USO                          :      0.000u      0.000s      0.000w     15 calls
HF: Form F                          :      0.250u      0.000s      0.026w     15 calls
HF: Form D                          :      0.467u      0.000s      0.046w     15 calls
HF: DIIS                            :     17.683u      1.250s      1.896w     14 calls
DIISManager::add_entry              :      1.517u      0.283s      0.182w     14 calls
DIISManager::extrapolate            :      5.233u      0.900s      0.612w     14 calls
bMatrix setup                       :      2.667u      0.567s      0.315w     14 calls
bMatrix pseudoinverse               :      0.000u      0.000s      0.001w     14 calls
New vector                          :      2.550u      0.333s      0.296w     14 calls
HF: Form C                          :     46.400u      0.667s      4.713w     14 calls
DFMP2 Singles                       :      0.450u      0.000s      0.045w      1 calls
DFMP2 Aia                           :   1132.483u     10.333s    128.855w      1 calls
DFMP2 (A|mn)                        :    941.300u      0.717s     94.326w      3 calls
DFMP2 (A|mn)C_mi                    :     92.917u      0.267s      9.333w      3 calls
DFMP2 (A|mi)C_na                    :     72.417u      0.100s      7.261w      3 calls
DFMP2 Aia Write                     :      3.700u      4.317s      2.616w      3 calls
DFMP2 Qia                           :    612.717u      9.600s     66.777w      1 calls
DFMP2 Metric                        :    278.483u      2.567s     28.310w      1 calls
DFMP2 Aia Read                      :      0.000u      1.517s      0.914w      1 calls
DFMP2 (Q|A)(A|ia)                   :    331.217u      0.050s     33.370w      1 calls
DFMP2 Qia Write                     :      0.233u      3.400s      2.147w      1 calls
DFMP2 Energy                        :   2746.917u      5.600s    279.673w      1 calls
DFMP2 Qia Read                      :      1.717u      1.550s      1.963w      2 calls

--------------------------------------------------------------------------------------
DFH: sparsity prep                  :      2.383u      0.267s      0.820w      1 calls
JK: (A|mn)                          :   1458.050u      0.100s    145.991w      1 calls
JK: (A|Q)^-1/2                      :    279.883u      2.567s     28.327w      1 calls
JK: (Q|mn)                          :   1236.167u      0.783s    124.519w      1 calls
HF: Form core H                     :      0.450u      0.033s      0.052w      1 calls
HF: Form S/X                        :      2.933u      0.033s      0.296w      1 calls
HF: Guess                           :      8.333u      0.250s      0.860w      1 calls
| SAD Guess                         :      8.167u      0.250s      0.843w      1 calls
HF: Form G                          :   4276.067u     24.350s    450.671w     15 calls
| JK: D                             :      0.483u      0.000s      0.049w     15 calls
| JK: USO2AO                        :      0.283u      0.017s      0.028w     15 calls
| JK: JK                            :   4274.750u     24.333s    450.540w     15 calls
| | JK: J                           :    113.067u      0.850s     11.469w     30 calls
| | | JK: J1                        :     57.300u      0.450s      5.796w     30 calls
| | | JK: J2                        :     54.617u      0.350s      5.507w     30 calls
| | JK: K                           :   4112.867u      2.433s    413.803w     30 calls
| | | JK: K1                        :   2382.583u      0.683s    238.717w     30 calls
| | | JK: K2                        :   1730.017u      1.750s    175.063w     30 calls
| JK: AO2USO                        :      0.000u      0.000s      0.000w     15 calls
HF: Form F                          :      0.250u      0.000s      0.026w     15 calls
HF: Form D                          :      0.467u      0.000s      0.046w     15 calls
HF: DIIS                            :     17.683u      1.250s      1.896w     14 calls
| DIISManager::add_entry            :      1.517u      0.283s      0.182w     14 calls
| DIISManager::extrapolate          :      5.233u      0.900s      0.612w     14 calls
| | bMatrix setup                   :      2.667u      0.567s      0.315w     14 calls
| | bMatrix pseudoinverse           :      0.000u      0.000s      0.001w     14 calls
| | New vector                      :      2.550u      0.333s      0.296w     14 calls
HF: Form C                          :     46.400u      0.667s      4.713w     14 calls
DFMP2 Singles                       :      0.450u      0.000s      0.045w      1 calls
DFMP2 Aia                           :   1132.483u     10.333s    128.855w      1 calls
| DFMP2 (A|mn)                      :    941.300u      0.717s     94.326w      3 calls
| DFMP2 (A|mn)C_mi                  :     92.917u      0.267s      9.333w      3 calls
| DFMP2 (A|mi)C_na                  :     72.417u      0.100s      7.261w      3 calls
| DFMP2 Aia Write                   :      3.700u      4.317s      2.616w      3 calls
DFMP2 Qia                           :    612.717u      9.600s     66.777w      1 calls
| DFMP2 Metric                      :    278.483u      2.567s     28.310w      1 calls
| DFMP2 Aia Read                    :      0.000u      1.517s      0.914w      1 calls
| DFMP2 (Q|A)(A|ia)                 :    331.217u      0.050s     33.370w      1 calls
| DFMP2 Qia Write                   :      0.233u      3.400s      2.147w      1 calls
DFMP2 Energy                        :   2746.917u      5.600s    279.673w      1 calls
| DFMP2 Qia Read                    :      1.717u      1.550s      1.963w      2 calls

**************************************************************************************

Host: node43.bme.utexas.edu

Timers On : Tue Mar  3 17:56:34 2020
Timers Off: Tue Mar  3 18:18:45 2020

Wall Time:     1330.95 seconds

                                                       Time (seconds)
Module                                       User      System        Wall        Calls
DFH: sparsity prep                  :      2.517u      0.300s      0.868w      1 calls
JK: (A|mn)                          :   1327.667u      0.150s    132.794w      1 calls
JK: (A|Q)^-1/2                      :    290.017u      4.267s     29.491w      1 calls
JK: (Q|mn)                          :   1408.500u      1.150s    140.989w      1 calls
HF: Form core H                     :      0.550u      0.050s      0.064w      1 calls
HF: Form S/X                        :      2.633u      0.117s      0.276w      1 calls
HF: Guess                           :      8.733u      0.433s      0.917w      1 calls
SAD Guess                           :      8.517u      0.417s      0.893w      1 calls
HF: Form G                          :   4802.967u     27.900s    498.780w     15 calls
JK: D                               :      0.583u      0.033s      0.063w     15 calls
JK: USO2AO                          :      0.417u      0.050s      0.043w     15 calls
JK: JK                              :   4801.300u     27.767s    498.599w     15 calls
JK: J                               :    151.250u      1.250s     15.330w     30 calls
JK: J1                              :     76.583u      0.783s      7.737w     30 calls
JK: J2                              :     73.233u      0.317s      7.359w     30 calls
JK: K                               :   4610.383u      5.417s    463.292w     30 calls
JK: K1                              :   2736.817u      2.050s    273.922w     30 calls
JK: K2                              :   1873.133u      3.333s    189.324w     30 calls
JK: AO2USO                          :      0.000u      0.000s      0.000w     15 calls
HF: Form F                          :      0.283u      0.017s      0.032w     15 calls
HF: Form D                          :      0.533u      0.017s      0.057w     15 calls
HF: DIIS                            :     20.817u      1.817s      2.269w     14 calls
DIISManager::add_entry              :      1.467u      0.317s      0.175w     14 calls
DIISManager::extrapolate            :      6.267u      1.233s      0.751w     14 calls
bMatrix setup                       :      3.033u      0.700s      0.375w     14 calls
bMatrix pseudoinverse               :      0.050u      0.000s      0.002w     14 calls
New vector                          :      3.183u      0.533s      0.373w     14 calls
HF: Form C                          :     45.867u      1.283s      4.704w     14 calls
DFMP2 Singles                       :      0.817u      0.033s      0.088w      1 calls
DFMP2 Aia                           :    959.417u      9.650s    109.805w      1 calls
DFMP2 (A|mn)                        :    757.583u      0.167s     75.789w      3 calls
DFMP2 (A|mn)C_mi                    :     98.150u      0.217s      9.838w      3 calls
DFMP2 (A|mi)C_na                    :     81.433u      0.117s      8.282w      3 calls
DFMP2 Aia Write                     :      3.050u      3.517s      1.978w      3 calls
DFMP2 Qia                           :    722.700u     11.783s     78.469w      1 calls
DFMP2 Metric                        :    348.767u      3.333s     35.392w      1 calls
DFMP2 Aia Read                      :      0.050u      1.633s      1.011w      1 calls
DFMP2 (Q|A)(A|ia)                   :    370.933u      0.150s     37.164w      1 calls
DFMP2 Qia Write                     :      0.367u      4.317s      2.589w      1 calls
DFMP2 Energy                        :   3083.483u      8.867s    315.231w      1 calls
DFMP2 Qia Read                      :      2.533u      2.683s      3.130w      2 calls

--------------------------------------------------------------------------------------
DFH: sparsity prep                  :      2.517u      0.300s      0.868w      1 calls
JK: (A|mn)                          :   1327.667u      0.150s    132.794w      1 calls
JK: (A|Q)^-1/2                      :    290.017u      4.267s     29.491w      1 calls
JK: (Q|mn)                          :   1408.500u      1.150s    140.989w      1 calls
HF: Form core H                     :      0.550u      0.050s      0.064w      1 calls
HF: Form S/X                        :      2.633u      0.117s      0.276w      1 calls
HF: Guess                           :      8.733u      0.433s      0.917w      1 calls
| SAD Guess                         :      8.517u      0.417s      0.893w      1 calls
HF: Form G                          :   4802.967u     27.900s    498.780w     15 calls
| JK: D                             :      0.583u      0.033s      0.063w     15 calls
| JK: USO2AO                        :      0.417u      0.050s      0.043w     15 calls
| JK: JK                            :   4801.300u     27.767s    498.599w     15 calls
| | JK: J                           :    151.250u      1.250s     15.330w     30 calls
| | | JK: J1                        :     76.583u      0.783s      7.737w     30 calls
| | | JK: J2                        :     73.233u      0.317s      7.359w     30 calls
| | JK: K                           :   4610.383u      5.417s    463.292w     30 calls
| | | JK: K1                        :   2736.817u      2.050s    273.922w     30 calls
| | | JK: K2                        :   1873.133u      3.333s    189.324w     30 calls
| JK: AO2USO                        :      0.000u      0.000s      0.000w     15 calls
HF: Form F                          :      0.283u      0.017s      0.032w     15 calls
HF: Form D                          :      0.533u      0.017s      0.057w     15 calls
HF: DIIS                            :     20.817u      1.817s      2.269w     14 calls
| DIISManager::add_entry            :      1.467u      0.317s      0.175w     14 calls
| DIISManager::extrapolate          :      6.267u      1.233s      0.751w     14 calls
| | bMatrix setup                   :      3.033u      0.700s      0.375w     14 calls
| | bMatrix pseudoinverse           :      0.050u      0.000s      0.002w     14 calls
| | New vector                      :      3.183u      0.533s      0.373w     14 calls
HF: Form C                          :     45.867u      1.283s      4.704w     14 calls
DFMP2 Singles                       :      0.817u      0.033s      0.088w      1 calls
DFMP2 Aia                           :    959.417u      9.650s    109.805w      1 calls
| DFMP2 (A|mn)                      :    757.583u      0.167s     75.789w      3 calls
| DFMP2 (A|mn)C_mi                  :     98.150u      0.217s      9.838w      3 calls
| DFMP2 (A|mi)C_na                  :     81.433u      0.117s      8.282w      3 calls
| DFMP2 Aia Write                   :      3.050u      3.517s      1.978w      3 calls
DFMP2 Qia                           :    722.700u     11.783s     78.469w      1 calls
| DFMP2 Metric                      :    348.767u      3.333s     35.392w      1 calls
| DFMP2 Aia Read                    :      0.050u      1.633s      1.011w      1 calls
| DFMP2 (Q|A)(A|ia)                 :    370.933u      0.150s     37.164w      1 calls
| DFMP2 Qia Write                   :      0.367u      4.317s      2.589w      1 calls
DFMP2 Energy                        :   3083.483u      8.867s    315.231w      1 calls
| DFMP2 Qia Read                    :      2.533u      2.683s      3.130w      2 calls

**************************************************************************************

Host: node46.bme.utexas.edu

Timers On : Tue Mar  3 18:01:59 2020
Timers Off: Tue Mar  3 18:24:10 2020

Wall Time:     1331.21 seconds

                                                       Time (seconds)
Module                                       User      System        Wall        Calls
DFH: sparsity prep                  :      2.500u      0.400s      0.891w      1 calls
JK: (A|mn)                          :   1795.633u      0.150s    179.801w      1 calls
JK: (A|Q)^-1/2                      :    267.167u      2.517s     27.129w      1 calls
JK: (Q|mn)                          :   1133.067u      1.267s    113.709w      1 calls
HF: Form core H                     :      0.500u      0.017s      0.057w      1 calls
HF: Form S/X                        :      2.967u      0.033s      0.301w      1 calls
HF: Guess                           :      8.100u      0.283s      0.839w      1 calls
SAD Guess                           :      7.933u      0.267s      0.823w      1 calls
HF: Form G                          :   4005.350u    160.833s    503.719w     15 calls
JK: D                               :      0.550u      0.000s      0.051w     15 calls
JK: USO2AO                          :      0.283u      0.017s      0.030w     15 calls
JK: JK                              :   4004.017u    160.817s    503.579w     15 calls
JK: J                               :     99.367u      0.717s     10.138w     30 calls
JK: J1                              :     46.250u      0.433s      4.739w     30 calls
JK: J2                              :     51.933u      0.267s      5.231w     30 calls
JK: K                               :   3854.067u      2.650s    387.804w     30 calls
JK: K1                              :   2145.367u      0.717s    215.018w     30 calls
JK: K2                              :   1708.500u      1.900s    172.763w     30 calls
JK: AO2USO                          :      0.000u      0.000s      0.000w     15 calls
HF: Form F                          :      0.267u      0.017s      0.028w     15 calls
HF: Form D                          :      0.450u      0.000s      0.047w     15 calls
HF: DIIS                            :     18.483u      1.317s      1.982w     14 calls
DIISManager::add_entry              :      1.600u      0.283s      0.193w     14 calls
DIISManager::extrapolate            :      5.517u      0.933s      0.644w     14 calls
bMatrix setup                       :      2.750u      0.600s      0.337w     14 calls
bMatrix pseudoinverse               :      0.017u      0.000s      0.001w     14 calls
New vector                          :      2.733u      0.333s      0.305w     14 calls
HF: Form C                          :     47.433u      0.683s      4.817w     14 calls
DFMP2 Singles                       :      0.500u      0.000s      0.050w      1 calls
DFMP2 Aia                           :   1130.067u     23.367s    138.843w      1 calls
DFMP2 (A|mn)                        :    928.567u      0.767s     93.058w      3 calls
DFMP2 (A|mn)C_mi                    :     99.567u      0.217s      9.994w      3 calls
DFMP2 (A|mi)C_na                    :     71.533u      0.217s      7.192w      3 calls
DFMP2 Aia Write                     :      3.967u      4.067s      2.420w      3 calls
DFMP2 Qia                           :    602.733u     10.667s     66.036w      1 calls
DFMP2 Metric                        :    272.733u      3.117s     27.788w      1 calls
DFMP2 Aia Read                      :      0.017u      1.800s      1.089w      1 calls
DFMP2 (Q|A)(A|ia)                   :    326.633u      0.083s     32.799w      1 calls
DFMP2 Qia Write                     :      0.383u      3.533s      2.251w      1 calls
DFMP2 Energy                        :   2685.883u      7.317s    274.563w      1 calls
DFMP2 Qia Read                      :      2.500u      1.667s      2.515w      2 calls

--------------------------------------------------------------------------------------
DFH: sparsity prep                  :      2.500u      0.400s      0.891w      1 calls
JK: (A|mn)                          :   1795.633u      0.150s    179.801w      1 calls
JK: (A|Q)^-1/2                      :    267.167u      2.517s     27.129w      1 calls
JK: (Q|mn)                          :   1133.067u      1.267s    113.709w      1 calls
HF: Form core H                     :      0.500u      0.017s      0.057w      1 calls
HF: Form S/X                        :      2.967u      0.033s      0.301w      1 calls
HF: Guess                           :      8.100u      0.283s      0.839w      1 calls
| SAD Guess                         :      7.933u      0.267s      0.823w      1 calls
HF: Form G                          :   4005.350u    160.833s    503.719w     15 calls
| JK: D                             :      0.550u      0.000s      0.051w     15 calls
| JK: USO2AO                        :      0.283u      0.017s      0.030w     15 calls
| JK: JK                            :   4004.017u    160.817s    503.579w     15 calls
| | JK: J                           :     99.367u      0.717s     10.138w     30 calls
| | | JK: J1                        :     46.250u      0.433s      4.739w     30 calls
| | | JK: J2                        :     51.933u      0.267s      5.231w     30 calls
| | JK: K                           :   3854.067u      2.650s    387.804w     30 calls
| | | JK: K1                        :   2145.367u      0.717s    215.018w     30 calls
| | | JK: K2                        :   1708.500u      1.900s    172.763w     30 calls
| JK: AO2USO                        :      0.000u      0.000s      0.000w     15 calls
HF: Form F                          :      0.267u      0.017s      0.028w     15 calls
HF: Form D                          :      0.450u      0.000s      0.047w     15 calls
HF: DIIS                            :     18.483u      1.317s      1.982w     14 calls
| DIISManager::add_entry            :      1.600u      0.283s      0.193w     14 calls
| DIISManager::extrapolate          :      5.517u      0.933s      0.644w     14 calls
| | bMatrix setup                   :      2.750u      0.600s      0.337w     14 calls
| | bMatrix pseudoinverse           :      0.017u      0.000s      0.001w     14 calls
| | New vector                      :      2.733u      0.333s      0.305w     14 calls
HF: Form C                          :     47.433u      0.683s      4.817w     14 calls
DFMP2 Singles                       :      0.500u      0.000s      0.050w      1 calls
DFMP2 Aia                           :   1130.067u     23.367s    138.843w      1 calls
| DFMP2 (A|mn)                      :    928.567u      0.767s     93.058w      3 calls
| DFMP2 (A|mn)C_mi                  :     99.567u      0.217s      9.994w      3 calls
| DFMP2 (A|mi)C_na                  :     71.533u      0.217s      7.192w      3 calls
| DFMP2 Aia Write                   :      3.967u      4.067s      2.420w      3 calls
DFMP2 Qia                           :    602.733u     10.667s     66.036w      1 calls
| DFMP2 Metric                      :    272.733u      3.117s     27.788w      1 calls
| DFMP2 Aia Read                    :      0.017u      1.800s      1.089w      1 calls
| DFMP2 (Q|A)(A|ia)                 :    326.633u      0.083s     32.799w      1 calls
| DFMP2 Qia Write                   :      0.383u      3.533s      2.251w      1 calls
DFMP2 Energy                        :   2685.883u      7.317s    274.563w      1 calls
| DFMP2 Qia Read                    :      2.500u      1.667s      2.515w      2 calls

**************************************************************************************

Host: node45.bme.utexas.edu

Timers On : Tue Mar  3 18:01:57 2020
Timers Off: Tue Mar  3 18:24:16 2020

Wall Time:     1339.35 seconds

                                                       Time (seconds)
Module                                       User      System        Wall        Calls
DFH: sparsity prep                  :      2.500u      0.350s      0.884w      1 calls
JK: (A|mn)                          :   1489.800u      0.117s    149.173w      1 calls
JK: (A|Q)^-1/2                      :    268.800u      2.450s     27.279w      1 calls
JK: (Q|mn)                          :   1171.767u      1.700s    117.706w      1 calls
HF: Form core H                     :      0.533u      0.017s      0.059w      1 calls
HF: Form S/X                        :      3.017u      0.050s      0.307w      1 calls
HF: Guess                           :      8.617u      0.283s      0.893w      1 calls
SAD Guess                           :      8.450u      0.267s      0.876w      1 calls
HF: Form G                          :   4193.850u    193.767s    539.350w     15 calls
JK: D                               :      0.450u      0.000s      0.047w     15 calls
JK: USO2AO                          :      0.283u      0.033s      0.028w     15 calls
JK: JK                              :   4192.567u    193.733s    539.213w     15 calls
JK: J                               :     93.850u      0.600s      9.509w     30 calls
JK: J1                              :     41.817u      0.367s      4.223w     30 calls
JK: J2                              :     51.050u      0.183s      5.137w     30 calls
JK: K                               :   4049.583u      2.850s    407.968w     30 calls
JK: K1                              :   2353.200u      0.917s    235.832w     30 calls
JK: K2                              :   1696.117u      1.933s    172.115w     30 calls
JK: AO2USO                          :      0.000u      0.000s      0.000w     15 calls
HF: Form F                          :      0.250u      0.000s      0.027w     15 calls
HF: Form D                          :      0.417u      0.000s      0.044w     15 calls
HF: DIIS                            :     18.167u      1.300s      1.954w     14 calls
DIISManager::add_entry              :      1.583u      0.283s      0.184w     14 calls
DIISManager::extrapolate            :      5.300u      0.883s      0.618w     14 calls
bMatrix setup                       :      2.650u      0.533s      0.322w     14 calls
bMatrix pseudoinverse               :      0.050u      0.000s      0.001w     14 calls
New vector                          :      2.600u      0.350s      0.295w     14 calls
HF: Form C                          :     45.733u      0.600s      4.639w     14 calls
DFMP2 Singles                       :      0.433u      0.017s      0.044w      1 calls
DFMP2 Aia                           :   1084.883u     23.567s    135.811w      1 calls
DFMP2 (A|mn)                        :    884.967u      0.250s     88.650w      3 calls
DFMP2 (A|mn)C_mi                    :     96.833u      0.133s      9.710w      3 calls
DFMP2 (A|mi)C_na                    :     70.983u      0.017s      7.111w      3 calls
DFMP2 Aia Write                     :      4.450u      3.800s      2.402w      3 calls
DFMP2 Qia                           :    603.167u      9.917s     66.172w      1 calls
DFMP2 Metric                        :    273.517u      2.783s     27.834w      1 calls
DFMP2 Aia Read                      :      0.017u      1.350s      0.815w      1 calls
DFMP2 (Q|A)(A|ia)                   :    325.167u      0.133s     32.589w      1 calls
DFMP2 Qia Write                     :      0.550u      3.383s      2.171w      1 calls
DFMP2 Energy                        :   2680.900u      6.683s    274.517w      1 calls
DFMP2 Qia Read                      :      2.483u      1.633s      2.469w      2 calls

--------------------------------------------------------------------------------------
DFH: sparsity prep                  :      2.500u      0.350s      0.884w      1 calls
JK: (A|mn)                          :   1489.800u      0.117s    149.173w      1 calls
JK: (A|Q)^-1/2                      :    268.800u      2.450s     27.279w      1 calls
JK: (Q|mn)                          :   1171.767u      1.700s    117.706w      1 calls
HF: Form core H                     :      0.533u      0.017s      0.059w      1 calls
HF: Form S/X                        :      3.017u      0.050s      0.307w      1 calls
HF: Guess                           :      8.617u      0.283s      0.893w      1 calls
| SAD Guess                         :      8.450u      0.267s      0.876w      1 calls
HF: Form G                          :   4193.850u    193.767s    539.350w     15 calls
| JK: D                             :      0.450u      0.000s      0.047w     15 calls
| JK: USO2AO                        :      0.283u      0.033s      0.028w     15 calls
| JK: JK                            :   4192.567u    193.733s    539.213w     15 calls
| | JK: J                           :     93.850u      0.600s      9.509w     30 calls
| | | JK: J1                        :     41.817u      0.367s      4.223w     30 calls
| | | JK: J2                        :     51.050u      0.183s      5.137w     30 calls
| | JK: K                           :   4049.583u      2.850s    407.968w     30 calls
| | | JK: K1                        :   2353.200u      0.917s    235.832w     30 calls
| | | JK: K2                        :   1696.117u      1.933s    172.115w     30 calls
| JK: AO2USO                        :      0.000u      0.000s      0.000w     15 calls
HF: Form F                          :      0.250u      0.000s      0.027w     15 calls
HF: Form D                          :      0.417u      0.000s      0.044w     15 calls
HF: DIIS                            :     18.167u      1.300s      1.954w     14 calls
| DIISManager::add_entry            :      1.583u      0.283s      0.184w     14 calls
| DIISManager::extrapolate          :      5.300u      0.883s      0.618w     14 calls
| | bMatrix setup                   :      2.650u      0.533s      0.322w     14 calls
| | bMatrix pseudoinverse           :      0.050u      0.000s      0.001w     14 calls
| | New vector                      :      2.600u      0.350s      0.295w     14 calls
HF: Form C                          :     45.733u      0.600s      4.639w     14 calls
DFMP2 Singles                       :      0.433u      0.017s      0.044w      1 calls
DFMP2 Aia                           :   1084.883u     23.567s    135.811w      1 calls
| DFMP2 (A|mn)                      :    884.967u      0.250s     88.650w      3 calls
| DFMP2 (A|mn)C_mi                  :     96.833u      0.133s      9.710w      3 calls
| DFMP2 (A|mi)C_na                  :     70.983u      0.017s      7.111w      3 calls
| DFMP2 Aia Write                   :      4.450u      3.800s      2.402w      3 calls
DFMP2 Qia                           :    603.167u      9.917s     66.172w      1 calls
| DFMP2 Metric                      :    273.517u      2.783s     27.834w      1 calls
| DFMP2 Aia Read                    :      0.017u      1.350s      0.815w      1 calls
| DFMP2 (Q|A)(A|ia)                 :    325.167u      0.133s     32.589w      1 calls
| DFMP2 Qia Write                   :      0.550u      3.383s      2.171w      1 calls
DFMP2 Energy                        :   2680.900u      6.683s    274.517w      1 calls
| DFMP2 Qia Read                    :      2.483u      1.633s      2.469w      2 calls

**************************************************************************************

Host: node40.bme.utexas.edu

Timers On : Tue Mar  3 18:01:48 2020
Timers Off: Tue Mar  3 18:25:29 2020

Wall Time:     1420.35 seconds

                                                       Time (seconds)
Module                                       User      System        Wall        Calls
DFH: sparsity prep                  :      2.467u      0.317s      0.856w      1 calls
JK: (A|mn)                          :   1485.533u      3.200s    149.049w      1 calls
JK: (A|Q)^-1/2                      :    264.517u      6.017s     29.136w      1 calls
JK: (Q|mn)                          :   1223.183u      1.217s    123.824w      1 calls
HF: Form core H                     :      0.333u      0.017s      0.037w      1 calls
HF: Form S/X                        :      3.017u      0.067s      0.307w      1 calls
HF: Guess                           :      8.500u      0.267s      0.881w      1 calls
SAD Guess                           :      8.333u      0.267s      0.864w      1 calls
HF: Form G                          :   4740.217u    157.633s    578.894w     15 calls
JK: D                               :      0.433u      0.017s      0.049w     15 calls
JK: USO2AO                          :      0.283u      0.017s      0.029w     15 calls
JK: JK                              :   4738.917u    157.600s    578.759w     15 calls
JK: J                               :    107.250u      0.650s     10.959w     30 calls
JK: J1                              :     52.117u      0.333s      5.356w     30 calls
JK: J2                              :     54.067u      0.300s      5.446w     30 calls
JK: K                               :   4600.533u      2.733s    463.482w     30 calls
JK: K1                              :   2879.917u      0.967s    288.592w     30 calls
JK: K2                              :   1720.350u      1.750s    174.868w     30 calls
JK: AO2USO                          :      0.000u      0.000s      0.000w     15 calls
HF: Form F                          :      0.283u      0.017s      0.029w     15 calls
HF: Form D                          :      0.450u      0.017s      0.047w     15 calls
HF: DIIS                            :     17.767u      1.267s      1.910w     14 calls
DIISManager::add_entry              :      1.517u      0.300s      0.184w     14 calls
DIISManager::extrapolate            :      5.333u      0.917s      0.630w     14 calls
bMatrix setup                       :      2.633u      0.600s      0.321w     14 calls
bMatrix pseudoinverse               :      0.000u      0.000s      0.001w     14 calls
New vector                          :      2.700u      0.317s      0.307w     14 calls
HF: Form C                          :     44.633u      0.533s      4.521w     14 calls
DFMP2 Singles                       :      0.467u      0.000s      0.046w      1 calls
DFMP2 Aia                           :   1091.067u     39.050s    144.781w      1 calls
DFMP2 (A|mn)                        :    898.117u      0.517s     89.972w      3 calls
DFMP2 (A|mn)C_mi                    :     94.467u      0.150s      9.476w      3 calls
DFMP2 (A|mi)C_na                    :     73.283u      0.100s      7.347w      3 calls
DFMP2 Aia Write                     :      3.150u      4.400s      3.345w      3 calls
DFMP2 Qia                           :    612.000u     10.633s     70.218w      1 calls
DFMP2 Metric                        :    277.000u      2.450s     28.147w      1 calls
DFMP2 Aia Read                      :      0.017u      1.483s      2.765w      1 calls
DFMP2 (Q|A)(A|ia)                   :    330.883u      0.633s     33.984w      1 calls
DFMP2 Qia Write                     :      0.350u      4.000s      2.544w      1 calls
DFMP2 Energy                        :   2748.817u      5.850s    280.477w      1 calls
DFMP2 Qia Read                      :      1.650u      1.467s      1.886w      2 calls

--------------------------------------------------------------------------------------
DFH: sparsity prep                  :      2.467u      0.317s      0.856w      1 calls
JK: (A|mn)                          :   1485.533u      3.200s    149.049w      1 calls
JK: (A|Q)^-1/2                      :    264.517u      6.017s     29.136w      1 calls
JK: (Q|mn)                          :   1223.183u      1.217s    123.824w      1 calls
HF: Form core H                     :      0.333u      0.017s      0.037w      1 calls
HF: Form S/X                        :      3.017u      0.067s      0.307w      1 calls
HF: Guess                           :      8.500u      0.267s      0.881w      1 calls
| SAD Guess                         :      8.333u      0.267s      0.864w      1 calls
HF: Form G                          :   4740.217u    157.633s    578.894w     15 calls
| JK: D                             :      0.433u      0.017s      0.049w     15 calls
| JK: USO2AO                        :      0.283u      0.017s      0.029w     15 calls
| JK: JK                            :   4738.917u    157.600s    578.759w     15 calls
| | JK: J                           :    107.250u      0.650s     10.959w     30 calls
| | | JK: J1                        :     52.117u      0.333s      5.356w     30 calls
| | | JK: J2                        :     54.067u      0.300s      5.446w     30 calls
| | JK: K                           :   4600.533u      2.733s    463.482w     30 calls
| | | JK: K1                        :   2879.917u      0.967s    288.592w     30 calls
| | | JK: K2                        :   1720.350u      1.750s    174.868w     30 calls
| JK: AO2USO                        :      0.000u      0.000s      0.000w     15 calls
HF: Form F                          :      0.283u      0.017s      0.029w     15 calls
HF: Form D                          :      0.450u      0.017s      0.047w     15 calls
HF: DIIS                            :     17.767u      1.267s      1.910w     14 calls
| DIISManager::add_entry            :      1.517u      0.300s      0.184w     14 calls
| DIISManager::extrapolate          :      5.333u      0.917s      0.630w     14 calls
| | bMatrix setup                   :      2.633u      0.600s      0.321w     14 calls
| | bMatrix pseudoinverse           :      0.000u      0.000s      0.001w     14 calls
| | New vector                      :      2.700u      0.317s      0.307w     14 calls
HF: Form C                          :     44.633u      0.533s      4.521w     14 calls
DFMP2 Singles                       :      0.467u      0.000s      0.046w      1 calls
DFMP2 Aia                           :   1091.067u     39.050s    144.781w      1 calls
| DFMP2 (A|mn)                      :    898.117u      0.517s     89.972w      3 calls
| DFMP2 (A|mn)C_mi                  :     94.467u      0.150s      9.476w      3 calls
| DFMP2 (A|mi)C_na                  :     73.283u      0.100s      7.347w      3 calls
| DFMP2 Aia Write                   :      3.150u      4.400s      3.345w      3 calls
DFMP2 Qia                           :    612.000u     10.633s     70.218w      1 calls
| DFMP2 Metric                      :    277.000u      2.450s     28.147w      1 calls
| DFMP2 Aia Read                    :      0.017u      1.483s      2.765w      1 calls
| DFMP2 (Q|A)(A|ia)                 :    330.883u      0.633s     33.984w      1 calls
| DFMP2 Qia Write                   :      0.350u      4.000s      2.544w      1 calls
DFMP2 Energy                        :   2748.817u      5.850s    280.477w      1 calls
| DFMP2 Qia Read                    :      1.650u      1.467s      1.886w      2 calls

**************************************************************************************

Host: node48.bme.utexas.edu

Timers On : Tue Mar  3 18:02:03 2020
Timers Off: Tue Mar  3 18:25:39 2020

Wall Time:     1416.46 seconds

                                                       Time (seconds)
Module                                       User      System        Wall        Calls
DFH: sparsity prep                  :      2.517u      0.333s      0.885w      1 calls
JK: (A|mn)                          :   1486.500u      0.233s    148.868w      1 calls
JK: (A|Q)^-1/2                      :    264.617u      4.333s     27.924w      1 calls
JK: (Q|mn)                          :   1140.217u      0.817s    114.410w      1 calls
HF: Form core H                     :      0.650u      0.050s      0.077w      1 calls
HF: Form S/X                        :      3.017u      0.050s      0.307w      1 calls
HF: Guess                           :      8.533u      0.233s      0.881w      1 calls
SAD Guess                           :      8.383u      0.233s      0.864w      1 calls
HF: Form G                          :   4362.283u    257.450s    596.154w     15 calls
JK: D                               :      0.467u      0.000s      0.049w     15 calls
JK: USO2AO                          :      0.267u      0.033s      0.028w     15 calls
JK: JK                              :   4361.067u    257.417s    596.020w     15 calls
JK: J                               :     95.200u      0.567s      9.647w     30 calls
JK: J1                              :     41.200u      0.300s      4.165w     30 calls
JK: J2                              :     53.000u      0.250s      5.340w     30 calls
JK: K                               :   4223.300u      3.467s    425.308w     30 calls
JK: K1                              :   2511.067u      1.450s    251.699w     30 calls
JK: K2                              :   1711.933u      2.017s    173.587w     30 calls
JK: AO2USO                          :      0.000u      0.000s      0.000w     15 calls
HF: Form F                          :      0.300u      0.033s      0.028w     15 calls
HF: Form D                          :      0.417u      0.000s      0.046w     15 calls
HF: DIIS                            :     17.833u      1.283s      1.914w     14 calls
DIISManager::add_entry              :      1.517u      0.250s      0.181w     14 calls
DIISManager::extrapolate            :      5.333u      0.917s      0.622w     14 calls
bMatrix setup                       :      2.667u      0.617s      0.323w     14 calls
bMatrix pseudoinverse               :      0.033u      0.000s      0.001w     14 calls
New vector                          :      2.633u      0.300s      0.298w     14 calls
HF: Form C                          :     44.117u      0.583s      4.475w     14 calls
DFMP2 Singles                       :      0.433u      0.000s      0.044w      1 calls
DFMP2 Aia                           :   1150.483u     36.917s    150.683w      1 calls
DFMP2 (A|mn)                        :    943.950u      0.650s     94.591w      3 calls
DFMP2 (A|mn)C_mi                    :    101.750u      0.133s     10.212w      3 calls
DFMP2 (A|mi)C_na                    :     72.850u      0.100s      7.342w      3 calls
DFMP2 Aia Write                     :      3.767u      4.450s      2.861w      3 calls
DFMP2 Qia                           :    602.567u     10.917s     67.846w      1 calls
DFMP2 Metric                        :    272.050u      2.967s     27.711w      1 calls
DFMP2 Aia Read                      :      0.000u      1.517s      0.921w      1 calls
DFMP2 (Q|A)(A|ia)                   :    325.300u      0.117s     32.657w      1 calls
DFMP2 Qia Write                     :      0.783u      3.767s      2.656w      1 calls
DFMP2 Energy                        :   2702.250u      6.817s    277.400w      1 calls
DFMP2 Qia Read                      :      2.883u      1.583s      2.690w      2 calls

--------------------------------------------------------------------------------------
DFH: sparsity prep                  :      2.517u      0.333s      0.885w      1 calls
JK: (A|mn)                          :   1486.500u      0.233s    148.868w      1 calls
JK: (A|Q)^-1/2                      :    264.617u      4.333s     27.924w      1 calls
JK: (Q|mn)                          :   1140.217u      0.817s    114.410w      1 calls
HF: Form core H                     :      0.650u      0.050s      0.077w      1 calls
HF: Form S/X                        :      3.017u      0.050s      0.307w      1 calls
HF: Guess                           :      8.533u      0.233s      0.881w      1 calls
| SAD Guess                         :      8.383u      0.233s      0.864w      1 calls
HF: Form G                          :   4362.283u    257.450s    596.154w     15 calls
| JK: D                             :      0.467u      0.000s      0.049w     15 calls
| JK: USO2AO                        :      0.267u      0.033s      0.028w     15 calls
| JK: JK                            :   4361.067u    257.417s    596.020w     15 calls
| | JK: J                           :     95.200u      0.567s      9.647w     30 calls
| | | JK: J1                        :     41.200u      0.300s      4.165w     30 calls
| | | JK: J2                        :     53.000u      0.250s      5.340w     30 calls
| | JK: K                           :   4223.300u      3.467s    425.308w     30 calls
| | | JK: K1                        :   2511.067u      1.450s    251.699w     30 calls
| | | JK: K2                        :   1711.933u      2.017s    173.587w     30 calls
| JK: AO2USO                        :      0.000u      0.000s      0.000w     15 calls
HF: Form F                          :      0.300u      0.033s      0.028w     15 calls
HF: Form D                          :      0.417u      0.000s      0.046w     15 calls
HF: DIIS                            :     17.833u      1.283s      1.914w     14 calls
| DIISManager::add_entry            :      1.517u      0.250s      0.181w     14 calls
| DIISManager::extrapolate          :      5.333u      0.917s      0.622w     14 calls
| | bMatrix setup                   :      2.667u      0.617s      0.323w     14 calls
| | bMatrix pseudoinverse           :      0.033u      0.000s      0.001w     14 calls
| | New vector                      :      2.633u      0.300s      0.298w     14 calls
HF: Form C                          :     44.117u      0.583s      4.475w     14 calls
DFMP2 Singles                       :      0.433u      0.000s      0.044w      1 calls
DFMP2 Aia                           :   1150.483u     36.917s    150.683w      1 calls
| DFMP2 (A|mn)                      :    943.950u      0.650s     94.591w      3 calls
| DFMP2 (A|mn)C_mi                  :    101.750u      0.133s     10.212w      3 calls
| DFMP2 (A|mi)C_na                  :     72.850u      0.100s      7.342w      3 calls
| DFMP2 Aia Write                   :      3.767u      4.450s      2.861w      3 calls
DFMP2 Qia                           :    602.567u     10.917s     67.846w      1 calls
| DFMP2 Metric                      :    272.050u      2.967s     27.711w      1 calls
| DFMP2 Aia Read                    :      0.000u      1.517s      0.921w      1 calls
| DFMP2 (Q|A)(A|ia)                 :    325.300u      0.117s     32.657w      1 calls
| DFMP2 Qia Write                   :      0.783u      3.767s      2.656w      1 calls
DFMP2 Energy                        :   2702.250u      6.817s    277.400w      1 calls
| DFMP2 Qia Read                    :      2.883u      1.583s      2.690w      2 calls

**************************************************************************************

Host: g2-node38.bme.utexas.edu

Timers On : Tue Mar  3 18:01:47 2020
Timers Off: Tue Mar  3 18:36:49 2020

Wall Time:     2102.31 seconds

                                                       Time (seconds)
Module                                       User      System        Wall        Calls
DFH: sparsity prep                  :      2.867u      0.767s      1.149w      1 calls
JK: (A|mn)                          :   3532.717u     29.350s    356.204w      1 calls
JK: (A|Q)^-1/2                      :    351.150u      3.750s     35.615w      1 calls
JK: (Q|mn)                          :   1795.017u      2.133s    183.905w      1 calls
HF: Form core H                     :      1.117u      0.117s      0.129w      1 calls
HF: Form S/X                        :      5.850u      0.133s      0.598w      1 calls
HF: Guess                           :      8.483u      0.350s      0.886w      1 calls
SAD Guess                           :      8.117u      0.350s      0.845w      1 calls
HF: Form G                          :   6060.817u    157.550s    717.444w     15 calls
JK: D                               :      0.650u      0.050s      0.073w     15 calls
JK: USO2AO                          :      0.600u      0.017s      0.058w     15 calls
JK: JK                              :   6058.100u    157.417s    717.154w     15 calls
JK: J                               :    185.650u      1.617s     19.783w     30 calls
JK: J1                              :     87.000u      0.933s      9.269w     30 calls
JK: J2                              :     96.567u      0.550s     10.198w     30 calls
JK: K                               :   5815.717u      5.567s    588.504w     30 calls
JK: K1                              :   3665.083u      2.250s    367.380w     30 calls
JK: K2                              :   2150.117u      3.300s    221.067w     30 calls
JK: AO2USO                          :      0.000u      0.000s      0.000w     15 calls
HF: Form F                          :      0.883u      0.017s      0.095w     15 calls
HF: Form D                          :      0.900u      0.000s      0.090w     15 calls
HF: DIIS                            :     28.717u      2.600s      3.126w     14 calls
DIISManager::add_entry              :      2.783u      0.533s      0.332w     14 calls
DIISManager::extrapolate            :      9.917u      1.900s      1.176w     14 calls
bMatrix setup                       :      5.317u      1.217s      0.654w     14 calls
bMatrix pseudoinverse               :      0.033u      0.000s      0.002w     14 calls
New vector                          :      4.550u      0.683s      0.520w     14 calls
HF: Form C                          :     76.733u      1.450s      7.819w     14 calls
DFMP2 Singles                       :      0.667u      0.000s      0.068w      1 calls
DFMP2 Aia                           :   1752.000u     19.367s    207.997w      1 calls
DFMP2 (A|mn)                        :   1497.150u      0.283s    149.718w      3 calls
DFMP2 (A|mn)C_mi                    :    116.850u      0.250s     11.829w      3 calls
DFMP2 (A|mi)C_na                    :     91.750u      0.200s      9.464w      3 calls
DFMP2 Aia Write                     :      1.600u      7.550s      4.485w      3 calls
DFMP2 Qia                           :    801.900u     18.983s    103.578w      1 calls
DFMP2 Metric                        :    401.983u      4.800s     41.143w      1 calls
DFMP2 Aia Read                      :      0.017u      3.000s      1.814w      1 calls
DFMP2 (Q|A)(A|ia)                   :    395.350u      0.183s     40.648w      1 calls
DFMP2 Qia Write                     :      0.033u      6.483s      3.910w      1 calls
DFMP2 Energy                        :   3294.617u     15.150s    338.800w      1 calls
DFMP2 Qia Read                      :      3.083u      3.783s      4.122w      2 calls

--------------------------------------------------------------------------------------
DFH: sparsity prep                  :      2.867u      0.767s      1.149w      1 calls
JK: (A|mn)                          :   3532.717u     29.350s    356.204w      1 calls
JK: (A|Q)^-1/2                      :    351.150u      3.750s     35.615w      1 calls
JK: (Q|mn)                          :   1795.017u      2.133s    183.905w      1 calls
HF: Form core H                     :      1.117u      0.117s      0.129w      1 calls
HF: Form S/X                        :      5.850u      0.133s      0.598w      1 calls
HF: Guess                           :      8.483u      0.350s      0.886w      1 calls
| SAD Guess                         :      8.117u      0.350s      0.845w      1 calls
HF: Form G                          :   6060.817u    157.550s    717.444w     15 calls
| JK: D                             :      0.650u      0.050s      0.073w     15 calls
| JK: USO2AO                        :      0.600u      0.017s      0.058w     15 calls
| JK: JK                            :   6058.100u    157.417s    717.154w     15 calls
| | JK: J                           :    185.650u      1.617s     19.783w     30 calls
| | | JK: J1                        :     87.000u      0.933s      9.269w     30 calls
| | | JK: J2                        :     96.567u      0.550s     10.198w     30 calls
| | JK: K                           :   5815.717u      5.567s    588.504w     30 calls
| | | JK: K1                        :   3665.083u      2.250s    367.380w     30 calls
| | | JK: K2                        :   2150.117u      3.300s    221.067w     30 calls
| JK: AO2USO                        :      0.000u      0.000s      0.000w     15 calls
HF: Form F                          :      0.883u      0.017s      0.095w     15 calls
HF: Form D                          :      0.900u      0.000s      0.090w     15 calls
HF: DIIS                            :     28.717u      2.600s      3.126w     14 calls
| DIISManager::add_entry            :      2.783u      0.533s      0.332w     14 calls
| DIISManager::extrapolate          :      9.917u      1.900s      1.176w     14 calls
| | bMatrix setup                   :      5.317u      1.217s      0.654w     14 calls
| | bMatrix pseudoinverse           :      0.033u      0.000s      0.002w     14 calls
| | New vector                      :      4.550u      0.683s      0.520w     14 calls
HF: Form C                          :     76.733u      1.450s      7.819w     14 calls
DFMP2 Singles                       :      0.667u      0.000s      0.068w      1 calls
DFMP2 Aia                           :   1752.000u     19.367s    207.997w      1 calls
| DFMP2 (A|mn)                      :   1497.150u      0.283s    149.718w      3 calls
| DFMP2 (A|mn)C_mi                  :    116.850u      0.250s     11.829w      3 calls
| DFMP2 (A|mi)C_na                  :     91.750u      0.200s      9.464w      3 calls
| DFMP2 Aia Write                   :      1.600u      7.550s      4.485w      3 calls
DFMP2 Qia                           :    801.900u     18.983s    103.578w      1 calls
| DFMP2 Metric                      :    401.983u      4.800s     41.143w      1 calls
| DFMP2 Aia Read                    :      0.017u      3.000s      1.814w      1 calls
| DFMP2 (Q|A)(A|ia)                 :    395.350u      0.183s     40.648w      1 calls
| DFMP2 Qia Write                   :      0.033u      6.483s      3.910w      1 calls
DFMP2 Energy                        :   3294.617u     15.150s    338.800w      1 calls
| DFMP2 Qia Read                    :      3.083u      3.783s      4.122w      2 calls

**************************************************************************************

Host: node35.bme.utexas.edu

Timers On : Tue Mar  3 17:54:02 2020
Timers Off: Tue Mar  3 18:34:21 2020

Wall Time:     2419.20 seconds

                                                       Time (seconds)
Module                                       User      System        Wall        Calls
DFH: sparsity prep                  :      6.383u      1.117s      2.323w      1 calls
JK: (A|Q)^-1                        :    627.317u     40.867s     65.060w      1 calls
JK: (A|mn)                          :    622.050u      0.200s     62.241w      2 calls
JK: (Q|mn)                          :   3293.417u     10.917s    354.894w      2 calls
JK: (Q|mn) Write                    :      1.133u     23.417s     15.243w      2 calls
HF: Form core H                     :      0.133u      0.017s      0.095w      1 calls
HF: Form S/X                        :      7.000u      0.267s      0.727w      1 calls
HF: Guess                           :     12.933u      0.833s      1.551w      1 calls
SAD Guess                           :     12.567u      0.800s      1.509w      1 calls
HF: Form G                          :   9414.750u    328.117s   1182.848w     15 calls
JK: D                               :      1.483u      0.100s      0.161w     15 calls
JK: USO2AO                          :      0.983u      0.200s      0.114w     15 calls
JK: JK                              :   9410.983u    327.583s   1182.413w     15 calls
JK: (Q|mn) Read                     :      8.283u    206.250s    125.246w     30 calls
JK: J                               :    307.817u      3.250s     32.370w     30 calls
JK: J1                              :    146.650u      1.533s     15.217w     30 calls
JK: J2                              :    159.100u      1.533s     16.757w     30 calls
JK: K                               :   8997.300u     14.300s    921.948w     30 calls
JK: K1                              :   5084.267u      7.650s    509.485w     30 calls
JK: K2                              :   3912.533u      6.650s    412.391w     30 calls
JK: AO2USO                          :      0.000u      0.000s      0.000w     15 calls
HF: Form F                          :      0.517u      0.017s      0.055w     15 calls
HF: Form D                          :      1.217u      0.000s      0.124w     15 calls
HF: DIIS                            :     45.850u      3.850s      4.974w     14 calls
DIISManager::add_entry              :      2.983u      0.667s      0.367w     14 calls
DIISManager::extrapolate            :     10.883u      2.333s      1.326w     14 calls
bMatrix setup                       :      5.383u      1.267s      0.668w     14 calls
bMatrix pseudoinverse               :      0.033u      0.000s      0.005w     14 calls
New vector                          :      5.433u      1.067s      0.652w     14 calls
HF: Form C                          :    107.933u      3.700s     11.167w     14 calls
DFMP2 Singles                       :      0.733u      0.017s      0.075w      1 calls
DFMP2 Aia                           :   1459.067u     16.183s    167.983w      1 calls
DFMP2 (A|mn)                        :   1134.967u      1.200s    113.942w      3 calls
DFMP2 (A|mn)C_mi                    :    156.767u      1.833s     16.723w      3 calls
DFMP2 (A|mi)C_na                    :    137.017u      0.400s     13.802w      3 calls
DFMP2 Aia Write                     :      2.133u      4.833s      2.809w      3 calls
DFMP2 Qia                           :   1087.167u     19.283s    117.691w      1 calls
DFMP2 Metric                        :    496.317u      8.850s     51.247w      1 calls
DFMP2 Aia Read                      :      0.067u      2.133s      1.322w      1 calls
DFMP2 (Q|A)(A|ia)                   :    587.783u      1.400s     59.765w      1 calls
DFMP2 Qia Write                     :      0.667u      4.033s      2.428w      1 calls
DFMP2 Energy                        :   3961.050u     25.383s    404.204w      1 calls
DFMP2 Qia Read                      :      2.200u      2.067s      2.546w      2 calls

--------------------------------------------------------------------------------------
DFH: sparsity prep                  :      6.383u      1.117s      2.323w      1 calls
JK: (A|Q)^-1                        :    627.317u     40.867s     65.060w      1 calls
JK: (A|mn)                          :    622.050u      0.200s     62.241w      2 calls
JK: (Q|mn)                          :   3293.417u     10.917s    354.894w      2 calls
JK: (Q|mn) Write                    :      1.133u     23.417s     15.243w      2 calls
HF: Form core H                     :      0.133u      0.017s      0.095w      1 calls
HF: Form S/X                        :      7.000u      0.267s      0.727w      1 calls
HF: Guess                           :     12.933u      0.833s      1.551w      1 calls
| SAD Guess                         :     12.567u      0.800s      1.509w      1 calls
HF: Form G                          :   9414.750u    328.117s   1182.848w     15 calls
| JK: D                             :      1.483u      0.100s      0.161w     15 calls
| JK: USO2AO                        :      0.983u      0.200s      0.114w     15 calls
| JK: JK                            :   9410.983u    327.583s   1182.413w     15 calls
| | JK: (Q|mn) Read                 :      8.283u    206.250s    125.246w     30 calls
| | JK: J                           :    307.817u      3.250s     32.370w     30 calls
| | | JK: J1                        :    146.650u      1.533s     15.217w     30 calls
| | | JK: J2                        :    159.100u      1.533s     16.757w     30 calls
| | JK: K                           :   8997.300u     14.300s    921.948w     30 calls
| | | JK: K1                        :   5084.267u      7.650s    509.485w     30 calls
| | | JK: K2                        :   3912.533u      6.650s    412.391w     30 calls
| JK: AO2USO                        :      0.000u      0.000s      0.000w     15 calls
HF: Form F                          :      0.517u      0.017s      0.055w     15 calls
HF: Form D                          :      1.217u      0.000s      0.124w     15 calls
HF: DIIS                            :     45.850u      3.850s      4.974w     14 calls
| DIISManager::add_entry            :      2.983u      0.667s      0.367w     14 calls
| DIISManager::extrapolate          :     10.883u      2.333s      1.326w     14 calls
| | bMatrix setup                   :      5.383u      1.267s      0.668w     14 calls
| | bMatrix pseudoinverse           :      0.033u      0.000s      0.005w     14 calls
| | New vector                      :      5.433u      1.067s      0.652w     14 calls
HF: Form C                          :    107.933u      3.700s     11.167w     14 calls
DFMP2 Singles                       :      0.733u      0.017s      0.075w      1 calls
DFMP2 Aia                           :   1459.067u     16.183s    167.983w      1 calls
| DFMP2 (A|mn)                      :   1134.967u      1.200s    113.942w      3 calls
| DFMP2 (A|mn)C_mi                  :    156.767u      1.833s     16.723w      3 calls
| DFMP2 (A|mi)C_na                  :    137.017u      0.400s     13.802w      3 calls
| DFMP2 Aia Write                   :      2.133u      4.833s      2.809w      3 calls
DFMP2 Qia                           :   1087.167u     19.283s    117.691w      1 calls
| DFMP2 Metric                      :    496.317u      8.850s     51.247w      1 calls
| DFMP2 Aia Read                    :      0.067u      2.133s      1.322w      1 calls
| DFMP2 (Q|A)(A|ia)                 :    587.783u      1.400s     59.765w      1 calls
| DFMP2 Qia Write                   :      0.667u      4.033s      2.428w      1 calls
DFMP2 Energy                        :   3961.050u     25.383s    404.204w      1 calls
| DFMP2 Qia Read                    :      2.200u      2.067s      2.546w      2 calls

**************************************************************************************

Host: node36.bme.utexas.edu

Timers On : Tue Mar  3 18:05:02 2020
Timers Off: Tue Mar  3 18:45:55 2020

Wall Time:     2452.88 seconds

                                                       Time (seconds)
Module                                       User      System        Wall        Calls
DFH: sparsity prep                  :      4.017u      1.183s      1.637w      1 calls
JK: (A|Q)^-1                        :    449.533u     28.583s     50.172w      1 calls
JK: (A|mn)                          :    458.200u      6.833s     46.509w      2 calls
JK: (Q|mn)                          :   1993.350u     16.950s    201.054w      2 calls
JK: (Q|mn) Write                    :      7.333u     20.167s     72.712w      2 calls
HF: Form core H                     :      0.083u      0.033s      0.083w      1 calls
HF: Form S/X                        :      4.733u      0.150s      0.488w      1 calls
HF: Guess                           :      9.983u      0.667s      1.067w      1 calls
SAD Guess                           :      9.683u      0.650s      1.032w      1 calls
HF: Form G                          :   9958.867u    756.767s   1345.992w     15 calls
JK: D                               :      1.083u      0.100s      0.117w     15 calls
JK: USO2AO                          :      0.800u      0.067s      0.083w     15 calls
JK: JK                              :   9955.450u    756.333s   1345.604w     15 calls
JK: (Q|mn) Read                     :     12.750u    190.933s    115.295w     30 calls
JK: J                               :    308.417u      9.167s     32.381w     30 calls
JK: J1                              :    158.183u      7.233s     16.996w     30 calls
JK: J2                              :    147.950u      1.667s     14.970w     30 calls
JK: K                               :   9486.750u    297.267s    980.362w     30 calls
JK: K1                              :   7008.883u    264.117s    727.570w     30 calls
JK: K2                              :   2476.833u     33.050s    252.678w     30 calls
JK: AO2USO                          :      0.000u      0.000s      0.000w     15 calls
HF: Form F                          :      0.733u      0.050s      0.083w     15 calls
HF: Form D                          :      0.733u      0.050s      0.079w     15 calls
HF: DIIS                            :     39.250u      3.533s      4.285w     14 calls
DIISManager::add_entry              :      2.800u      0.650s      0.346w     14 calls
DIISManager::extrapolate            :      9.500u      2.017s      1.157w     14 calls
bMatrix setup                       :      4.750u      1.217s      0.595w     14 calls
bMatrix pseudoinverse               :      0.017u      0.017s      0.003w     14 calls
New vector                          :      4.733u      0.783s      0.558w     14 calls
HF: Form C                          :     63.100u      1.783s      6.491w     14 calls
DFMP2 Singles                       :      0.800u      0.033s      0.084w      1 calls
DFMP2 Aia                           :   1201.950u     81.567s    153.126w      1 calls
DFMP2 (A|mn)                        :    927.000u     48.050s     97.516w      3 calls
DFMP2 (A|mn)C_mi                    :    133.733u      9.283s     14.564w      3 calls
DFMP2 (A|mi)C_na                    :    108.400u      1.133s     10.956w      3 calls
DFMP2 Aia Write                     :      3.917u      4.600s      2.628w      3 calls
DFMP2 Qia                           :    933.117u     24.683s    107.616w      1 calls
DFMP2 Metric                        :    427.283u      4.433s     43.468w      1 calls
DFMP2 Aia Read                      :      0.083u      4.983s      3.040w      1 calls
DFMP2 (Q|A)(A|ia)                   :    501.100u      1.350s     50.703w      1 calls
DFMP2 Qia Write                     :      0.650u      4.183s      2.508w      1 calls
DFMP2 Energy                        :   4062.867u     62.250s    423.346w      1 calls
DFMP2 Qia Read                      :      2.533u      4.383s      4.158w      2 calls

--------------------------------------------------------------------------------------
DFH: sparsity prep                  :      4.017u      1.183s      1.637w      1 calls
JK: (A|Q)^-1                        :    449.533u     28.583s     50.172w      1 calls
JK: (A|mn)                          :    458.200u      6.833s     46.509w      2 calls
JK: (Q|mn)                          :   1993.350u     16.950s    201.054w      2 calls
JK: (Q|mn) Write                    :      7.333u     20.167s     72.712w      2 calls
HF: Form core H                     :      0.083u      0.033s      0.083w      1 calls
HF: Form S/X                        :      4.733u      0.150s      0.488w      1 calls
HF: Guess                           :      9.983u      0.667s      1.067w      1 calls
| SAD Guess                         :      9.683u      0.650s      1.032w      1 calls
HF: Form G                          :   9958.867u    756.767s   1345.992w     15 calls
| JK: D                             :      1.083u      0.100s      0.117w     15 calls
| JK: USO2AO                        :      0.800u      0.067s      0.083w     15 calls
| JK: JK                            :   9955.450u    756.333s   1345.604w     15 calls
| | JK: (Q|mn) Read                 :     12.750u    190.933s    115.295w     30 calls
| | JK: J                           :    308.417u      9.167s     32.381w     30 calls
| | | JK: J1                        :    158.183u      7.233s     16.996w     30 calls
| | | JK: J2                        :    147.950u      1.667s     14.970w     30 calls
| | JK: K                           :   9486.750u    297.267s    980.362w     30 calls
| | | JK: K1                        :   7008.883u    264.117s    727.570w     30 calls
| | | JK: K2                        :   2476.833u     33.050s    252.678w     30 calls
| JK: AO2USO                        :      0.000u      0.000s      0.000w     15 calls
HF: Form F                          :      0.733u      0.050s      0.083w     15 calls
HF: Form D                          :      0.733u      0.050s      0.079w     15 calls
HF: DIIS                            :     39.250u      3.533s      4.285w     14 calls
| DIISManager::add_entry            :      2.800u      0.650s      0.346w     14 calls
| DIISManager::extrapolate          :      9.500u      2.017s      1.157w     14 calls
| | bMatrix setup                   :      4.750u      1.217s      0.595w     14 calls
| | bMatrix pseudoinverse           :      0.017u      0.017s      0.003w     14 calls
| | New vector                      :      4.733u      0.783s      0.558w     14 calls
HF: Form C                          :     63.100u      1.783s      6.491w     14 calls
DFMP2 Singles                       :      0.800u      0.033s      0.084w      1 calls
DFMP2 Aia                           :   1201.950u     81.567s    153.126w      1 calls
| DFMP2 (A|mn)                      :    927.000u     48.050s     97.516w      3 calls
| DFMP2 (A|mn)C_mi                  :    133.733u      9.283s     14.564w      3 calls
| DFMP2 (A|mi)C_na                  :    108.400u      1.133s     10.956w      3 calls
| DFMP2 Aia Write                   :      3.917u      4.600s      2.628w      3 calls
DFMP2 Qia                           :    933.117u     24.683s    107.616w      1 calls
| DFMP2 Metric                      :    427.283u      4.433s     43.468w      1 calls
| DFMP2 Aia Read                    :      0.083u      4.983s      3.040w      1 calls
| DFMP2 (Q|A)(A|ia)                 :    501.100u      1.350s     50.703w      1 calls
| DFMP2 Qia Write                   :      0.650u      4.183s      2.508w      1 calls
DFMP2 Energy                        :   4062.867u     62.250s    423.346w      1 calls
| DFMP2 Qia Read                    :      2.533u      4.383s      4.158w      2 calls

**************************************************************************************

Host: node42.bme.utexas.edu

Timers On : Tue Mar  3 18:01:51 2020
Timers Off: Tue Mar  3 18:49:21 2020

Wall Time:     2850.04 seconds

                                                       Time (seconds)
Module                                       User      System        Wall        Calls
DFH: sparsity prep                  :      2.617u      0.450s      0.942w      1 calls
JK: (A|Q)^-1                        :    275.267u     16.917s    470.506w      1 calls
JK: (A|mn)                          :    381.467u      0.117s     38.211w      1 calls
JK: (Q|mn)                          :   1349.800u      2.517s    135.453w      1 calls
JK: (Q|mn) Write                    :      2.650u     13.283s    575.961w      1 calls
HF: Form core H                     :      0.083u      0.017s      0.448w      1 calls
HF: Form S/X                        :      3.450u      0.067s      0.354w      1 calls
HF: Guess                           :     10.100u      0.350s    206.430w      1 calls
SAD Guess                           :      9.917u      0.333s    206.410w      1 calls
HF: Form G                          :   4422.167u    193.250s    911.602w     15 calls
JK: D                               :      0.467u      0.000s      0.047w     15 calls
JK: USO2AO                          :      0.267u      0.000s      0.026w     15 calls
JK: JK                              :   4420.950u    193.217s    911.478w     15 calls
JK: (Q|mn) Read                     :     13.617u    112.317s    375.960w     30 calls
JK: J                               :    111.183u      0.817s     11.294w     30 calls
JK: J1                              :     50.883u      0.467s      5.161w     30 calls
JK: J2                              :     59.133u      0.317s      5.966w     30 calls
JK: K                               :   4168.717u      2.750s    419.128w     30 calls
JK: K1                              :   2478.083u      0.900s    248.363w     30 calls
JK: K2                              :   1690.433u      1.850s    170.743w     30 calls
JK: AO2USO                          :      0.000u      0.000s      0.000w     15 calls
HF: Form F                          :      0.267u      0.017s      0.025w     15 calls
HF: Form D                          :      0.417u      0.017s      0.044w     15 calls
HF: DIIS                            :     18.583u      1.250s      2.023w     14 calls
DIISManager::add_entry              :      1.517u      0.250s      0.184w     14 calls
DIISManager::extrapolate            :      6.450u      0.933s      0.765w     14 calls
bMatrix setup                       :      4.033u      0.583s      0.490w     14 calls
bMatrix pseudoinverse               :      0.033u      0.000s      0.001w     14 calls
New vector                          :      2.383u      0.350s      0.273w     14 calls
HF: Form C                          :     46.483u      0.583s      4.709w     14 calls
DFMP2 Singles                       :      0.667u      0.017s      0.073w      1 calls
DFMP2 Aia                           :   1059.767u     17.917s    134.764w      1 calls
DFMP2 (A|mn)                        :    871.083u      0.267s     87.245w      3 calls
DFMP2 (A|mn)C_mi                    :     85.800u      0.167s      8.634w      3 calls
DFMP2 (A|mi)C_na                    :     69.367u      0.067s      6.952w      3 calls
DFMP2 Aia Write                     :      3.917u      4.350s      2.519w      3 calls
DFMP2 Qia                           :    600.667u     11.283s     74.636w      1 calls
DFMP2 Metric                        :    268.067u      2.600s     27.371w      1 calls
DFMP2 Aia Read                      :      0.000u      2.133s      8.899w      1 calls
DFMP2 (Q|A)(A|ia)                   :    329.700u      0.800s     34.130w      1 calls
DFMP2 Qia Write                     :      0.000u      3.617s      2.171w      1 calls
DFMP2 Energy                        :   2655.767u      5.800s    272.519w      1 calls
DFMP2 Qia Read                      :      3.017u      1.567s      2.748w      2 calls

--------------------------------------------------------------------------------------
DFH: sparsity prep                  :      2.617u      0.450s      0.942w      1 calls
JK: (A|Q)^-1                        :    275.267u     16.917s    470.506w      1 calls
JK: (A|mn)                          :    381.467u      0.117s     38.211w      1 calls
JK: (Q|mn)                          :   1349.800u      2.517s    135.453w      1 calls
[...]
DFMP2 Aia                           :   2310.583u     29.850s    262.987w      1 calls
DFMP2 (A|mn)                        :   2069.900u      8.100s    210.503w      3 calls
DFMP2 (A|mn)C_mi                    :    110.583u      5.283s     11.868w      3 calls
DFMP2 (A|mi)C_na                    :     87.200u      0.983s      8.820w      3 calls
DFMP2 Aia Write                     :      3.517u      4.983s      2.859w      3 calls
DFMP2 Qia                           :    750.633u     20.467s     82.726w      1 calls
DFMP2 Metric                        :    362.267u      8.400s     37.396w      1 calls
DFMP2 Aia Read                      :      0.067u      1.967s      1.219w      1 calls
DFMP2 (Q|A)(A|ia)                   :    384.683u      2.900s     38.846w      1 calls
DFMP2 Qia Write                     :      0.683u      4.033s      2.403w      1 calls
DFMP2 Energy                        :   3198.767u     43.967s    330.031w      1 calls
DFMP2 Qia Read                      :      2.117u      1.800s      2.353w      2 calls

--------------------------------------------------------------------------------------
DFH: sparsity prep                  :      3.267u      0.533s      1.184w      1 calls
JK: (A|mn)                          :   4273.333u     22.600s    435.241w      1 calls
JK: (A|Q)^-1/2                      :    384.917u      8.200s     39.571w      1 calls
JK: (Q|mn)                          :   1558.183u     14.283s    159.473w      1 calls
HF: Form core H                     :      0.967u      0.133s      0.122w      1 calls
HF: Form S/X                        :      5.183u      0.333s      0.551w      1 calls
HF: Guess                           :      9.833u      0.567s      1.051w      1 calls
| SAD Guess                         :      9.517u      0.517s      1.013w      1 calls
HF: Form G                          :   5894.467u    105.367s    629.415w     15 calls
| JK: D                             :      1.100u      0.117s      0.125w     15 calls
| JK: USO2AO                        :      1.033u      0.167s      0.120w     15 calls
| JK: JK                            :   5891.067u    104.767s    629.022w     15 calls
| | JK: J                           :    182.217u     15.583s     19.934w     30 calls
| | | JK: J1                        :     91.050u     14.117s     10.518w     30 calls
| | | JK: J2                        :     88.250u      1.033s      8.950w     30 calls
| | JK: K                           :   5666.500u     49.367s    577.426w     30 calls
| | | JK: K1                        :   3590.517u     34.933s    365.624w     30 calls
| | | JK: K2                        :   2074.800u     14.233s    211.649w     30 calls
| JK: AO2USO                        :      0.000u      0.000s      0.000w     15 calls
HF: Form F                          :      0.683u      0.033s      0.073w     15 calls
HF: Form D                          :      0.700u      0.017s      0.071w     15 calls
HF: DIIS                            :     31.483u      3.867s      3.539w     14 calls
| DIISManager::add_entry            :      2.400u      0.483s      0.289w     14 calls
| DIISManager::extrapolate          :     11.483u      2.533s      1.406w     14 calls
| | bMatrix setup                   :      5.917u      1.483s      0.743w     14 calls
| | bMatrix pseudoinverse           :      0.050u      0.033s      0.005w     14 calls
| | New vector                      :      5.517u      1.017s      0.657w     14 calls
HF: Form C                          :     78.950u      2.733s      8.166w     14 calls
DFMP2 Singles                       :      0.717u      0.083s      0.083w      1 calls
DFMP2 Aia                           :   2310.583u     29.850s    262.987w      1 calls
| DFMP2 (A|mn)                      :   2069.900u      8.100s    210.503w      3 calls
| DFMP2 (A|mn)C_mi                  :    110.583u      5.283s     11.868w      3 calls
| DFMP2 (A|mi)C_na                  :     87.200u      0.983s      8.820w      3 calls
| DFMP2 Aia Write                   :      3.517u      4.983s      2.859w      3 calls
DFMP2 Qia                           :    750.633u     20.467s     82.726w      1 calls
| DFMP2 Metric                      :    362.267u      8.400s     37.396w      1 calls
| DFMP2 Aia Read                    :      0.067u      1.967s      1.219w      1 calls
| DFMP2 (Q|A)(A|ia)                 :    384.683u      2.900s     38.846w      1 calls
| DFMP2 Qia Write                   :      0.683u      4.033s      2.403w      1 calls
DFMP2 Energy                        :   3198.767u     43.967s    330.031w      1 calls
| DFMP2 Qia Read                    :      2.117u      1.800s      2.353w      2 calls

**************************************************************************************

Host: node36.bme.utexas.edu

Timers On : Thu Mar 19 13:01:49 2020
Timers Off: Thu Mar 19 13:38:57 2020

Wall Time:     2228.07 seconds

                                                       Time (seconds)
Module                                       User      System        Wall        Calls
DFH: sparsity prep                  :      3.267u      0.617s      1.191w      1 calls
JK: (A|mn)                          :   1598.650u     37.317s    163.733w      1 calls
JK: (A|Q)^-1/2                      :    378.083u      5.333s     38.788w      1 calls
JK: (Q|mn)                          :   1810.700u     11.867s    182.323w      1 calls
HF: Form core H                     :      0.550u      0.083s      9.933w      1 calls
HF: Form S/X                        :      4.533u      0.150s      0.470w      1 calls
HF: Guess                           :      9.667u      0.550s      1.082w      1 calls
SAD Guess                           :      9.350u      0.533s      1.047w      1 calls
HF: Form G                          :   8978.917u    238.900s    969.831w     15 calls
JK: D                               :      0.883u      0.033s      0.096w     15 calls
JK: USO2AO                          :      0.433u      0.017s      0.048w     15 calls
JK: JK                              :   8976.000u    238.617s    969.502w     15 calls
JK: J                               :    183.050u     64.267s     25.524w     30 calls
JK: J1                              :     91.517u     63.017s     16.150w     30 calls
JK: J2                              :     89.567u      1.150s      9.067w     30 calls
JK: K                               :   8724.183u    103.733s    885.200w     30 calls
JK: K1                              :   6244.300u     85.000s    633.205w     30 calls
JK: K2                              :   2479.300u     18.617s    251.927w     30 calls
JK: AO2USO                          :      0.000u      0.000s      0.000w     15 calls
HF: Form F                          :      1.217u      0.133s      0.138w     15 calls
HF: Form D                          :      0.750u      0.050s      0.083w     15 calls
HF: DIIS                            :     30.233u      2.867s      3.311w     14 calls
DIISManager::add_entry              :      1.800u      0.417s      0.229w     14 calls
DIISManager::extrapolate            :      7.417u      1.633s      0.907w     14 calls
bMatrix setup                       :      3.733u      1.017s      0.473w     14 calls
bMatrix pseudoinverse               :      0.017u      0.000s      0.003w     14 calls
New vector                          :      3.667u      0.617s      0.431w     14 calls
HF: Form C                          :     59.050u      1.683s      6.072w     14 calls
DFMP2 Singles                       :      0.983u      0.050s      0.103w      1 calls
DFMP2 Aia                           :   1170.000u     47.433s    169.781w      1 calls
DFMP2 (A|mn)                        :    888.117u     13.000s     90.198w      3 calls
DFMP2 (A|mn)C_mi                    :    137.317u      5.900s     15.231w      3 calls
DFMP2 (A|mi)C_na                    :    111.267u      1.400s     11.270w      3 calls
DFMP2 Aia Write                     :      2.933u      5.950s     23.127w      3 calls
DFMP2 Qia                           :    880.200u     18.567s     98.801w      1 calls
DFMP2 Metric                        :    386.983u      4.350s     39.435w      1 calls
DFMP2 Aia Read                      :      0.050u      2.250s      1.383w      1 calls
DFMP2 (Q|A)(A|ia)                   :    488.650u      0.667s     49.242w      1 calls
DFMP2 Qia Write                     :      0.050u      4.067s      2.467w      1 calls
DFMP2 Energy                        :   3968.650u     28.500s    470.110w      1 calls
DFMP2 Qia Read                      :      2.183u      2.100s      2.564w      2 calls

--------------------------------------------------------------------------------------
DFH: sparsity prep                  :      3.267u      0.617s      1.191w      1 calls
JK: (A|mn)                          :   1598.650u     37.317s    163.733w      1 calls
JK: (A|Q)^-1/2                      :    378.083u      5.333s     38.788w      1 calls
JK: (Q|mn)                          :   1810.700u     11.867s    182.323w      1 calls
HF: Form core H                     :      0.550u      0.083s      9.933w      1 calls
HF: Form S/X                        :      4.533u      0.150s      0.470w      1 calls
HF: Guess                           :      9.667u      0.550s      1.082w      1 calls
| SAD Guess                         :      9.350u      0.533s      1.047w      1 calls
HF: Form G                          :   8978.917u    238.900s    969.831w     15 calls
| JK: D                             :      0.883u      0.033s      0.096w     15 calls
| JK: USO2AO                        :      0.433u      0.017s      0.048w     15 calls
| JK: JK                            :   8976.000u    238.617s    969.502w     15 calls
| | JK: J                           :    183.050u     64.267s     25.524w     30 calls
| | | JK: J1                        :     91.517u     63.017s     16.150w     30 calls
| | | JK: J2                        :     89.567u      1.150s      9.067w     30 calls
| | JK: K                           :   8724.183u    103.733s    885.200w     30 calls
| | | JK: K1                        :   6244.300u     85.000s    633.205w     30 calls
| | | JK: K2                        :   2479.300u     18.617s    251.927w     30 calls
| JK: AO2USO                        :      0.000u      0.000s      0.000w     15 calls
HF: Form F                          :      1.217u      0.133s      0.138w     15 calls
HF: Form D                          :      0.750u      0.050s      0.083w     15 calls
HF: DIIS                            :     30.233u      2.867s      3.311w     14 calls
| DIISManager::add_entry            :      1.800u      0.417s      0.229w     14 calls
| DIISManager::extrapolate          :      7.417u      1.633s      0.907w     14 calls
| | bMatrix setup                   :      3.733u      1.017s      0.473w     14 calls
| | bMatrix pseudoinverse           :      0.017u      0.000s      0.003w     14 calls
| | New vector                      :      3.667u      0.617s      0.431w     14 calls
HF: Form C                          :     59.050u      1.683s      6.072w     14 calls
DFMP2 Singles                       :      0.983u      0.050s      0.103w      1 calls
DFMP2 Aia                           :   1170.000u     47.433s    169.781w      1 calls
| DFMP2 (A|mn)                      :    888.117u     13.000s     90.198w      3 calls
| DFMP2 (A|mn)C_mi                  :    137.317u      5.900s     15.231w      3 calls
| DFMP2 (A|mi)C_na                  :    111.267u      1.400s     11.270w      3 calls
| DFMP2 Aia Write                   :      2.933u      5.950s     23.127w      3 calls
DFMP2 Qia                           :    880.200u     18.567s     98.801w      1 calls
| DFMP2 Metric                      :    386.983u      4.350s     39.435w      1 calls
| DFMP2 Aia Read                    :      0.050u      2.250s      1.383w      1 calls
| DFMP2 (Q|A)(A|ia)                 :    488.650u      0.667s     49.242w      1 calls
| DFMP2 Qia Write                   :      0.050u      4.067s      2.467w      1 calls
DFMP2 Energy                        :   3968.650u     28.500s    470.110w      1 calls
| DFMP2 Qia Read                    :      2.183u      2.100s      2.564w      2 calls

**************************************************************************************

Host: node35.bme.utexas.edu

Timers On : Fri Mar 20 10:28:46 2020
Timers Off: Fri Mar 20 11:06:33 2020

Wall Time:     2266.53 seconds

                                                       Time (seconds)
Module                                       User      System        Wall        Calls
DFH: sparsity prep                  :      4.450u      0.700s      1.602w      1 calls
JK: (A|mn)                          :   2168.817u      0.667s    217.007w      1 calls
JK: (A|Q)^-1/2                      :    517.833u      9.500s     53.354w      1 calls
JK: (Q|mn)                          :   2586.367u      2.850s    269.941w      1 calls
HF: Form core H                     :      1.000u      0.100s      0.112w      1 calls
HF: Form S/X                        :      8.467u      0.417s      0.888w      1 calls
HF: Guess                           :     12.150u      0.817s      1.356w      1 calls
SAD Guess                           :     11.767u      0.783s      1.315w      1 calls
HF: Form G                          :   7937.133u     45.533s    840.446w     15 calls
JK: D                               :      1.217u      0.100s      0.127w     15 calls
JK: USO2AO                          :      0.417u      0.017s      0.049w     15 calls
JK: JK                              :   7934.200u     45.267s    840.108w     15 calls
JK: J                               :    232.767u      2.500s     23.678w     30 calls
JK: J1                              :    112.517u      1.500s     11.416w     30 calls
JK: J2                              :    118.333u      0.800s     11.918w     30 calls
JK: K                               :   7657.017u     13.183s    788.809w     30 calls
JK: K1                              :   4195.700u      7.683s    420.496w     30 calls
JK: K2                              :   3460.650u      5.417s    368.247w     30 calls
JK: AO2USO                          :      0.000u      0.000s      0.000w     15 calls
HF: Form F                          :      0.517u      0.050s      0.051w     15 calls
HF: Form D                          :      0.933u      0.017s      0.099w     15 calls
HF: DIIS                            :     40.850u      3.583s      4.442w     14 calls
DIISManager::add_entry              :      2.550u      0.533s      0.317w     14 calls
DIISManager::extrapolate            :     10.467u      2.367s      1.274w     14 calls
bMatrix setup                       :      4.917u      1.367s      0.624w     14 calls
bMatrix pseudoinverse               :      0.033u      0.000s      0.004w     14 calls
New vector                          :      5.500u      1.000s      0.645w     14 calls
HF: Form C                          :     87.283u      2.600s      8.992w     14 calls
DFMP2 Singles                       :      1.033u      0.033s      0.107w      1 calls
DFMP2 Aia                           :   1387.167u     14.200s    160.958w      1 calls
DFMP2 (A|mn)                        :   1034.867u      0.150s    103.543w      3 calls
DFMP2 (A|mn)C_mi                    :    173.000u      0.450s     18.296w      3 calls
DFMP2 (A|mi)C_na                    :    152.183u      0.383s     16.412w      3 calls
DFMP2 Aia Write                     :      0.883u      4.983s      2.991w      3 calls
DFMP2 Qia                           :   1204.483u     19.433s    130.696w      1 calls
DFMP2 Metric                        :    525.617u      9.417s     54.232w      1 calls
DFMP2 Aia Read                      :      0.067u      2.167s      1.344w      1 calls
DFMP2 (Q|A)(A|ia)                   :    676.167u      0.183s     69.112w      1 calls
DFMP2 Qia Write                     :      0.050u      4.917s      2.979w      1 calls
DFMP2 Energy                        :   5415.550u      8.483s    548.469w      1 calls
DFMP2 Qia Read                      :      2.350u      2.383s      2.835w      2 calls

--------------------------------------------------------------------------------------
DFH: sparsity prep                  :      4.450u      0.700s      1.602w      1 calls
JK: (A|mn)                          :   2168.817u      0.667s    217.007w      1 calls
JK: (A|Q)^-1/2                      :    517.833u      9.500s     53.354w      1 calls
JK: (Q|mn)                          :   2586.367u      2.850s    269.941w      1 calls
HF: Form core H                     :      1.000u      0.100s      0.112w      1 calls
HF: Form S/X                        :      8.467u      0.417s      0.888w      1 calls
HF: Guess                           :     12.150u      0.817s      1.356w      1 calls
| SAD Guess                         :     11.767u      0.783s      1.315w      1 calls
HF: Form G                          :   7937.133u     45.533s    840.446w     15 calls
| JK: D                             :      1.217u      0.100s      0.127w     15 calls
| JK: USO2AO                        :      0.417u      0.017s      0.049w     15 calls
| JK: JK                            :   7934.200u     45.267s    840.108w     15 calls
| | JK: J                           :    232.767u      2.500s     23.678w     30 calls
| | | JK: J1                        :    112.517u      1.500s     11.416w     30 calls
| | | JK: J2                        :    118.333u      0.800s     11.918w     30 calls
| | JK: K                           :   7657.017u     13.183s    788.809w     30 calls
| | | JK: K1                        :   4195.700u      7.683s    420.496w     30 calls
| | | JK: K2                        :   3460.650u      5.417s    368.247w     30 calls
| JK: AO2USO                        :      0.000u      0.000s      0.000w     15 calls
HF: Form F                          :      0.517u      0.050s      0.051w     15 calls
HF: Form D                          :      0.933u      0.017s      0.099w     15 calls
HF: DIIS                            :     40.850u      3.583s      4.442w     14 calls
| DIISManager::add_entry            :      2.550u      0.533s      0.317w     14 calls
| DIISManager::extrapolate          :     10.467u      2.367s      1.274w     14 calls
| | bMatrix setup                   :      4.917u      1.367s      0.624w     14 calls
| | bMatrix pseudoinverse           :      0.033u      0.000s      0.004w     14 calls
| | New vector                      :      5.500u      1.000s      0.645w     14 calls
HF: Form C                          :     87.283u      2.600s      8.992w     14 calls
DFMP2 Singles                       :      1.033u      0.033s      0.107w      1 calls
DFMP2 Aia                           :   1387.167u     14.200s    160.958w      1 calls
| DFMP2 (A|mn)                      :   1034.867u      0.150s    103.543w      3 calls
| DFMP2 (A|mn)C_mi                  :    173.000u      0.450s     18.296w      3 calls
| DFMP2 (A|mi)C_na                  :    152.183u      0.383s     16.412w      3 calls
| DFMP2 Aia Write                   :      0.883u      4.983s      2.991w      3 calls
DFMP2 Qia                           :   1204.483u     19.433s    130.696w      1 calls
| DFMP2 Metric                      :    525.617u      9.417s     54.232w      1 calls
| DFMP2 Aia Read                    :      0.067u      2.167s      1.344w      1 calls
| DFMP2 (Q|A)(A|ia)                 :    676.167u      0.183s     69.112w      1 calls
| DFMP2 Qia Write                   :      0.050u      4.917s      2.979w      1 calls
DFMP2 Energy                        :   5415.550u      8.483s    548.469w      1 calls
| DFMP2 Qia Read                    :      2.350u      2.383s      2.835w      2 calls

**************************************************************************************
