
    -----------------------------------------------------------------------
          Psi4: An Open-Source Ab Initio Electronic Structure Package
                               Psi4 1.3.2 release

                         Git: Rev {HEAD} ecbda83 


    R. M. Parrish, L. A. Burns, D. G. A. Smith, A. C. Simmonett,
    A. E. DePrince III, E. G. Hohenstein, U. Bozkaya, A. Yu. Sokolov,
    R. Di Remigio, R. M. Richard, J. F. Gonthier, A. M. James,
    H. R. McAlexander, A. Kumar, M. Saitow, X. Wang, B. P. Pritchard,
    P. Verma, H. F. Schaefer III, K. Patkowski, R. A. King, E. F. Valeev,
    F. A. Evangelista, J. M. Turney, T. D. Crawford, and C. D. Sherrill,
    J. Chem. Theory Comput. 13(7) pp 3185--3197 (2017).
    (doi: 10.1021/acs.jctc.7b00174)


                         Additional Contributions by
    P. Kraus, H. Kruse, M. H. Lechner, M. C. Schieber, R. A. Shaw,
    A. Alenaizan, R. Galvelis, Z. L. Glick, S. Lehtola, and J. P. Misiewicz

    -----------------------------------------------------------------------


    Psi4 started on: Monday, 24 May 2021 08:35PM

    Process ID: 77847
    Host:       daniele-Precision-5750
    PSIDATADIR: /home/daniele/anaconda3/envs/poltype/share/psi4
    Memory:     500.0 MiB
    Threads:    1
    
  ==> Input File <==

--------------------------------------------------------------------------
molecule { 
0 1
 N    2.308200    0.303200    0.073100
 C    0.889600    0.138600    0.030400
 C    0.330600   -1.093700   -0.240700
 C    0.018000    1.184500    0.254000
 C   -1.032300   -1.299100   -0.292000
 C   -1.345100    0.977200    0.202300
 C   -1.904300   -0.254300   -0.068600
 H    1.016100   -1.921800   -0.417700
 H    0.453200    2.153400    0.467200
 H   -1.418400   -2.294000   -0.510600
 H   -2.024900    1.803500    0.379000
 H   -2.988400   -0.392100   -0.103900
 H    2.846300    0.885100   -0.588400
 H    2.851400   -0.190500    0.815900
}
set {
  geom_maxiter 400
  g_convergence GAU_LOOSE
  dynamic_level 1
}
memory 700MB
set_num_threads(8)
psi4_io.set_default_path("/home/daniele/PSI4_sctatch/Psi4-aniline")
for _ in range(1):
  try:
    set opt_coordinates both
    optimize('mp2/6-31G*')
    break
  except OptimizationConvergenceError:
    break
  else:
    try:
      set opt_coordinates cartesian
      optimize('mp2/6-31G*')
      break
    except OptimizationConvergenceError:
      pass
clean()
--------------------------------------------------------------------------

  Memory set to 667.572 MiB by Python driver.
  Threads set to 8 by Python driver.
gradient() will perform analytic gradient computation.
    SCF Algorithm Type (re)set to DF.

*** tstart() called on daniele-Precision-5750
*** at Mon May 24 20:35:49 2021

   => Loading Basis Set <=

    Name: 6-31G*
    Role: ORBITAL
    Keyword: BASIS
    atoms 1    entry N          line   128 file /home/daniele/anaconda3/envs/poltype/share/psi4/basis/6-31gs.gbs 
    atoms 2-7  entry C          line   111 file /home/daniele/anaconda3/envs/poltype/share/psi4/basis/6-31gs.gbs 
    atoms 8-14 entry H          line    44 file /home/daniele/anaconda3/envs/poltype/share/psi4/basis/6-31gs.gbs 


         ---------------------------------------------------------
                                   SCF
               by Justin Turney, Rob Parrish, Andy Simmonett
                          and Daniel G. A. Smith
                              RHF Reference
                        8 Threads,    667 MiB Core
         ---------------------------------------------------------

  ==> Geometry <==

    Molecular point group: c1
    Full point group: C1

    Geometry (in Angstrom), charge = 0, multiplicity = 1:

       Center              X                  Y                   Z               Mass       
    ------------   -----------------  -----------------  -----------------  -----------------
         N            2.345370973383     0.301823724806     0.076428580598    14.003074004430
         C            0.926770973383     0.137223724806     0.033728580598    12.000000000000
         C            0.367770973383    -1.095076275194    -0.237371419402    12.000000000000
         C            0.055170973383     1.183123724806     0.257328580598    12.000000000000
         C           -0.995129026617    -1.300476275194    -0.288671419402    12.000000000000
         C           -1.307929026617     0.975823724806     0.205628580598    12.000000000000
         C           -1.867129026617    -0.255676275194    -0.065271419402    12.000000000000
         H            1.053270973383    -1.923176275194    -0.414371419402     1.007825032230
         H            0.490370973383     2.152023724806     0.470528580598     1.007825032230
         H           -1.381229026617    -2.295376275194    -0.507271419402     1.007825032230
         H           -1.987729026617     1.802123724806     0.382328580598     1.007825032230
         H           -2.951229026617    -0.393476275194    -0.100571419402     1.007825032230
         H            2.883470973383     0.883723724806    -0.585071419402     1.007825032230
         H            2.888570973383    -0.191876275194     0.819228580598     1.007825032230

  Running in c1 symmetry.

  Rotational constants: A =      0.19626  B =      0.08447  C =      0.05959 [cm^-1]
  Rotational constants: A =   5883.78842  B =   2532.22223  C =   1786.45261 [MHz]
  Nuclear repulsion =  272.033780811923464

  Charge       = 0
  Multiplicity = 1
  Electrons    = 50
  Nalpha       = 25
  Nbeta        = 25

  ==> Algorithm <==

  SCF Algorithm Type is DF.
  DIIS enabled.
  MOM disabled.
  Fractional occupation disabled.
  Guess Type is SAD.
  Energy threshold   = 1.00e-10
  Density threshold  = 1.00e-10
  Integral threshold = 0.00e+00

  ==> Primary Basis <==

  Basis Set: 6-31G*
    Blend: 6-31G*
    Number of shells: 56
    Number of basis function: 119
    Number of Cartesian functions: 119
    Spherical Harmonics?: false
    Max angular momentum: 2

   => Loading Basis Set <=

    Name: (6-31G* AUX)
    Role: JKFIT
    Keyword: DF_BASIS_SCF
    atoms 1    entry N          line   171 file /home/daniele/anaconda3/envs/poltype/share/psi4/basis/cc-pvdz-jkfit.gbs 
    atoms 2-7  entry C          line   121 file /home/daniele/anaconda3/envs/poltype/share/psi4/basis/cc-pvdz-jkfit.gbs 
    atoms 8-14 entry H          line    51 file /home/daniele/anaconda3/envs/poltype/share/psi4/basis/cc-pvdz-jkfit.gbs 

  ==> Pre-Iterations <==

   -------------------------------------------------------
    Irrep   Nso     Nmo     Nalpha   Nbeta   Ndocc  Nsocc
   -------------------------------------------------------
     A        119     119       0       0       0       0
   -------------------------------------------------------
    Total     119     119      25      25      25       0
   -------------------------------------------------------

  ==> Integral Setup <==

  DFHelper Memory: AOs need 0.085 GiB; user supplied 0.489 GiB. Using in-core AOs.

  ==> MemDFJK: Density-Fitted J/K Matrices <==

    J tasked:                   Yes
    K tasked:                   Yes
    wK tasked:                   No
    OpenMP threads:               8
    Memory [MiB]:               500
    Algorithm:                 Core
    Schwarz Cutoff:           1E-12
    Mask sparsity (%):       1.4829
    Fitting Condition:        1E-10

   => Auxiliary Basis Set <=

  Basis Set: (6-31G* AUX)
    Blend: CC-PVDZ-JKFIT
    Number of shells: 231
    Number of basis function: 742
    Number of Cartesian functions: 742
    Spherical Harmonics?: false
    Max angular momentum: 3

  Minimum eigenvalue in the overlap matrix is 4.0097147252E-04.
  Using Symmetric Orthogonalization.

  SCF Guess: Superposition of Atomic Densities via on-the-fly atomic UHF.

  ==> Iterations <==

                           Total Energy        Delta E     RMS |[F,P]|

   @DF-RHF iter SAD:  -285.03865607133582   -2.85039e+02   0.00000e+00 
   @DF-RHF iter   1:  -285.57678730123058   -5.38131e-01   3.87180e-03 DIIS
   @DF-RHF iter   2:  -285.69282278320514   -1.16035e-01   1.61407e-03 DIIS
   @DF-RHF iter   3:  -285.71003746425254   -1.72147e-02   3.10273e-04 DIIS
   @DF-RHF iter   4:  -285.71122200043595   -1.18454e-03   5.85437e-05 DIIS
   @DF-RHF iter   5:  -285.71125244619947   -3.04458e-05   2.15909e-05 DIIS
   @DF-RHF iter   6:  -285.71125764717078   -5.20097e-06   5.15180e-06 DIIS
   @DF-RHF iter   7:  -285.71125833728991   -6.90119e-07   2.61422e-06 DIIS
   @DF-RHF iter   8:  -285.71125855198881   -2.14699e-07   1.36331e-06 DIIS
   @DF-RHF iter   9:  -285.71125860309758   -5.11088e-08   5.40151e-07 DIIS
   @DF-RHF iter  10:  -285.71125861323077   -1.01332e-08   1.93639e-07 DIIS
   @DF-RHF iter  11:  -285.71125861419159   -9.60824e-10   6.19376e-08 DIIS
   @DF-RHF iter  12:  -285.71125861428521   -9.36211e-11   1.54060e-08 DIIS
   @DF-RHF iter  13:  -285.71125861429078   -5.57066e-12   6.06487e-09 DIIS
   @DF-RHF iter  14:  -285.71125861429186   -1.08002e-12   2.05098e-09 DIIS
   @DF-RHF iter  15:  -285.71125861429215   -2.84217e-13   7.11742e-10 DIIS
   @DF-RHF iter  16:  -285.71125861429158    5.68434e-13   2.61046e-10 DIIS
   @DF-RHF iter  17:  -285.71125861429169   -1.13687e-13   7.37563e-11 DIIS
  Energy and wave function converged.


  ==> Post-Iterations <==

    Orbital Energies [Eh]
    ---------------------

    Doubly Occupied:                                                      

       1A    -15.546077     2A    -11.260520     3A    -11.225559  
       4A    -11.224597     5A    -11.223078     6A    -11.218539  
       7A    -11.216957     8A     -1.187371     9A     -1.118775  
      10A     -1.005784    11A     -0.984345    12A     -0.820925  
      13A     -0.803162    14A     -0.697970    15A     -0.655837  
      16A     -0.638742    17A     -0.618687    18A     -0.591109  
      19A     -0.569627    20A     -0.506649    21A     -0.497869  
      22A     -0.479978    23A     -0.391413    24A     -0.327305  
      25A     -0.313426  

    Virtual:                                                              

      26A      0.154443    27A      0.156069    28A      0.230050  
      29A      0.243694    30A      0.293180    31A      0.309899  
      32A      0.313224    33A      0.337773    34A      0.346403  
      35A      0.394988    36A      0.452187    37A      0.489104  
      38A      0.498926    39A      0.545246    40A      0.558612  
      41A      0.681760    42A      0.747846    43A      0.757102  
      44A      0.760129    45A      0.792015    46A      0.827266  
      47A      0.833945    48A      0.834706    49A      0.851993  
      50A      0.855082    51A      0.871638    52A      0.892690  
      53A      0.915807    54A      0.930434    55A      0.974901  
      56A      1.016016    57A      1.039814    58A      1.100385  
      59A      1.113256    60A      1.120184    61A      1.126503  
      62A      1.159422    63A      1.170221    64A      1.188125  
      65A      1.208844    66A      1.218808    67A      1.240356  
      68A      1.290160    69A      1.305660    70A      1.345613  
      71A      1.372410    72A      1.454096    73A      1.479712  
      74A      1.518885    75A      1.557568    76A      1.704897  
      77A      1.722011    78A      1.751548    79A      1.774397  
      80A      1.781481    81A      1.813510    82A      1.952012  
      83A      2.009298    84A      2.089762    85A      2.118158  
      86A      2.127437    87A      2.191298    88A      2.266603  
      89A      2.285808    90A      2.338046    91A      2.409247  
      92A      2.419087    93A      2.447034    94A      2.477913  
      95A      2.487379    96A      2.553238    97A      2.592299  
      98A      2.632861    99A      2.673315   100A      2.682335  
     101A      2.821901   102A      2.914372   103A      2.939709  
     104A      2.951378   105A      3.047973   106A      3.098901  
     107A      3.120703   108A      3.137422   109A      3.213240  
     110A      3.258280   111A      3.489801   112A      3.851579  
     113A      4.260788   114A      4.537825   115A      4.552602  
     116A      4.572033   117A      4.772398   118A      4.794769  
     119A      5.146048  

    Final Occupation by Irrep:
              A 
    DOCC [    25 ]

  @DF-RHF Final Energy:  -285.71125861429169

   => Energetics <=

    Nuclear Repulsion Energy =            272.0337808119234637
    One-Electron Energy =                -925.2414760069962085
    Two-Electron Energy =                 367.4964365807811078
    Total Energy =                       -285.7112586142916939

Computation Completed


Properties will be evaluated at   0.000000,   0.000000,   0.000000 [a0]

Properties computed using the SCF density matrix

  Nuclear Dipole Moment: [e a0]
     X:     0.9264      Y:     0.0310      Z:     0.0605

  Electronic Dipole Moment: [e a0]
     X:    -0.6489      Y:    -0.0063      Z:    -0.0410

  Dipole Moment: [e a0]
     X:     0.2775      Y:     0.0247      Z:     0.0195     Total:     0.2793

  Dipole Moment: [D]
     X:     0.7053      Y:     0.0627      Z:     0.0496     Total:     0.7099


*** tstop() called on daniele-Precision-5750 at Mon May 24 20:35:51 2021
Module time:
	user time   =       8.93 seconds =       0.15 minutes
	system time =       0.22 seconds =       0.00 minutes
	total time  =          2 seconds =       0.03 minutes
Total time:
	user time   =       8.93 seconds =       0.15 minutes
	system time =       0.22 seconds =       0.00 minutes
	total time  =          2 seconds =       0.03 minutes

*** tstart() called on daniele-Precision-5750
*** at Mon May 24 20:35:51 2021


  //>>>>>>>>>>>>>>>>>>>>>>>>>>>>>>>>>>>//
  //               DFMP2               //
  //<<<<<<<<<<<<<<<<<<<<<<<<<<<<<<<<<<<//

   => Loading Basis Set <=

    Name: (6-31G* AUX)
    Role: RIFIT
    Keyword: DF_BASIS_MP2
    atoms 1    entry N          line   197 file /home/daniele/anaconda3/envs/poltype/share/psi4/basis/cc-pvdz-ri.gbs 
    atoms 2-7  entry C          line   159 file /home/daniele/anaconda3/envs/poltype/share/psi4/basis/cc-pvdz-ri.gbs 
    atoms 8-14 entry H          line    19 file /home/daniele/anaconda3/envs/poltype/share/psi4/basis/cc-pvdz-ri.gbs 

	 --------------------------------------------------------
	                          DF-MP2                         
	      2nd-Order Density-Fitted Moller-Plesset Theory     
	              RMP2 Wavefunction,   8 Threads             
	                                                         
	        Rob Parrish, Justin Turney, Andy Simmonett,      
	           Ed Hohenstein, and C. David Sherrill          
	 --------------------------------------------------------

   => Auxiliary Basis Set <=

  Basis Set: (6-31G* AUX)
    Blend: CC-PVDZ-RI
    Number of shells: 168
    Number of basis function: 490
    Number of Cartesian functions: 567
    Spherical Harmonics?: true
    Max angular momentum: 3

	 --------------------------------------------------------
	                 NBF =   119, NAUX =   490
	 --------------------------------------------------------
	   CLASS    FOCC     OCC    AOCC    AVIR     VIR    FVIR
	   PAIRS       0      25      25      94      94       0
	 --------------------------------------------------------

  DFHelper Memory: AOs need 0.085 GiB; user supplied 0.489 GiB. Using in-core AOs.


         ------------------------------------------------------------
                                     CPHF                           
                                  Rob Parrish                       
         ------------------------------------------------------------

  ==> Geometry <==

    Molecular point group: c1
    Full point group: C1

    Geometry (in Angstrom), charge = 0, multiplicity = 1:

       Center              X                  Y                   Z               Mass       
    ------------   -----------------  -----------------  -----------------  -----------------
         N            2.345370973383     0.301823724806     0.076428580598    14.003074004430
         C            0.926770973383     0.137223724806     0.033728580598    12.000000000000
         C            0.367770973383    -1.095076275194    -0.237371419402    12.000000000000
         C            0.055170973383     1.183123724806     0.257328580598    12.000000000000
         C           -0.995129026617    -1.300476275194    -0.288671419402    12.000000000000
         C           -1.307929026617     0.975823724806     0.205628580598    12.000000000000
         C           -1.867129026617    -0.255676275194    -0.065271419402    12.000000000000
         H            1.053270973383    -1.923176275194    -0.414371419402     1.007825032230
         H            0.490370973383     2.152023724806     0.470528580598     1.007825032230
         H           -1.381229026617    -2.295376275194    -0.507271419402     1.007825032230
         H           -1.987729026617     1.802123724806     0.382328580598     1.007825032230
         H           -2.951229026617    -0.393476275194    -0.100571419402     1.007825032230
         H            2.883470973383     0.883723724806    -0.585071419402     1.007825032230
         H            2.888570973383    -0.191876275194     0.819228580598     1.007825032230

  Nuclear repulsion =  272.033780811923464
  Reference energy  = -285.711258614291694

  ==> Basis Set <==

  Basis Set: 6-31G*
    Blend: 6-31G*
    Number of shells: 56
    Number of basis function: 119
    Number of Cartesian functions: 119
    Spherical Harmonics?: false
    Max angular momentum: 2

  ==> CGRSolver (by Rob Parrish) <==

   Number of roots    =         1
   Preconditioning    =    JACOBI
   Convergence cutoff =     1E-06
   Maximum iterations =       100

  ==> CPHFRHamiltonian (by Rob Parrish) <== 

  ==> MemDFJK: Density-Fitted J/K Matrices <==

    J tasked:                   Yes
    K tasked:                   Yes
    wK tasked:                   No
    OpenMP threads:               8
    Memory [MiB]:               500
    Algorithm:                 Core
    Schwarz Cutoff:           1E-12
    Mask sparsity (%):       1.4829
    Fitting Condition:        1E-10

   => Auxiliary Basis Set <=

  Basis Set: (6-31G* AUX)
    Blend: CC-PVDZ-JKFIT
    Number of shells: 231
    Number of basis function: 742
    Number of Cartesian functions: 742
    Spherical Harmonics?: false
    Max angular momentum: 3

  ==> CPHF Iterations <==

  => Iterations <=

             Iter  Converged  Remaining    Residual
  CGR           1          0          1   8.497E-02
  CGR           2          0          1   1.440E-02
  CGR           3          0          1   6.810E-03
  CGR           4          0          1   3.029E-03
  CGR           5          0          1   1.284E-03
  CGR           6          0          1   5.646E-04
  CGR           7          0          1   2.022E-04
  CGR           8          0          1   5.636E-05
  CGR           9          0          1   2.072E-05
  CGR          10          0          1   7.332E-06
  CGR          11          0          1   1.767E-06
  CGR          12          1          0   5.241E-07

    CGRSolver converged.

  ==> DFCorrGrad: Density-Fitted Correlated Gradients <==

    OpenMP threads:              8
    Integrals threads:           8
    Memory [GiB]:            0.489
    Schwarz Cutoff:          0E+00
    Fitting Condition:       1E-10

   => Auxiliary Basis Set <=

  Basis Set: (6-31G* AUX)
    Blend: CC-PVDZ-JKFIT
    Number of shells: 231
    Number of basis function: 742
    Number of Cartesian functions: 742
    Spherical Harmonics?: false
    Max angular momentum: 3

	-----------------------------------------------------------
	 ==================> DF-MP2 Energies <==================== 
	-----------------------------------------------------------
	 Reference Energy          =    -285.7112586142916939 [Eh]
	 Singles Energy            =      -0.0000000000000000 [Eh]
	 Same-Spin Energy          =      -0.2522955456025942 [Eh]
	 Opposite-Spin Energy      =      -0.7001016281534722 [Eh]
	 Correlation Energy        =      -0.9523971737560664 [Eh]
	 Total Energy              =    -286.6636557880477767 [Eh]
	-----------------------------------------------------------
	 ================> DF-SCS-MP2 Energies <================== 
	-----------------------------------------------------------
	 SCS Same-Spin Scale       =       0.3333333333333333 [-]
	 SCS Opposite-Spin Scale   =       1.2000000000000000 [-]
	 SCS Same-Spin Energy      =      -0.0840985152008647 [Eh]
	 SCS Opposite-Spin Energy  =      -0.8401219537841667 [Eh]
	 SCS Correlation Energy    =      -0.9242204689850314 [Eh]
	 SCS Total Energy          =    -286.6354790832767208 [Eh]
	-----------------------------------------------------------


  -Total Gradient:
     Atom            X                  Y                   Z
    ------   -----------------  -----------------  -----------------
       1       -0.013410265649     0.006468554191    -0.013190104399
       2       -0.024765052255    -0.003487463468     0.003397348231
       3       -0.015712793850     0.024845130901     0.003475755992
       4       -0.007181865551    -0.014982792453    -0.001492258561
       5        0.007644724810     0.018550225233     0.001765885466
       6        0.018036656324    -0.020270396353    -0.002510468725
       7        0.006804303690     0.002611246084     0.000652368379
       8        0.001900072879     0.000490119264     0.001184680594
       9        0.003427014474    -0.004534294532    -0.001724345522
      10       -0.001408754166    -0.000488645007     0.000004500940
      11       -0.001150542661    -0.004955682875    -0.001199918175
      12       -0.005237692131    -0.000941134118    -0.000206336221
      13        0.016043223981     0.010514915534    -0.015305955990
      14        0.015010970106    -0.013819782402     0.025148847991


*** tstop() called on daniele-Precision-5750 at Mon May 24 20:35:54 2021
Module time:
	user time   =      22.45 seconds =       0.37 minutes
	system time =       0.52 seconds =       0.01 minutes
	total time  =          3 seconds =       0.05 minutes
Total time:
	user time   =      31.39 seconds =       0.52 minutes
	system time =       0.74 seconds =       0.01 minutes
	total time  =          5 seconds =       0.08 minutes

			-----------------------------------------
			 OPTKING 2.0: for geometry optimizations 
			  - R.A. King,  Bethel University        
			-----------------------------------------
	At level 1: Red. Int., RFO, no backsteps, dynamic trust

	Internal coordinates to be generated automatically.
	Detected frag 1 with atoms:  1 2 3 4 5 6 7 8 9 10 11 12 13 14
	---Fragment 1 Bond Connectivity---
	 1 : 2 13 14
	 2 : 1 3 4
	 3 : 2 5 8
	 4 : 2 6 9
	 5 : 3 7 10
	 6 : 4 7 11
	 7 : 5 6 12
	 8 : 3
	 9 : 4
	 10 : 5
	 11 : 6
	 12 : 7
	 13 : 1
	 14 : 1

	---Fragment 1 Geometry and Gradient---
	 N           4.4321088023        0.5703641780        0.1444290855
	 C           1.7513433207        0.2593152578        0.0637377799
	 C           0.6949864166       -2.0693942466       -0.4485669727
	 C           0.1042580298        2.2357798124        0.4862805416
	 C          -1.8805213198       -2.4575439928       -0.5455099229
	 C          -2.4716276518        1.8440395866        0.3885817009
	 C          -3.5283625012       -0.4831581369       -0.1233451065
	 H           1.9903936756       -3.6342764511       -0.7830484969
	 H           0.9266668396        4.0667354554        0.8891701515
	 H          -2.6101445768       -4.3376325150       -0.9586040539
	 H          -3.7562634719        3.4055202841        0.7224963073
	 H          -5.5770145938       -0.7435623970       -0.1900524387
	 H           5.4489704304        1.6699958105       -1.1056247465
	 H           5.4586080336       -0.3625936101        1.5481176515
	            -0.0134102656        0.0064685542       -0.0131901044
	            -0.0247650523       -0.0034874635        0.0033973482
	            -0.0157127938        0.0248451309        0.0034757560
	            -0.0071818656       -0.0149827925       -0.0014922586
	             0.0076447248        0.0185502252        0.0017658855
	             0.0180366563       -0.0202703964       -0.0025104687
	             0.0068043037        0.0026112461        0.0006523684
	             0.0019000729        0.0004901193        0.0011846806
	             0.0034270145       -0.0045342945       -0.0017243455
	            -0.0014087542       -0.0004886450        0.0000045009
	            -0.0011505427       -0.0049556829       -0.0011999182
	            -0.0052376921       -0.0009411341       -0.0002063362
	             0.0160432240        0.0105149155       -0.0153059560
	             0.0150109701       -0.0138197824        0.0251488480

	Previous optimization step data not found.  Starting new optimization.

	---Fragment 1 Intrafragment Coordinates---
	 - Coordinate -           - BOHR/RAD -       - ANG/DEG -
	 R(1,2)           =         2.699957	       1.428756
	 R(1,13)          =         1.950854	       1.032348
	 R(1,14)          =         1.973437	       1.044298
	 R(2,3)           =         2.607918	       1.380051
	 R(2,4)           =         2.607268	       1.379707
	 R(3,5)           =         2.606396	       1.379245
	 R(3,8)           =         2.058838	       1.089490
	 R(4,6)           =         2.607334	       1.379742
	 R(4,9)           =         2.047211	       1.083338
	 R(5,7)           =         2.606109	       1.379093
	 R(5,10)          =         2.058575	       1.089351
	 R(6,7)           =         2.606647	       1.379378
	 R(6,11)          =         2.049393	       1.084492
	 R(7,12)          =         2.066213	       1.093393
	 B(1,2,3)         =         2.107052	     120.725162
	 B(1,2,4)         =         2.135378	     122.348141
	 B(2,1,13)        =         2.169196	     124.285802
	 B(2,1,14)        =         2.075165	     118.898176
	 B(2,3,5)         =         2.141878	     122.720548
	 B(2,3,8)         =         2.044022	     117.113810
	 B(2,4,6)         =         2.099184	     120.274356
	 B(2,4,9)         =         2.044402	     117.135580
	 B(3,2,4)         =         2.040756	     116.926697
	 B(3,5,7)         =         2.101288	     120.394958
	 B(3,5,10)        =         2.087141	     119.584372
	 B(4,6,7)         =         2.143620	     122.820406
	 B(4,6,11)        =         2.092890	     119.913754
	 B(5,3,8)         =         2.097286	     120.165642
	 B(5,7,6)         =         2.039645	     116.863035
	 B(5,7,12)        =         2.124940	     121.750118
	 B(6,4,9)         =         2.139600	     122.590064
	 B(6,7,12)        =         2.118600	     121.386847
	 B(7,5,10)        =         2.094756	     120.020670
	 B(7,6,11)        =         2.046675	     117.265840
	 B(13,1,14)       =         2.038824	     116.816021
	 D(1,2,3,5)       =         3.141578	     179.999155
	 D(1,2,3,8)       =         0.000055	       0.003148
	 D(1,2,4,6)       =        -3.141566	    -179.998470
	 D(1,2,4,9)       =        -0.000064	      -0.003640
	 D(2,3,5,7)       =        -0.000024	      -0.001367
	 D(2,3,5,10)      =         3.141551	     179.997589
	 D(2,4,6,7)       =        -0.000000	      -0.000000
	 D(2,4,6,11)      =         3.141593	     180.000000
	 D(3,2,1,13)      =         2.008056	     115.053130
	 D(3,2,1,14)      =        -1.133629	     -64.952139
	 D(3,2,4,6)       =         0.000022	       0.001248
	 D(3,2,4,9)       =         3.141524	     179.996078
	 D(3,5,7,6)       =         0.000044	       0.002504
	 D(3,5,7,12)      =         3.141522	     179.995970
	 D(4,2,1,13)      =        -1.133542	     -64.947163
	 D(4,2,1,14)      =         2.007959	     115.047569
	 D(4,2,3,5)       =        -0.000000	      -0.000000
	 D(4,2,3,8)       =        -3.141533	    -179.996575
	 D(4,6,7,5)       =        -0.000032	      -0.001855
	 D(4,6,7,12)      =        -3.141511	    -179.995347
	 D(5,7,6,11)      =         3.141565	     179.998424
	 D(6,7,5,10)      =        -3.141531	    -179.996448
	 D(7,5,3,8)       =         3.141497	     179.994523
	 D(7,6,4,9)       =        -3.141498	    -179.994574
	 D(8,3,5,10)      =        -0.000114	      -0.006521
	 D(9,4,6,11)      =         0.000090	       0.005140
	 D(10,5,7,12)     =        -0.000052	      -0.002982
	 D(11,6,7,12)     =         0.000086	       0.004933

	Current energy   :      -286.6636557880

	Generating empirical Hessian (Schlegel '84) for each fragment.
	Taking RFO optimization step.
	Going to follow RFO solution 1.
	Using RFO vector 1.
	Norm of target step-size    0.29129
	Projected energy change by RFO approximation:        -0.0134554483

	Back-transformation to cartesian coordinates...
	Successfully converged to displaced geometry.

	--- Internal Coordinate Step in ANG or DEG, aJ/ANG or AJ/DEG ---
	 ---------------------------------------------------------------------------
	   Coordinate                Previous        Force       Change         New 
	   ----------                --------       ------       ------       ------
	    1 R(1,2)          =      1.428756    -0.146509    -0.022156     1.406600
	    2 R(1,13)         =      1.032348    -0.198528    -0.029160     1.003188
	    3 R(1,14)         =      1.044298    -0.265531    -0.040625     1.003672
	    4 R(2,3)          =      1.380051     0.174016     0.022546     1.402596
	    5 R(2,4)          =      1.379707     0.190261     0.024534     1.404240
	    6 R(3,5)          =      1.379245     0.101956     0.013015     1.392260
	    7 R(3,8)          =      1.089490    -0.005195    -0.000922     1.088568
	    8 R(4,6)          =      1.379742     0.091778     0.011627     1.391368
	    9 R(4,9)          =      1.083338     0.024864     0.004328     1.087666
	   10 R(5,7)          =      1.379093     0.163853     0.020495     1.399588
	   11 R(5,10)         =      1.089351    -0.007783    -0.001381     1.087970
	   12 R(6,7)          =      1.379378     0.148558     0.018519     1.397897
	   13 R(6,11)         =      1.084492     0.026777     0.004679     1.089170
	   14 R(7,12)         =      1.093393    -0.043817    -0.007877     1.085515
	   15 B(1,2,3)        =    120.725162    -0.000182    -0.609532   120.115630
	   16 B(1,2,4)        =    122.348141    -0.000505    -1.550089   120.798052
	   17 B(2,1,13)       =    124.285802    -0.000459    -2.063220   122.222582
	   18 B(2,1,14)       =    118.898176     0.000359     1.369573   120.267749
	   19 B(2,3,5)        =    122.720548    -0.000695    -2.111798   120.608750
	   20 B(2,3,8)        =    117.113810     0.000499     1.720681   118.834491
	   21 B(2,4,6)        =    120.274356    -0.000055    -0.080599   120.193757
	   22 B(2,4,9)        =    117.135580     0.000422     1.756689   118.892269
	   23 B(3,2,4)        =    116.926697     0.000687     2.158259   119.084956
	   24 B(3,5,7)        =    120.394958    -0.000102    -0.346103   120.048855
	   25 B(3,5,10)       =    119.584372    -0.000039    -0.228287   119.356085
	   26 B(4,6,7)        =    122.820406    -0.000700    -2.311800   120.508606
	   27 B(4,6,11)       =    119.913754     0.000031    -0.244046   119.669709
	   28 B(5,3,8)        =    120.165642     0.000195     0.391060   120.556702
	   29 B(5,7,6)        =    116.863035     0.000865     2.672937   119.535972
	   30 B(5,7,12)       =    121.750118    -0.000411    -1.243064   120.507054
	   31 B(6,4,9)        =    122.590064    -0.000367    -1.676090   120.913974
	   32 B(6,7,12)       =    121.386847    -0.000454    -1.429873   119.956974
	   33 B(7,5,10)       =    120.020670     0.000141     0.565342   120.586012
	   34 B(7,6,11)       =    117.265840     0.000669     2.548142   119.813982
	   35 B(13,1,14)      =    116.816021     0.000100     0.693115   117.509136
	   36 D(1,2,3,5)      =    179.999155    -0.000011    -1.149442   178.849713
	   37 D(1,2,3,8)      =      0.003148    -0.000011    -1.067134    -1.063986
	   38 D(1,2,4,6)      =   -179.998470    -0.000002    -0.147584  -180.146054
	   39 D(1,2,4,9)      =     -0.003640    -0.000002    -0.146852    -0.150492
	   40 D(2,3,5,7)      =     -0.001367     0.000014     1.364868     1.363501
	   41 D(2,3,5,10)     =    179.997589     0.000003     0.278263   180.275853
	   42 D(2,4,6,7)      =      0.000000     0.000013     1.239142     1.239142
	   43 D(2,4,6,11)     =    180.000000     0.000002     0.227653   180.227653
	   44 D(3,2,1,13)     =    115.053130     0.000040     6.253690   121.306819
	   45 D(3,2,1,14)     =    -64.952139     0.000042     6.531188   -58.420951
	   46 D(3,2,4,6)      =      0.001248    -0.000006    -0.571285    -0.570037
	   47 D(3,2,4,9)      =    179.996078    -0.000006    -0.570553   179.425525
	   48 D(3,5,7,6)      =      0.002504    -0.000007    -0.695522    -0.693018
	   49 D(3,5,7,12)     =    179.995970    -0.000007    -0.688490   179.307480
	   50 D(4,2,1,13)     =    -64.947163     0.000036     5.825644   -59.121518
	   51 D(4,2,1,14)     =    115.047569     0.000038     6.103142   121.150711
	   52 D(4,2,3,5)      =      0.000000    -0.000008    -0.729263    -0.729263
	   53 D(4,2,3,8)      =   -179.996575    -0.000007    -0.646388  -180.642963
	   54 D(4,6,7,5)      =     -0.001855    -0.000006    -0.603603    -0.605458
	   55 D(4,6,7,12)     =   -179.995347    -0.000006    -0.610607  -180.605953
	   56 D(5,7,6,11)     =    179.998424     0.000004     0.409063   180.407487
	   57 D(6,7,5,10)     =   -179.996448     0.000004     0.404627  -179.591820
	   58 D(7,5,3,8)      =    179.994523     0.000013     1.281186   181.275708
	   59 D(7,6,4,9)      =   -179.994574     0.000013     1.238244  -178.756329
	   60 D(8,3,5,10)     =     -0.006521     0.000002     0.194581     0.188060
	   61 D(9,4,6,11)     =      0.005140     0.000002     0.227042     0.232182
	   62 D(10,5,7,12)    =     -0.002982     0.000004     0.411660     0.408678
	   63 D(11,6,7,12)    =      0.004933     0.000004     0.402059     0.406992
	 ---------------------------------------------------------------------------
	Successfully symmetrized geometry.

  ==> Convergence Check <==

  Measures of convergence in internal coordinates in au.
  Criteria marked as inactive (o), active & met (*), and active & unmet ( ).
  --------------------------------------------------------------------------------------------- ~
   Step     Total Energy     Delta E     MAX Force     RMS Force      MAX Disp      RMS Disp    ~
  --------------------------------------------------------------------------------------------- ~
    Convergence Criteria             o    2.50e-03 *    1.70e-03 *    1.00e-02 *    6.70e-03 *  ~
  --------------------------------------------------------------------------------------------- ~
      1    -286.66365579   -2.87e+02 o    3.22e-02      8.66e-03      1.14e-01      3.67e-02    ~
  ---------------------------------------------------------------------------------------------

	Writing optimization data to binary file.
	Structure for next step:
	Cartesian Geometry (in Angstrom)
	    N     2.3270502504   0.2974165694   0.0919768092
	    C     0.9325454850   0.1228595496   0.0335910038
	    C     0.3929069157  -1.1363628998  -0.2671162598
	    C     0.0624919759   1.1966253972   0.2824369649
	    C    -0.9858428928  -1.3262655452  -0.3041805956
	    C    -1.3148849905   1.0105406487   0.2183168107
	    C    -1.8481954008  -0.2494531028  -0.0682366544
	    H     1.0711054070  -1.9633902998  -0.4697304273
	    H     0.4842467956   2.1695053288   0.5246031247
	    H    -1.3823511768  -2.3127138185  -0.5352190296
	    H    -1.9818267158   1.8502044777   0.4092240063
	    H    -2.9243280727  -0.3866750817  -0.1063481475
	    H     2.8088455465   0.9545354685  -0.4932185173
	    H     2.8786304985  -0.2460945446   0.7305010402
			--------------------------
			 OPTKING Finished Execution 
			--------------------------

    Structure for next step:
    Molecular point group: c1
    Full point group: C1

    Geometry (in Angstrom), charge = 0, multiplicity = 1:

    N            2.322580998043     0.301221108674     0.091052939307
    C            0.928076227179     0.126664088171     0.032667133627
    C            0.388437655681    -1.132558366182    -0.268040131182
    C            0.058022714619     1.200429940007     0.281513095761
    C           -0.990312158206    -1.322461012310    -0.305104467104
    C           -1.319354257173     1.014345190769     0.217392941293
    C           -1.852664669615    -0.245648565675    -0.069160524991
    H            1.066636149701    -1.959585769400    -0.470654299432
    H            0.479777535980     2.173309875439     0.523679256477
    H           -1.386820443752    -2.308909289427    -0.536142901957
    H           -1.986295985102     1.854009023074     0.408300137582
    H           -2.928797345689    -0.382870545147    -0.107272018239
    H            2.804376296024     0.958340010319    -0.494142389522
    H            2.874161248282    -0.242290007426     0.729577172779

gradient() will perform analytic gradient computation.
    SCF Algorithm Type (re)set to DF.

*** tstart() called on daniele-Precision-5750
*** at Mon May 24 20:35:54 2021

   => Loading Basis Set <=

    Name: 6-31G*
    Role: ORBITAL
    Keyword: BASIS
    atoms 1    entry N          line   128 file /home/daniele/anaconda3/envs/poltype/share/psi4/basis/6-31gs.gbs 
    atoms 2-7  entry C          line   111 file /home/daniele/anaconda3/envs/poltype/share/psi4/basis/6-31gs.gbs 
    atoms 8-14 entry H          line    44 file /home/daniele/anaconda3/envs/poltype/share/psi4/basis/6-31gs.gbs 


         ---------------------------------------------------------
                                   SCF
               by Justin Turney, Rob Parrish, Andy Simmonett
                          and Daniel G. A. Smith
                              RHF Reference
                        8 Threads,    667 MiB Core
         ---------------------------------------------------------

  ==> Geometry <==

    Molecular point group: c1
    Full point group: C1

    Geometry (in Angstrom), charge = 0, multiplicity = 1:

       Center              X                  Y                   Z               Mass       
    ------------   -----------------  -----------------  -----------------  -----------------
         N            2.322580998043     0.301221108674     0.091052939307    14.003074004430
         C            0.928076227179     0.126664088171     0.032667133627    12.000000000000
         C            0.388437655681    -1.132558366182    -0.268040131182    12.000000000000
         C            0.058022714619     1.200429940007     0.281513095761    12.000000000000
         C           -0.990312158206    -1.322461012310    -0.305104467104    12.000000000000
         C           -1.319354257173     1.014345190769     0.217392941293    12.000000000000
         C           -1.852664669615    -0.245648565675    -0.069160524991    12.000000000000
         H            1.066636149701    -1.959585769400    -0.470654299432     1.007825032230
         H            0.479777535980     2.173309875439     0.523679256477     1.007825032230
         H           -1.386820443752    -2.308909289427    -0.536142901957     1.007825032230
         H           -1.986295985102     1.854009023074     0.408300137582     1.007825032230
         H           -2.928797345689    -0.382870545147    -0.107272018239     1.007825032230
         H            2.804376296024     0.958340010319    -0.494142389522     1.007825032230
         H            2.874161248282    -0.242290007426     0.729577172779     1.007825032230

  Running in c1 symmetry.

  Rotational constants: A =      0.18668  B =      0.08567  C =      0.05917 [cm^-1]
  Rotational constants: A =   5596.50675  B =   2568.31527  C =   1773.73716 [MHz]
  Nuclear repulsion =  270.564028199854306

  Charge       = 0
  Multiplicity = 1
  Electrons    = 50
  Nalpha       = 25
  Nbeta        = 25

  ==> Algorithm <==

  SCF Algorithm Type is DF.
  DIIS enabled.
  MOM disabled.
  Fractional occupation disabled.
  Guess Type is READ.
  Energy threshold   = 1.00e-10
  Density threshold  = 1.00e-10
  Integral threshold = 0.00e+00

  ==> Primary Basis <==

  Basis Set: 6-31G*
    Blend: 6-31G*
    Number of shells: 56
    Number of basis function: 119
    Number of Cartesian functions: 119
    Spherical Harmonics?: false
    Max angular momentum: 2

   => Loading Basis Set <=

    Name: (6-31G* AUX)
    Role: JKFIT
    Keyword: DF_BASIS_SCF
    atoms 1    entry N          line   171 file /home/daniele/anaconda3/envs/poltype/share/psi4/basis/cc-pvdz-jkfit.gbs 
    atoms 2-7  entry C          line   121 file /home/daniele/anaconda3/envs/poltype/share/psi4/basis/cc-pvdz-jkfit.gbs 
    atoms 8-14 entry H          line    51 file /home/daniele/anaconda3/envs/poltype/share/psi4/basis/cc-pvdz-jkfit.gbs 

   => Loading Basis Set <=

    Name: 6-31G*
    Role: ORBITAL
    Keyword: BASIS
    atoms 1    entry N          line   128 file /home/daniele/anaconda3/envs/poltype/share/psi4/basis/6-31gs.gbs 
    atoms 2-7  entry C          line   111 file /home/daniele/anaconda3/envs/poltype/share/psi4/basis/6-31gs.gbs 
    atoms 8-14 entry H          line    44 file /home/daniele/anaconda3/envs/poltype/share/psi4/basis/6-31gs.gbs 

  Reading orbitals from file 180, no projection.

  ==> Pre-Iterations <==

   -------------------------------------------------------
    Irrep   Nso     Nmo     Nalpha   Nbeta   Ndocc  Nsocc
   -------------------------------------------------------
     A        119     119       0       0       0       0
   -------------------------------------------------------
    Total     119     119      25      25      25       0
   -------------------------------------------------------

  ==> Integral Setup <==

  DFHelper Memory: AOs need 0.085 GiB; user supplied 0.489 GiB. Using in-core AOs.

  ==> MemDFJK: Density-Fitted J/K Matrices <==

    J tasked:                   Yes
    K tasked:                   Yes
    wK tasked:                   No
    OpenMP threads:               8
    Memory [MiB]:               500
    Algorithm:                 Core
    Schwarz Cutoff:           1E-12
    Mask sparsity (%):       1.4829
    Fitting Condition:        1E-10

   => Auxiliary Basis Set <=

  Basis Set: (6-31G* AUX)
    Blend: CC-PVDZ-JKFIT
    Number of shells: 231
    Number of basis function: 742
    Number of Cartesian functions: 742
    Spherical Harmonics?: false
    Max angular momentum: 3

  Minimum eigenvalue in the overlap matrix is 4.6311471528E-04.
  Using Symmetric Orthogonalization.

  SCF Guess: Orbitals guess was supplied from a previous computation.

  ==> Iterations <==

                           Total Energy        Delta E     RMS |[F,P]|

   @DF-RHF iter   0:  -285.69792029042520   -2.85698e+02   1.33787e-03 
   @DF-RHF iter   1:  -285.71705981102525   -1.91395e-02   2.62308e-04 DIIS
   @DF-RHF iter   2:  -285.71775588717549   -6.96076e-04   1.20566e-04 DIIS
   @DF-RHF iter   3:  -285.71789358096169   -1.37694e-04   4.39013e-05 DIIS
   @DF-RHF iter   4:  -285.71793521098283   -4.16300e-05   1.34173e-05 DIIS
   @DF-RHF iter   5:  -285.71793955146273   -4.34048e-06   6.22639e-06 DIIS
   @DF-RHF iter   6:  -285.71794045395143   -9.02489e-07   2.11510e-06 DIIS
   @DF-RHF iter   7:  -285.71794058515383   -1.31202e-07   1.12110e-06 DIIS
   @DF-RHF iter   8:  -285.71794062571769   -4.05639e-08   4.68571e-07 DIIS
   @DF-RHF iter   9:  -285.71794063517700   -9.45931e-09   1.29752e-07 DIIS
   @DF-RHF iter  10:  -285.71794063570263   -5.25631e-10   5.33980e-08 DIIS
   @DF-RHF iter  11:  -285.71794063575697   -5.43423e-11   1.50636e-08 DIIS
   @DF-RHF iter  12:  -285.71794063576158   -4.60432e-12   5.70850e-09 DIIS
   @DF-RHF iter  13:  -285.71794063576169   -1.13687e-13   1.85563e-09 DIIS
   @DF-RHF iter  14:  -285.71794063576192   -2.27374e-13   6.54027e-10 DIIS
   @DF-RHF iter  15:  -285.71794063576220   -2.84217e-13   2.21138e-10 DIIS
   @DF-RHF iter  16:  -285.71794063576209    1.13687e-13   8.60985e-11 DIIS
  Energy and wave function converged.


  ==> Post-Iterations <==

    Orbital Energies [Eh]
    ---------------------

    Doubly Occupied:                                                      

       1A    -15.541100     2A    -11.265843     3A    -11.230122  
       4A    -11.229766     5A    -11.224808     6A    -11.222274  
       7A    -11.221823     8A     -1.195433     9A     -1.114458  
      10A     -1.003612    11A     -0.975810    12A     -0.817251  
      13A     -0.804125    14A     -0.695690    15A     -0.673501  
      16A     -0.645897    17A     -0.611301    18A     -0.588192  
      19A     -0.575258    20A     -0.500910    21A     -0.494812  
      22A     -0.483518    23A     -0.397469    24A     -0.326460  
      25A     -0.301744  

    Virtual:                                                              

      26A      0.150699    27A      0.154059    28A      0.239477  
      29A      0.245251    30A      0.290409    31A      0.312910  
      32A      0.313319    33A      0.335825    34A      0.343952  
      35A      0.387092    36A      0.448733    37A      0.484588  
      38A      0.494135    39A      0.534747    40A      0.557589  
      41A      0.681696    42A      0.747818    43A      0.755792  
      44A      0.760356    45A      0.779338    46A      0.821021  
      47A      0.836578    48A      0.840624    49A      0.844767  
      50A      0.847694    51A      0.849569    52A      0.890297  
      53A      0.913232    54A      0.930964    55A      0.978340  
      56A      1.012684    57A      1.036023    58A      1.095548  
      59A      1.116067    60A      1.121044    61A      1.129481  
      62A      1.164186    63A      1.184801    64A      1.189789  
      65A      1.216668    66A      1.225962    67A      1.239521  
      68A      1.276335    69A      1.286276    70A      1.342805  
      71A      1.366851    72A      1.442250    73A      1.462370  
      74A      1.517793    75A      1.570957    76A      1.694876  
      77A      1.720501    78A      1.727419    79A      1.766706  
      80A      1.781365    81A      1.802056    82A      1.965550  
      83A      2.007885    84A      2.096645    85A      2.101213  
      86A      2.137808    87A      2.181050    88A      2.250046  
      89A      2.281485    90A      2.310992    91A      2.394238  
      92A      2.397742    93A      2.440968    94A      2.466230  
      95A      2.474904    96A      2.547408    97A      2.566133  
      98A      2.633264    99A      2.651152   100A      2.687932  
     101A      2.820719   102A      2.907749   103A      2.936466  
     104A      2.963511   105A      3.015579   106A      3.077801  
     107A      3.094295   108A      3.104831   109A      3.189795  
     110A      3.241230   111A      3.471077   112A      3.800768  
     113A      4.268536   114A      4.518750   115A      4.549665  
     116A      4.560854   117A      4.761751   118A      4.791711  
     119A      5.128292  

    Final Occupation by Irrep:
              A 
    DOCC [    25 ]

  @DF-RHF Final Energy:  -285.71794063576209

   => Energetics <=

    Nuclear Repulsion Energy =            270.5640281998543060
    One-Electron Energy =                -922.2815794218570318
    Two-Electron Energy =                 365.9996105862406353
    Total Energy =                       -285.7179406357620906

Computation Completed


Properties will be evaluated at   0.000000,   0.000000,   0.000000 [a0]

Properties computed using the SCF density matrix

  Nuclear Dipole Moment: [e a0]
     X:     0.8586      Y:     0.0854      Z:     0.0497

  Electronic Dipole Moment: [e a0]
     X:    -0.5275      Y:    -0.0482      Z:    -0.0345

  Dipole Moment: [e a0]
     X:     0.3311      Y:     0.0372      Z:     0.0152     Total:     0.3335

  Dipole Moment: [D]
     X:     0.8416      Y:     0.0946      Z:     0.0387     Total:     0.8478


*** tstop() called on daniele-Precision-5750 at Mon May 24 20:35:55 2021
Module time:
	user time   =       6.92 seconds =       0.12 minutes
	system time =       0.09 seconds =       0.00 minutes
	total time  =          1 seconds =       0.02 minutes
Total time:
	user time   =      38.50 seconds =       0.64 minutes
	system time =       0.84 seconds =       0.01 minutes
	total time  =          6 seconds =       0.10 minutes

*** tstart() called on daniele-Precision-5750
*** at Mon May 24 20:35:55 2021


  //>>>>>>>>>>>>>>>>>>>>>>>>>>>>>>>>>>>//
  //               DFMP2               //
  //<<<<<<<<<<<<<<<<<<<<<<<<<<<<<<<<<<<//

   => Loading Basis Set <=

    Name: (6-31G* AUX)
    Role: RIFIT
    Keyword: DF_BASIS_MP2
    atoms 1    entry N          line   197 file /home/daniele/anaconda3/envs/poltype/share/psi4/basis/cc-pvdz-ri.gbs 
    atoms 2-7  entry C          line   159 file /home/daniele/anaconda3/envs/poltype/share/psi4/basis/cc-pvdz-ri.gbs 
    atoms 8-14 entry H          line    19 file /home/daniele/anaconda3/envs/poltype/share/psi4/basis/cc-pvdz-ri.gbs 

	 --------------------------------------------------------
	                          DF-MP2                         
	      2nd-Order Density-Fitted Moller-Plesset Theory     
	              RMP2 Wavefunction,   8 Threads             
	                                                         
	        Rob Parrish, Justin Turney, Andy Simmonett,      
	           Ed Hohenstein, and C. David Sherrill          
	 --------------------------------------------------------

   => Auxiliary Basis Set <=

  Basis Set: (6-31G* AUX)
    Blend: CC-PVDZ-RI
    Number of shells: 168
    Number of basis function: 490
    Number of Cartesian functions: 567
    Spherical Harmonics?: true
    Max angular momentum: 3

	 --------------------------------------------------------
	                 NBF =   119, NAUX =   490
	 --------------------------------------------------------
	   CLASS    FOCC     OCC    AOCC    AVIR     VIR    FVIR
	   PAIRS       0      25      25      94      94       0
	 --------------------------------------------------------

  DFHelper Memory: AOs need 0.085 GiB; user supplied 0.489 GiB. Using in-core AOs.


         ------------------------------------------------------------
                                     CPHF                           
                                  Rob Parrish                       
         ------------------------------------------------------------

  ==> Geometry <==

    Molecular point group: c1
    Full point group: C1

    Geometry (in Angstrom), charge = 0, multiplicity = 1:

       Center              X                  Y                   Z               Mass       
    ------------   -----------------  -----------------  -----------------  -----------------
         N            2.322580998043     0.301221108674     0.091052939307    14.003074004430
         C            0.928076227179     0.126664088171     0.032667133627    12.000000000000
         C            0.388437655681    -1.132558366182    -0.268040131182    12.000000000000
         C            0.058022714619     1.200429940007     0.281513095761    12.000000000000
         C           -0.990312158206    -1.322461012310    -0.305104467104    12.000000000000
         C           -1.319354257173     1.014345190769     0.217392941293    12.000000000000
         C           -1.852664669615    -0.245648565675    -0.069160524991    12.000000000000
         H            1.066636149701    -1.959585769400    -0.470654299432     1.007825032230
         H            0.479777535980     2.173309875439     0.523679256477     1.007825032230
         H           -1.386820443752    -2.308909289427    -0.536142901957     1.007825032230
         H           -1.986295985102     1.854009023074     0.408300137582     1.007825032230
         H           -2.928797345689    -0.382870545147    -0.107272018239     1.007825032230
         H            2.804376296024     0.958340010319    -0.494142389522     1.007825032230
         H            2.874161248282    -0.242290007426     0.729577172779     1.007825032230

  Nuclear repulsion =  270.564028199854306
  Reference energy  = -285.717940635762091

  ==> Basis Set <==

  Basis Set: 6-31G*
    Blend: 6-31G*
    Number of shells: 56
    Number of basis function: 119
    Number of Cartesian functions: 119
    Spherical Harmonics?: false
    Max angular momentum: 2

  ==> CGRSolver (by Rob Parrish) <==

   Number of roots    =         1
   Preconditioning    =    JACOBI
   Convergence cutoff =     1E-06
   Maximum iterations =       100

  ==> CPHFRHamiltonian (by Rob Parrish) <== 

  ==> MemDFJK: Density-Fitted J/K Matrices <==

    J tasked:                   Yes
    K tasked:                   Yes
    wK tasked:                   No
    OpenMP threads:               8
    Memory [MiB]:               500
    Algorithm:                 Core
    Schwarz Cutoff:           1E-12
    Mask sparsity (%):       1.4829
    Fitting Condition:        1E-10

   => Auxiliary Basis Set <=

  Basis Set: (6-31G* AUX)
    Blend: CC-PVDZ-JKFIT
    Number of shells: 231
    Number of basis function: 742
    Number of Cartesian functions: 742
    Spherical Harmonics?: false
    Max angular momentum: 3

  ==> CPHF Iterations <==

  => Iterations <=

             Iter  Converged  Remaining    Residual
  CGR           1          0          1   8.641E-02
  CGR           2          0          1   1.682E-02
  CGR           3          0          1   9.281E-03
  CGR           4          0          1   4.088E-03
  CGR           5          0          1   1.745E-03
  CGR           6          0          1   7.738E-04
  CGR           7          0          1   2.473E-04
  CGR           8          0          1   6.153E-05
  CGR           9          0          1   2.309E-05
  CGR          10          0          1   7.896E-06
  CGR          11          0          1   1.776E-06
  CGR          12          1          0   5.437E-07

    CGRSolver converged.

  ==> DFCorrGrad: Density-Fitted Correlated Gradients <==

    OpenMP threads:              8
    Integrals threads:           8
    Memory [GiB]:            0.489
    Schwarz Cutoff:          0E+00
    Fitting Condition:       1E-10

   => Auxiliary Basis Set <=

  Basis Set: (6-31G* AUX)
    Blend: CC-PVDZ-JKFIT
    Number of shells: 231
    Number of basis function: 742
    Number of Cartesian functions: 742
    Spherical Harmonics?: false
    Max angular momentum: 3

	-----------------------------------------------------------
	 ==================> DF-MP2 Energies <==================== 
	-----------------------------------------------------------
	 Reference Energy          =    -285.7179406357620906 [Eh]
	 Singles Energy            =      -0.0000000000000000 [Eh]
	 Same-Spin Energy          =      -0.2521451881587888 [Eh]
	 Opposite-Spin Energy      =      -0.7005048788132379 [Eh]
	 Correlation Energy        =      -0.9526500669720267 [Eh]
	 Total Energy              =    -286.6705907027341027 [Eh]
	-----------------------------------------------------------
	 ================> DF-SCS-MP2 Energies <================== 
	-----------------------------------------------------------
	 SCS Same-Spin Scale       =       0.3333333333333333 [-]
	 SCS Opposite-Spin Scale   =       1.2000000000000000 [-]
	 SCS Same-Spin Energy      =      -0.0840483960529296 [Eh]
	 SCS Opposite-Spin Energy  =      -0.8406058545758854 [Eh]
	 SCS Correlation Energy    =      -0.9246542506288150 [Eh]
	 SCS Total Energy          =    -286.6425948863908957 [Eh]
	-----------------------------------------------------------


  -Total Gradient:
     Atom            X                  Y                   Z
    ------   -----------------  -----------------  -----------------
       1        0.003355628783     0.001449051657    -0.001774855780
       2       -0.001932891230    -0.001432465894     0.000586859347
       3       -0.000953421460    -0.000218872074    -0.002443826612
       4       -0.002948264234     0.002225114364     0.002873497535
       5        0.002717747827    -0.002631119465    -0.001498450135
       6        0.003649367153     0.000643958243     0.001293519050
       7       -0.003545473098     0.000818145822     0.000139696504
       8        0.000255337584    -0.001036099295     0.000221087245
       9        0.000095378930     0.000465598694    -0.000376237963
      10        0.000858879834    -0.000838004429    -0.000170760713
      11       -0.000702490827     0.000918993288     0.000206331316
      12        0.000772242292     0.000623288184     0.000105600210
      13        0.000488098627    -0.003989412477    -0.000826192665
      14       -0.002110140179     0.003001823383     0.001663732661


*** tstop() called on daniele-Precision-5750 at Mon May 24 20:35:58 2021
Module time:
	user time   =      22.09 seconds =       0.37 minutes
	system time =       0.54 seconds =       0.01 minutes
	total time  =          3 seconds =       0.05 minutes
Total time:
	user time   =      60.59 seconds =       1.01 minutes
	system time =       1.38 seconds =       0.02 minutes
	total time  =          9 seconds =       0.15 minutes

			-----------------------------------------
			 OPTKING 2.0: for geometry optimizations 
			  - R.A. King,  Bethel University        
			-----------------------------------------
	At level 1: Red. Int., RFO, no backsteps, dynamic trust

	Previous internal coordinate definitions found.
	---Fragment 1 Geometry and Gradient---
	 N           4.3890419905        0.5692253986        0.1720651182
	 C           1.7538098929        0.2393604366        0.0617319359
	 C           0.7340407861       -2.1402251332       -0.5065224386
	 C           0.1096470397        2.2684838194        0.5319826517
	 C          -1.8714187577       -2.4990891249       -0.5765638825
	 C          -2.4932182085        1.9168346072        0.4108131207
	 C          -3.5010288279       -0.4642085122       -0.1306944509
	 H           2.0156501984       -3.7030804235       -0.8894077257
	 H           0.9066481441        4.1069604503        0.9896103723
	 H          -2.6207108239       -4.3632062055       -1.0131632488
	 H          -3.7535554159        3.5035692877        0.7715754370
	 H          -5.5346248603       -0.7235204718       -0.2027147354
	 H           5.2995031522        1.8110001546       -0.9337937832
	 H           5.4313775997       -0.4578617570        1.3787010439
	             0.0033556288        0.0014490517       -0.0017748558
	            -0.0019328912       -0.0014324659        0.0005868593
	            -0.0009534215       -0.0002188721       -0.0024438266
	            -0.0029482642        0.0022251144        0.0028734975
	             0.0027177478       -0.0026311195       -0.0014984501
	             0.0036493672        0.0006439582        0.0012935190
	            -0.0035454731        0.0008181458        0.0001396965
	             0.0002553376       -0.0010360993        0.0002210872
	             0.0000953789        0.0004655987       -0.0003762380
	             0.0008588798       -0.0008380044       -0.0001707607
	            -0.0007024908        0.0009189933        0.0002063313
	             0.0007722423        0.0006232882        0.0001056002
	             0.0004880986       -0.0039894125       -0.0008261927
	            -0.0021101402        0.0030018234        0.0016637327

	---Fragment 1 Intrafragment Coordinates---
	 - Coordinate -           - BOHR/RAD -       - ANG/DEG -
	 R(1,2)           =         2.658088	       1.406600
	 R(1,13)          =         1.895750	       1.003188
	 R(1,14)          =         1.896666	       1.003672
	 R(2,3)           =         2.650523	       1.402596
	 R(2,4)           =         2.653629	       1.404240
	 R(3,5)           =         2.630990	       1.392260
	 R(3,8)           =         2.057095	       1.088568
	 R(4,6)           =         2.629305	       1.391368
	 R(4,9)           =         2.055391	       1.087666
	 R(5,7)           =         2.644838	       1.399588
	 R(5,10)          =         2.055965	       1.087970
	 R(6,7)           =         2.641643	       1.397897
	 R(6,11)          =         2.058234	       1.089170
	 R(7,12)          =         2.051327	       1.085515
	 B(1,2,3)         =         2.096413	     120.115630
	 B(1,2,4)         =         2.108324	     120.798052
	 B(2,1,13)        =         2.133186	     122.222582
	 B(2,1,14)        =         2.099068	     120.267749
	 B(2,3,5)         =         2.105020	     120.608750
	 B(2,3,8)         =         2.074053	     118.834491
	 B(2,4,6)         =         2.097777	     120.193757
	 B(2,4,9)         =         2.075062	     118.892269
	 B(3,2,4)         =         2.078425	     119.084956
	 B(3,5,7)         =         2.095248	     120.048855
	 B(3,5,10)        =         2.083157	     119.356085
	 B(4,6,7)         =         2.103272	     120.508606
	 B(4,6,11)        =         2.088630	     119.669709
	 B(5,3,8)         =         2.104111	     120.556702
	 B(5,7,6)         =         2.086296	     119.535972
	 B(5,7,12)        =         2.103245	     120.507054
	 B(6,4,9)         =         2.110347	     120.913974
	 B(6,7,12)        =         2.093644	     119.956974
	 B(7,5,10)        =         2.104623	     120.586012
	 B(7,6,11)        =         2.091148	     119.813982
	 B(13,1,14)       =         2.050921	     117.509136
	 D(1,2,3,5)       =         3.121516	     178.849713
	 D(1,2,3,8)       =        -0.018570	      -1.063986
	 D(1,2,4,6)       =         3.139044	     179.853946
	 D(1,2,4,9)       =        -0.002627	      -0.150492
	 D(2,3,5,7)       =         0.023798	       1.363501
	 D(2,3,5,10)      =        -3.136778	    -179.724147
	 D(2,4,6,7)       =         0.021627	       1.239142
	 D(2,4,6,11)      =        -3.137619	    -179.772347
	 D(3,2,1,13)      =         2.117203	     121.306819
	 D(3,2,1,14)      =        -1.019638	     -58.420951
	 D(3,2,4,6)       =        -0.009949	      -0.570037
	 D(3,2,4,9)       =         3.131566	     179.425525
	 D(3,5,7,6)       =        -0.012095	      -0.693018
	 D(3,5,7,12)      =         3.129506	     179.307480
	 D(4,2,1,13)      =        -1.031865	     -59.121518
	 D(4,2,1,14)      =         2.114479	     121.150711
	 D(4,2,3,5)       =        -0.012728	      -0.729263
	 D(4,2,3,8)       =         3.130371	     179.357037
	 D(4,6,7,5)       =        -0.010567	      -0.605458
	 D(4,6,7,12)      =         3.131017	     179.394047
	 D(5,7,6,11)      =        -3.134481	    -179.592513
	 D(6,7,5,10)      =        -3.134469	    -179.591820
	 D(7,5,3,8)       =        -3.119327	    -178.724292
	 D(7,6,4,9)       =        -3.119887	    -178.756329
	 D(8,3,5,10)      =         0.003282	       0.188060
	 D(9,4,6,11)      =         0.004052	       0.232182
	 D(10,5,7,12)     =         0.007133	       0.408678
	 D(11,6,7,12)     =         0.007103	       0.406992

	Current energy   :      -286.6705907027

	Energy change for the previous step:
		Projected    :        -0.0134554483
		Actual       :        -0.0069349147

	Performing BFGS update.
	Previous computed or guess Hessian on step 1.
	Steps to be used in Hessian update: 1
	Taking RFO optimization step.
	Going to follow RFO solution 1.
	Using RFO vector 1.

	Determining step-restricting scale parameter for RS-RFO.
	Maximum step size allowed    0.50000

	 Iter      |step|        alpha        rfo_root  
	------------------------------------------------
	    0     0.54570       1.00000           1
	    1     0.50562       1.34305           1
	    2     0.50010       1.39779           1
	    3     0.50000       1.39883           1
	------------------------------------------------
	Norm of target step-size    0.50000
	Projected energy change by RFO approximation:        -0.0046623687

	Back-transformation to cartesian coordinates...
	Successfully converged to displaced geometry.

	--- Internal Coordinate Step in ANG or DEG, aJ/ANG or AJ/DEG ---
	 ---------------------------------------------------------------------------
	   Coordinate                Previous        Force       Change         New 
	   ----------                --------       ------       ------       ------
	    1 R(1,2)          =      1.406600    -0.014311    -0.005081     1.401518
	    2 R(1,13)         =      1.003188     0.015627    -0.001312     1.001875
	    3 R(1,14)         =      1.003672     0.014226    -0.002890     1.000782
	    4 R(2,3)          =      1.402596    -0.009653     0.001606     1.404202
	    5 R(2,4)          =      1.404240    -0.021051     0.000411     1.404652
	    6 R(3,5)          =      1.392260     0.013472     0.003384     1.395644
	    7 R(3,8)          =      1.088568    -0.007457    -0.001507     1.087061
	    8 R(4,6)          =      1.391368     0.016708     0.003759     1.395128
	    9 R(4,9)          =      1.087666    -0.003046    -0.000007     1.087659
	   10 R(5,7)          =      1.399588    -0.034696    -0.002053     1.397535
	   11 R(5,10)         =      1.087970    -0.003980    -0.000916     1.087053
	   12 R(6,7)          =      1.397897    -0.020700    -0.000393     1.397504
	   13 R(6,11)         =      1.089170    -0.009679    -0.001181     1.087990
	   14 R(7,12)         =      1.085515     0.006987     0.000320     1.085835
	   15 B(1,2,3)        =    120.115630     0.000137     0.340199   120.455829
	   16 B(1,2,4)        =    120.798052    -0.000021    -0.252025   120.546027
	   17 B(2,1,13)       =    122.222582    -0.000153    -1.219065   121.003518
	   18 B(2,1,14)       =    120.267749     0.000142     0.090829   120.358578
	   19 B(2,3,5)        =    120.608750     0.000009    -0.239050   120.369700
	   20 B(2,3,8)        =    118.834491    -0.000035     0.046758   118.881250
	   21 B(2,4,6)        =    120.193757     0.000083     0.305402   120.499158
	   22 B(2,4,9)        =    118.892269    -0.000046     0.017801   118.910070
	   23 B(3,2,4)        =    119.084956    -0.000116    -0.087317   118.997639
	   24 B(3,5,7)        =    120.048855     0.000065     0.158615   120.207471
	   25 B(3,5,10)       =    119.356085     0.000054     0.291131   119.647217
	   26 B(4,6,7)        =    120.508606    -0.000027    -0.415106   120.093501
	   27 B(4,6,11)       =    119.669709     0.000015     0.042651   119.712360
	   28 B(5,3,8)        =    120.556702     0.000027     0.192242   120.748944
	   29 B(5,7,6)        =    119.535972    -0.000015     0.230203   119.766176
	   30 B(5,7,12)       =    120.507054    -0.000033    -0.282832   120.224222
	   31 B(6,4,9)        =    120.913974    -0.000037    -0.323331   120.590643
	   32 B(6,7,12)       =    119.956974     0.000049     0.052628   120.009602
	   33 B(7,5,10)       =    120.586012    -0.000120    -0.468256   120.117755
	   34 B(7,6,11)       =    119.813982     0.000012     0.353575   120.167557
	   35 B(13,1,14)      =    117.509136     0.000011     1.123171   118.632306
	   36 D(1,2,3,5)      =    178.849713    -0.000002    -0.401303   178.448410
	   37 D(1,2,3,8)      =     -1.063986    -0.000002    -0.369428    -1.433414
	   38 D(1,2,4,6)      =    179.853946    -0.000005    -0.725643   179.128302
	   39 D(1,2,4,9)      =     -0.150492    -0.000004    -0.591705    -0.742197
	   40 D(2,3,5,7)      =      1.363501     0.000007     1.098011     2.461512
	   41 D(2,3,5,10)     =   -179.724147     0.000002     0.278655  -179.445492
	   42 D(2,4,6,7)      =      1.239142     0.000008     1.154815     2.393957
	   43 D(2,4,6,11)     =   -179.772347     0.000002     0.294270  -179.478077
	   44 D(3,2,1,13)     =    121.306819     0.000048    13.826783   135.133603
	   45 D(3,2,1,14)     =    -58.420951     0.000050    14.427073   -43.993878
	   46 D(3,2,4,6)      =     -0.570037    -0.000004    -0.559019    -1.129055
	   47 D(3,2,4,9)      =    179.425525    -0.000003    -0.425081   179.000445
	   48 D(3,5,7,6)      =     -0.693018    -0.000003    -0.500428    -1.193446
	   49 D(3,5,7,12)     =    179.307480    -0.000003    -0.508323   178.799157
	   50 D(4,2,1,13)     =    -59.121518     0.000049    13.993996   -45.127523
	   51 D(4,2,1,14)     =    121.150711     0.000051    14.594285   135.744996
	   52 D(4,2,3,5)      =     -0.729263    -0.000003    -0.565207    -1.294471
	   53 D(4,2,3,8)      =    179.357037    -0.000003    -0.533332   178.823705
	   54 D(4,6,7,5)      =     -0.605458    -0.000004    -0.620146    -1.225604
	   55 D(4,6,7,12)     =    179.394047    -0.000004    -0.612270   178.781777
	   56 D(5,7,6,11)     =   -179.592513     0.000002     0.247531  -179.344981
	   57 D(6,7,5,10)     =   -179.591820     0.000002     0.314402  -179.277418
	   58 D(7,5,3,8)      =   -178.724292     0.000007     1.065399  -177.658892
	   59 D(7,6,4,9)      =   -178.756329     0.000007     1.018597  -177.737733
	   60 D(8,3,5,10)     =      0.188060     0.000002     0.246043     0.434104
	   61 D(9,4,6,11)     =      0.232182     0.000001     0.158051     0.390233
	   62 D(10,5,7,12)    =      0.408678     0.000002     0.306506     0.715185
	   63 D(11,6,7,12)    =      0.406992     0.000002     0.255408     0.662400
	 ---------------------------------------------------------------------------
	Successfully symmetrized geometry.

  ==> Convergence Check <==

  Measures of convergence in internal coordinates in au.
  Criteria marked as inactive (o), active & met (*), and active & unmet ( ).
  ---------------------------------------------------------------------------------------------
   Step     Total Energy     Delta E     MAX Force     RMS Force      MAX Disp      RMS Disp   
  ---------------------------------------------------------------------------------------------
    Convergence Criteria             o    2.50e-03 *    1.70e-03 *    1.00e-02 *    6.70e-03 *
  ---------------------------------------------------------------------------------------------
      2    -286.67059070   -6.93e-03 o    4.21e-03      1.29e-03 *    2.55e-01      6.30e-02    ~
  ---------------------------------------------------------------------------------------------

	Writing optimization data to binary file.
	Structure for next step:
	Cartesian Geometry (in Angstrom)
	    N     2.3197435455   0.2891380386   0.1698417258
	    C     0.9328415669   0.1164717111   0.0652351220
	    C     0.3942291748  -1.1399280026  -0.2559173015
	    C     0.0605372045   1.1952476573   0.2851757626
	    C    -0.9881986805  -1.3174914307  -0.3279401425
	    C    -1.3189675896   1.0266255051   0.1630503068
	    C    -1.8475949945  -0.2331309846  -0.1312035795
	    H     1.0716426376  -1.9688814895  -0.4447280532
	    H     0.4784773663   2.1638622426   0.5499655259
	    H    -1.3926598668  -2.2973611232  -0.5686702360
	    H    -1.9823897092   1.8730318178   0.3279423387
	    H    -2.9225245638  -0.3669518445  -0.2064145970
	    H     2.7742227638   1.0793006645  -0.2459052956
	    H     2.8784651092  -0.3859370812   0.6532343677
			--------------------------
			 OPTKING Finished Execution 
			--------------------------

    Structure for next step:
    Molecular point group: c1
    Full point group: C1

    Geometry (in Angstrom), charge = 0, multiplicity = 1:

    N            2.317701621174     0.289995812348     0.169572600720
    C            0.930799637092     0.117329484142     0.064965996442
    C            0.392187242816    -1.139070234550    -0.256186428272
    C            0.058495271202     1.196105434608     0.284906637898
    C           -0.990240617899    -1.316633663277    -0.328209269536
    C           -1.321009528248     1.027483281732     0.162781181649
    C           -1.849636935263    -0.232273212931    -0.131472705773
    H            1.069600708302    -1.968023724677    -0.444997180695
    H            0.476435434667     2.164720023635     0.549696402316
    H           -1.394701805728    -2.296503359708    -0.568939364067
    H           -1.984431650447     1.873889597717     0.327673214175
    H           -2.924566508814    -0.366094073387    -0.206683723565
    H            2.772180841257     1.080158441317    -0.246174422367
    H            2.876423187035    -0.385079310122     0.652965244430

gradient() will perform analytic gradient computation.
    SCF Algorithm Type (re)set to DF.

*** tstart() called on daniele-Precision-5750
*** at Mon May 24 20:35:58 2021

   => Loading Basis Set <=

    Name: 6-31G*
    Role: ORBITAL
    Keyword: BASIS
    atoms 1    entry N          line   128 file /home/daniele/anaconda3/envs/poltype/share/psi4/basis/6-31gs.gbs 
    atoms 2-7  entry C          line   111 file /home/daniele/anaconda3/envs/poltype/share/psi4/basis/6-31gs.gbs 
    atoms 8-14 entry H          line    44 file /home/daniele/anaconda3/envs/poltype/share/psi4/basis/6-31gs.gbs 


         ---------------------------------------------------------
                                   SCF
               by Justin Turney, Rob Parrish, Andy Simmonett
                          and Daniel G. A. Smith
                              RHF Reference
                        8 Threads,    667 MiB Core
         ---------------------------------------------------------

  ==> Geometry <==

    Molecular point group: c1
    Full point group: C1

    Geometry (in Angstrom), charge = 0, multiplicity = 1:

       Center              X                  Y                   Z               Mass       
    ------------   -----------------  -----------------  -----------------  -----------------
         N            2.317701621174     0.289995812348     0.169572600720    14.003074004430
         C            0.930799637092     0.117329484142     0.064965996442    12.000000000000
         C            0.392187242816    -1.139070234550    -0.256186428272    12.000000000000
         C            0.058495271202     1.196105434608     0.284906637898    12.000000000000
         C           -0.990240617899    -1.316633663277    -0.328209269536    12.000000000000
         C           -1.321009528248     1.027483281732     0.162781181649    12.000000000000
         C           -1.849636935263    -0.232273212931    -0.131472705773    12.000000000000
         H            1.069600708302    -1.968023724677    -0.444997180695     1.007825032230
         H            0.476435434667     2.164720023635     0.549696402316     1.007825032230
         H           -1.394701805728    -2.296503359708    -0.568939364067     1.007825032230
         H           -1.984431650447     1.873889597717     0.327673214175     1.007825032230
         H           -2.924566508814    -0.366094073387    -0.206683723565     1.007825032230
         H            2.772180841257     1.080158441317    -0.246174422367     1.007825032230
         H            2.876423187035    -0.385079310122     0.652965244430     1.007825032230

  Running in c1 symmetry.

  Rotational constants: A =      0.18661  B =      0.08587  C =      0.05911 [cm^-1]
  Rotational constants: A =   5594.36739  B =   2574.31559  C =   1772.02796 [MHz]
  Nuclear repulsion =  270.626885173348967

  Charge       = 0
  Multiplicity = 1
  Electrons    = 50
  Nalpha       = 25
  Nbeta        = 25

  ==> Algorithm <==

  SCF Algorithm Type is DF.
  DIIS enabled.
  MOM disabled.
  Fractional occupation disabled.
  Guess Type is READ.
  Energy threshold   = 1.00e-10
  Density threshold  = 1.00e-10
  Integral threshold = 0.00e+00

  ==> Primary Basis <==

  Basis Set: 6-31G*
    Blend: 6-31G*
    Number of shells: 56
    Number of basis function: 119
    Number of Cartesian functions: 119
    Spherical Harmonics?: false
    Max angular momentum: 2

   => Loading Basis Set <=

    Name: (6-31G* AUX)
    Role: JKFIT
    Keyword: DF_BASIS_SCF
    atoms 1    entry N          line   171 file /home/daniele/anaconda3/envs/poltype/share/psi4/basis/cc-pvdz-jkfit.gbs 
    atoms 2-7  entry C          line   121 file /home/daniele/anaconda3/envs/poltype/share/psi4/basis/cc-pvdz-jkfit.gbs 
    atoms 8-14 entry H          line    51 file /home/daniele/anaconda3/envs/poltype/share/psi4/basis/cc-pvdz-jkfit.gbs 

   => Loading Basis Set <=

    Name: 6-31G*
    Role: ORBITAL
    Keyword: BASIS
    atoms 1    entry N          line   128 file /home/daniele/anaconda3/envs/poltype/share/psi4/basis/6-31gs.gbs 
    atoms 2-7  entry C          line   111 file /home/daniele/anaconda3/envs/poltype/share/psi4/basis/6-31gs.gbs 
    atoms 8-14 entry H          line    44 file /home/daniele/anaconda3/envs/poltype/share/psi4/basis/6-31gs.gbs 

  Reading orbitals from file 180, no projection.

  ==> Pre-Iterations <==

   -------------------------------------------------------
    Irrep   Nso     Nmo     Nalpha   Nbeta   Ndocc  Nsocc
   -------------------------------------------------------
     A        119     119       0       0       0       0
   -------------------------------------------------------
    Total     119     119      25      25      25       0
   -------------------------------------------------------

  ==> Integral Setup <==

  DFHelper Memory: AOs need 0.085 GiB; user supplied 0.489 GiB. Using in-core AOs.

  ==> MemDFJK: Density-Fitted J/K Matrices <==

    J tasked:                   Yes
    K tasked:                   Yes
    wK tasked:                   No
    OpenMP threads:               8
    Memory [MiB]:               500
    Algorithm:                 Core
    Schwarz Cutoff:           1E-12
    Mask sparsity (%):       1.4688
    Fitting Condition:        1E-10

   => Auxiliary Basis Set <=

  Basis Set: (6-31G* AUX)
    Blend: CC-PVDZ-JKFIT
    Number of shells: 231
    Number of basis function: 742
    Number of Cartesian functions: 742
    Spherical Harmonics?: false
    Max angular momentum: 3

  Minimum eigenvalue in the overlap matrix is 4.6835549162E-04.
  Using Symmetric Orthogonalization.

  SCF Guess: Orbitals guess was supplied from a previous computation.

  ==> Iterations <==

                           Total Energy        Delta E     RMS |[F,P]|

   @DF-RHF iter   0:  -285.71442661620097   -2.85714e+02   1.35833e-03 
   @DF-RHF iter   1:  -285.71864229489938   -4.21568e-03   2.95522e-04 DIIS
   @DF-RHF iter   2:  -285.72009062306529   -1.44833e-03   1.26537e-04 DIIS
   @DF-RHF iter   3:  -285.72044906982893   -3.58447e-04   5.28615e-05 DIIS
   @DF-RHF iter   4:  -285.72050040232483   -5.13325e-05   1.89408e-05 DIIS
   @DF-RHF iter   5:  -285.72050945364958   -9.05132e-06   7.94905e-06 DIIS
   @DF-RHF iter   6:  -285.72051111442806   -1.66078e-06   3.28303e-06 DIIS
   @DF-RHF iter   7:  -285.72051156194578   -4.47518e-07   1.37392e-06 DIIS
   @DF-RHF iter   8:  -285.72051163334595   -7.14002e-08   4.99440e-07 DIIS
   @DF-RHF iter   9:  -285.72051164082364   -7.47769e-09   1.36218e-07 DIIS
   @DF-RHF iter  10:  -285.72051164122990   -4.06260e-10   3.20240e-08 DIIS
   @DF-RHF iter  11:  -285.72051164124861   -1.87015e-11   1.35396e-08 DIIS
   @DF-RHF iter  12:  -285.72051164125048   -1.87583e-12   4.08449e-09 DIIS
   @DF-RHF iter  13:  -285.72051164125082   -3.41061e-13   1.18614e-09 DIIS
   @DF-RHF iter  14:  -285.72051164125054    2.84217e-13   4.18815e-10 DIIS
   @DF-RHF iter  15:  -285.72051164125037    1.70530e-13   1.47764e-10 DIIS
   @DF-RHF iter  16:  -285.72051164125111   -7.38964e-13   6.59315e-11 DIIS
  Energy and wave function converged.


  ==> Post-Iterations <==

    Orbital Energies [Eh]
    ---------------------

    Doubly Occupied:                                                      

       1A    -15.548024     2A    -11.269867     3A    -11.230609  
       4A    -11.230552     5A    -11.220916     6A    -11.220858  
       7A    -11.220529     8A     -1.201688     9A     -1.114454  
      10A     -1.002207    11A     -0.976109    12A     -0.819369  
      13A     -0.803715    14A     -0.696222    15A     -0.681537  
      16A     -0.647215    17A     -0.604636    18A     -0.589094  
      19A     -0.574663    20A     -0.500145    21A     -0.499548  
      22A     -0.483256    23A     -0.412421    24A     -0.325936  
      25A     -0.291961  

    Virtual:                                                              

[...]
         H            0.461586196368     2.210533732193     0.339562340970     1.007825032230
         H           -1.372369969171    -2.325368193778    -0.460389360907     1.007825032230
         H           -1.966711239250     1.906293609548     0.005156390365     1.007825032230
         H           -2.906351878181    -0.364393238421    -0.399653344783     1.007825032230
         H            2.645596171363     1.200819366816     0.123250120489     1.007825032230
         H            2.874694734929    -0.434481774905    -0.054064757367     1.007825032230

  Nuclear repulsion =  271.230559348935969
  Reference energy  = -285.728788066376239

  ==> Basis Set <==

  Basis Set: 6-31G*
    Blend: 6-31G*
    Number of shells: 56
    Number of basis function: 119
    Number of Cartesian functions: 119
    Spherical Harmonics?: false
    Max angular momentum: 2

  ==> CGRSolver (by Rob Parrish) <==

   Number of roots    =         1
   Preconditioning    =    JACOBI
   Convergence cutoff =     1E-06
   Maximum iterations =       100

  ==> CPHFRHamiltonian (by Rob Parrish) <== 

  ==> MemDFJK: Density-Fitted J/K Matrices <==

    J tasked:                   Yes
    K tasked:                   Yes
    wK tasked:                   No
    OpenMP threads:               8
    Memory [MiB]:               500
    Algorithm:                 Core
    Schwarz Cutoff:           1E-12
    Mask sparsity (%):       1.4265
    Fitting Condition:        1E-10

   => Auxiliary Basis Set <=

  Basis Set: (6-31G* AUX)
    Blend: CC-PVDZ-JKFIT
    Number of shells: 231
    Number of basis function: 742
    Number of Cartesian functions: 742
    Spherical Harmonics?: false
    Max angular momentum: 3

  ==> CPHF Iterations <==

  => Iterations <=

             Iter  Converged  Remaining    Residual
  CGR           1          0          1   9.865E-02
  CGR           2          0          1   2.821E-02
  CGR           3          0          1   1.795E-02
  CGR           4          0          1   6.324E-03
  CGR           5          0          1   2.343E-03
  CGR           6          0          1   9.103E-04
  CGR           7          0          1   2.475E-04
  CGR           8          0          1   5.755E-05
  CGR           9          0          1   1.755E-05
  CGR          10          0          1   5.546E-06
  CGR          11          0          1   1.430E-06
  CGR          12          1          0   3.666E-07

    CGRSolver converged.

  ==> DFCorrGrad: Density-Fitted Correlated Gradients <==

    OpenMP threads:              8
    Integrals threads:           8
    Memory [GiB]:            0.489
    Schwarz Cutoff:          0E+00
    Fitting Condition:       1E-10

   => Auxiliary Basis Set <=

  Basis Set: (6-31G* AUX)
    Blend: CC-PVDZ-JKFIT
    Number of shells: 231
    Number of basis function: 742
    Number of Cartesian functions: 742
    Spherical Harmonics?: false
    Max angular momentum: 3

	-----------------------------------------------------------
	 ==================> DF-MP2 Energies <==================== 
	-----------------------------------------------------------
	 Reference Energy          =    -285.7287880663762394 [Eh]
	 Singles Energy            =      -0.0000000000000000 [Eh]
	 Same-Spin Energy          =      -0.2523596506324775 [Eh]
	 Opposite-Spin Energy      =      -0.7013799524672280 [Eh]
	 Correlation Energy        =      -0.9537396030997054 [Eh]
	 Total Energy              =    -286.6825276694759168 [Eh]
	-----------------------------------------------------------
	 ================> DF-SCS-MP2 Energies <================== 
	-----------------------------------------------------------
	 SCS Same-Spin Scale       =       0.3333333333333333 [-]
	 SCS Opposite-Spin Scale   =       1.2000000000000000 [-]
	 SCS Same-Spin Energy      =      -0.0841198835441591 [Eh]
	 SCS Opposite-Spin Energy  =      -0.8416559429606735 [Eh]
	 SCS Correlation Energy    =      -0.9257758265048326 [Eh]
	 SCS Total Energy          =    -286.6545638928810718 [Eh]
	-----------------------------------------------------------


  -Total Gradient:
     Atom            X                  Y                   Z
    ------   -----------------  -----------------  -----------------
       1        0.000067700962     0.000131262651     0.000014927401
       2        0.000073950232     0.000035038382     0.000002682883
       3       -0.000032630385    -0.000007312971     0.000012947299
       4       -0.000064063894     0.000014759186    -0.000029742190
       5       -0.000019161698     0.000107218761    -0.000024958389
       6        0.000013053354     0.000013857206     0.000014140318
       7       -0.000046299341    -0.000051134356    -0.000018174346
       8        0.000006253930    -0.000028043006     0.000010479214
       9       -0.000006347093    -0.000001240241     0.000001286979
      10       -0.000006672131    -0.000031830187    -0.000011334760
      11        0.000045115360    -0.000040218827     0.000007403430
      12        0.000080517867     0.000001215075     0.000024772390
      13       -0.000083295661    -0.000067807270     0.000018545859
      14       -0.000028121502    -0.000075764404    -0.000022976088


*** tstop() called on daniele-Precision-5750 at Mon May 24 20:38:18 2021
Module time:
	user time   =      22.52 seconds =       0.38 minutes
	system time =       0.51 seconds =       0.01 minutes
	total time  =          3 seconds =       0.05 minutes
Total time:
	user time   =    1118.26 seconds =      18.64 minutes
	system time =      24.28 seconds =       0.40 minutes
	total time  =        149 seconds =       2.48 minutes

			-----------------------------------------
			 OPTKING 2.0: for geometry optimizations 
			  - R.A. King,  Bethel University        
			-----------------------------------------
	At level 4: XYZ, RFO, backsteps, larger trust.

	Previous internal coordinate definitions found.
	---Fragment 1 Geometry and Gradient---
	 N           4.3430778073        0.5319960320        0.7109116684
	 C           1.7527475368        0.2223571070        0.2175556695
	 C           0.7403844545       -2.1897985588       -0.1869127319
	 C           0.1103169227        2.2964086143        0.3051467577
	 C          -1.8470503315       -2.5074577138       -0.5460498814
	 C          -2.4754300583        1.9663034741       -0.0540840463
	 C          -3.4747509355       -0.4359715100       -0.4746501731
	 H           1.9952817231       -3.8191578518       -0.2354961570
	 H           0.8722714944        4.1773033449        0.6416798270
	 H          -2.5934033845       -4.3943090271       -0.8700098032
	 H          -3.7165456100        3.6023728368        0.0097441656
	 H          -5.4922090740       -0.6886034226       -0.7552353668
	 H           4.9994522024        2.2692197294        0.2329089727
	 H           5.4323857433       -0.8210515611       -0.1021675845
	             0.0000677010        0.0001312627        0.0000149274
	             0.0000739502        0.0000350384        0.0000026829
	            -0.0000326304       -0.0000073130        0.0000129473
	            -0.0000640639        0.0000147592       -0.0000297422
	            -0.0000191617        0.0001072188       -0.0000249584
	             0.0000130534        0.0000138572        0.0000141403
	            -0.0000462993       -0.0000511344       -0.0000181743
	             0.0000062539       -0.0000280430        0.0000104792
	            -0.0000063471       -0.0000012402        0.0000012870
	            -0.0000066721       -0.0000318302       -0.0000113348
	             0.0000451154       -0.0000402188        0.0000074034
	             0.0000805179        0.0000012151        0.0000247724
	            -0.0000832957       -0.0000678073        0.0000185459
	            -0.0000281215       -0.0000757644       -0.0000229761

	---Fragment 1 Intrafragment Coordinates---
	 - Coordinate -           - BOHR/RAD -       - ANG/DEG -
	 R(1,X)           =         4.343078	       2.298258
	 R(1,Y)           =         0.531996	       0.281520
	 R(1,Z)           =         0.710912	       0.376198
	 R(2,X)           =         1.752748	       0.927514
	 R(2,Y)           =         0.222357	       0.117666
	 R(2,Z)           =         0.217556	       0.115126
	 R(3,X)           =         0.740384	       0.391795
	 R(3,Y)           =        -2.189799	      -1.158791
	 R(3,Z)           =        -0.186913	      -0.098910
	 R(4,X)           =         0.110317	       0.058377
	 R(4,Y)           =         2.296409	       1.215207
	 R(4,Z)           =         0.305147	       0.161477
	 R(5,X)           =        -1.847050	      -0.977417
	 R(5,Y)           =        -2.507458	      -1.326889
	 R(5,Z)           =        -0.546050	      -0.288957
	 R(6,X)           =        -2.475430	      -1.309941
	 R(6,Y)           =         1.966303	       1.040523
	 R(6,Z)           =        -0.054084	      -0.028620
	 R(7,X)           =        -3.474751	      -1.838759
	 R(7,Y)           =        -0.435972	      -0.230706
	 R(7,Z)           =        -0.474650	      -0.251174
	 R(8,X)           =         1.995282	       1.055858
	 R(8,Y)           =        -3.819158	      -2.021011
	 R(8,Z)           =        -0.235496	      -0.124619
	 R(9,X)           =         0.872271	       0.461586
	 R(9,Y)           =         4.177303	       2.210534
	 R(9,Z)           =         0.641680	       0.339562
	 R(10,X)          =        -2.593403	      -1.372370
	 R(10,Y)          =        -4.394309	      -2.325368
	 R(10,Z)          =        -0.870010	      -0.460389
	 R(11,X)          =        -3.716546	      -1.966711
	 R(11,Y)          =         3.602373	       1.906294
	 R(11,Z)          =         0.009744	       0.005156
	 R(12,X)          =        -5.492209	      -2.906352
	 R(12,Y)          =        -0.688603	      -0.364393
	 R(12,Z)          =        -0.755235	      -0.399653
	 R(13,X)          =         4.999452	       2.645596
	 R(13,Y)          =         2.269220	       1.200819
	 R(13,Z)          =         0.232909	       0.123250
	 R(14,X)          =         5.432386	       2.874695
	 R(14,Y)          =        -0.821052	      -0.434482
	 R(14,Z)          =        -0.102168	      -0.054065

	Current energy   :      -286.6825276695

	Energy change for the previous step:
		Projected    :        -0.0000335576
		Actual       :        -0.0000011343

	Performing BFGS update.
	Previous computed or guess Hessian on step 1.
	Steps to be used in Hessian update: 13 12
	Taking RFO optimization step.
	Going to follow RFO solution 1.
	Using RFO vector 1.
	Norm of target step-size    0.02723
	Projected energy change by RFO approximation:         0.0000132675

	Back-transformation to cartesian coordinates...
	Successfully converged to displaced geometry.

	--- Internal Coordinate Step in ANG or DEG, aJ/ANG or AJ/DEG ---
	 ---------------------------------------------------------------------------
	   Coordinate                Previous        Force       Change         New 
	   ----------                --------       ------       ------       ------
	    1 R(1,X)          =      2.298258    -0.000558    -0.000404     2.297853
	    2 R(1,Y)          =      0.281520    -0.001081     0.003709     0.285229
	    3 R(1,Z)          =      0.376198    -0.000123    -0.000647     0.375551
	    4 R(2,X)          =      0.927514    -0.000609    -0.000186     0.927328
	    5 R(2,Y)          =      0.117666    -0.000289     0.001407     0.119073
	    6 R(2,Z)          =      0.115126    -0.000022    -0.000226     0.114899
	    7 R(3,X)          =      0.391795     0.000269     0.001729     0.393523
	    8 R(3,Y)          =     -1.158791     0.000060     0.000380    -1.158412
	    9 R(3,Z)          =     -0.098910    -0.000107     0.001166    -0.097744
	   10 R(4,X)          =      0.058377     0.000528    -0.001791     0.056586
	   11 R(4,Y)          =      1.215207    -0.000122     0.000156     1.215363
	   12 R(4,Z)          =      0.161477     0.000245    -0.001174     0.160303
	   13 R(5,X)          =     -0.977417     0.000158     0.001914    -0.975503
	   14 R(5,Y)          =     -1.326889    -0.000883    -0.001962    -1.328851
	   15 R(5,Z)          =     -0.288957     0.000206     0.001920    -0.287038
	   16 R(6,X)          =     -1.309941    -0.000108    -0.001583    -1.311524
	   17 R(6,Y)          =      1.040523    -0.000114    -0.001973     1.038550
	   18 R(6,Z)          =     -0.028620    -0.000116    -0.001253    -0.029873
	   19 R(7,X)          =     -1.838759     0.000381     0.000286    -1.838473
	   20 R(7,Y)          =     -0.230706     0.000421    -0.003033    -0.233739
	   21 R(7,Z)          =     -0.251174     0.000150     0.000286    -0.250888
	   22 R(8,X)          =      1.055858    -0.000052     0.003103     1.058961
	   23 R(8,Y)          =     -2.021011     0.000231     0.001442    -2.019570
	   24 R(8,Z)          =     -0.124619    -0.000086     0.001791    -0.122828
	   25 R(9,X)          =      0.461586     0.000052    -0.003205     0.458381
	   26 R(9,Y)          =      2.210534     0.000010     0.000913     2.211447
	   27 R(9,Z)          =      0.339562    -0.000011    -0.002157     0.337406
	   28 R(10,X)         =     -1.372370     0.000055     0.003362    -1.369008
	   29 R(10,Y)         =     -2.325368     0.000262    -0.002757    -2.328125
	   30 R(10,Z)         =     -0.460389     0.000093     0.003467    -0.456923
	   31 R(11,X)         =     -1.966711    -0.000372    -0.002922    -1.969633
	   32 R(11,Y)         =      1.906294     0.000331    -0.002832     1.903461
	   33 R(11,Z)         =      0.005156    -0.000061    -0.002432     0.002724
	   34 R(12,X)         =     -2.906352    -0.000663     0.000391    -2.905961
	   35 R(12,Y)         =     -0.364393    -0.000010    -0.004691    -0.369084
	   36 R(12,Z)         =     -0.399653    -0.000204     0.000085    -0.399568
	   37 R(13,X)         =      2.645596     0.000686    -0.001767     2.643829
	   38 R(13,Y)         =      1.200819     0.000559     0.004434     1.205254
	   39 R(13,Z)         =      0.123250    -0.000153    -0.000364     0.122886
	   40 R(14,X)         =      2.874695     0.000232     0.001075     2.875770
	   41 R(14,Y)         =     -0.434482     0.000624     0.004806    -0.429676
	   42 R(14,Z)         =     -0.054065     0.000189    -0.000461    -0.054526
	 ---------------------------------------------------------------------------
	Successfully symmetrized geometry.

  ==> Convergence Check <==

  Measures of convergence in internal coordinates in au.
  Criteria marked as inactive (o), active & met (*), and active & unmet ( ).
  ---------------------------------------------------------------------------------------------
   Step     Total Energy     Delta E     MAX Force     RMS Force      MAX Disp      RMS Disp   
  ---------------------------------------------------------------------------------------------
    Convergence Criteria             o    2.50e-03 *    1.70e-03 *    1.00e-02 *    6.70e-03 *
  ---------------------------------------------------------------------------------------------
     14    -286.68252767   -1.13e-06 o    1.31e-04 *    4.51e-05 *    9.08e-03 *    4.20e-03 *  ~
  ---------------------------------------------------------------------------------------------


  **** Optimization is complete! (in 14 steps) ****

  ==> Optimization Summary <==

  Measures of convergence in internal coordinates in au.
  --------------------------------------------------------------------------------------------------------------- ~
   Step         Total Energy             Delta E       MAX Force       RMS Force        MAX Disp        RMS Disp  ~
  --------------------------------------------------------------------------------------------------------------- ~
      1    -286.679716898509   -286.679716898509      0.01445789      0.00435106      0.13299029      0.03676086  ~
      2    -286.681424060331     -0.001707161822      0.00620636      0.00193398      0.14050126      0.04404632  ~
      3    -286.681915592377     -0.000491532046      0.02451285      0.00490870      0.19716720      0.04629101  ~
      4    -286.682194112704     -0.000278520327      0.00487179      0.00157936      0.15691729      0.04591424  ~
      5    -286.682325462162     -0.000131349458      0.01175248      0.00260761      0.13267938      0.04629101  ~
      6    -286.682449318799     -0.000123856636      0.00289571      0.00091469      0.15710354      0.04629101  ~
      7    -286.682451346054     -0.000002027255      0.00412088      0.00114295      0.15931536      0.04629102  ~
      8    -286.682495438763     -0.000044092709      0.00165870      0.00052171      0.01986809      0.00738785  ~
      9    -286.682515292929     -0.000019854166      0.00066920      0.00023035      0.03637977      0.01356691  ~
     10    -286.682517534262     -0.000002241334      0.00080194      0.00024999      0.07334486      0.02314552  ~
     11    -286.682522046395     -0.000004512133      0.00058695      0.00020465      0.01881682      0.00669756  ~
     12    -286.682524839643     -0.000002793247      0.00030682      0.00012636      0.03943517      0.01773257  ~
     13    -286.682526535151     -0.000001695509      0.00037903      0.00016041      0.01488676      0.00792025  ~
     14    -286.682527669476     -0.000001134325      0.00013126      0.00004506      0.00908159      0.00420187  ~
  --------------------------------------------------------------------------------------------------------------- ~

	Writing optimization data to binary file.
	Final energy is   -286.6825276694759
	Final (previous) structure:
	Cartesian Geometry (in Angstrom)
	    N     2.2982577908   0.2815201752   0.3761982522
	    C     0.9275140489   0.1176663132   0.1151255019
	    C     0.3917945789  -1.1587914887  -0.0989099577
	    C     0.0583772012   1.2152071003   0.1614767095
	    C    -0.9774169385  -1.3268894736  -0.2889571520
	    C    -1.3099411683   1.0405229837  -0.0286200446
	    C    -1.8387590006  -0.2307061867  -0.2511740537
	    H     1.0558576126  -2.0210112912  -0.1246191990
	    H     0.4615861946   2.2105337235   0.3395623396
	    H    -1.3723699638  -2.3253681846  -0.4603893591
	    H    -1.9667112315   1.9062936021   0.0051563903
	    H    -2.9063518668  -0.3643932370  -0.3996533432
	    H     2.6455961610   1.2008193621   0.1232501200
	    H     2.8746947236  -0.4344817732  -0.0540647572
	Saving final (previous) structure.
			--------------------------
			 OPTKING Finished Execution 
			--------------------------

    Final optimized geometry and variables:
    Molecular point group: c1
    Full point group: C1

    Geometry (in Angstrom), charge = 0, multiplicity = 1:

    N            2.298257799814     0.281520176280     0.376198253703
    C            0.927514052508     0.117666313672     0.115125502370
    C            0.391794580472    -1.158791493254    -0.098909958106
    C            0.058377201436     1.215207105055     0.161476710100
    C           -0.977416942380    -1.326889478859    -0.288957153137
    C           -1.309941173436     1.040522987744    -0.028620044744
    C           -1.838759007819    -0.230706187612    -0.251174054646
    H            1.055857616710    -2.021011299147    -0.124619199484
    H            0.461586196368     2.210533732193     0.339562340970
    H           -1.372369969171    -2.325368193778    -0.460389360907
    H           -1.966711239250     1.906293609548     0.005156390365
    H           -2.906351878181    -0.364393238421    -0.399653344783
    H            2.645596171363     1.200819366816     0.123250120489
    H            2.874694734929    -0.434481774905    -0.054064757367

	Removing binary optimization data file.
	Cleaning optimization helper files.

    Psi4 stopped on: Monday, 24 May 2021 08:38PM
    Psi4 wall time for execution: 0:02:28.42

*** Psi4 exiting successfully. Buy a developer a beer!
