Generated by Psi4
        SP                        DF-MP2                      6-311G**
Number of atoms                            I               14
Charge                                     I                0
Multiplicity                               I                1
Number of electrons                        I               50
Number of alpha electrons                  I               25
Number of beta electrons                   I               25
Number of basis functions                  I              168
Number of independent functions            I              168
Atomic numbers                             I   N=          14
           7           6           6           6           6           6
           6           1           1           1           1           1
           1           1
Nuclear charges                            R   N=          14
  7.00000000e+00  6.00000000e+00  6.00000000e+00  6.00000000e+00  6.00000000e+00
  6.00000000e+00  6.00000000e+00  1.00000000e+00  1.00000000e+00  1.00000000e+00
  1.00000000e+00  1.00000000e+00  1.00000000e+00  1.00000000e+00
Current cartesian coordinates              R   N=          42
  4.34307781e+00  5.31996032e-01  7.10911668e-01  1.75274754e+00  2.22357107e-01
  2.17555670e-01  7.40384455e-01 -2.18979856e+00 -1.86912732e-01  1.10316923e-01
  2.29640861e+00  3.05146758e-01 -1.84705033e+00 -2.50745771e+00 -5.46049881e-01
 -2.47543006e+00  1.96630347e+00 -5.40840463e-02 -3.47475094e+00 -4.35971510e-01
 -4.74650173e-01  1.99528172e+00 -3.81915785e+00 -2.35496157e-01  8.72271494e-01
  4.17730334e+00  6.41679827e-01 -2.59340338e+00 -4.39430903e+00 -8.70009803e-01
 -3.71654561e+00  3.60237284e+00  9.74416559e-03 -5.49220907e+00 -6.88603423e-01
 -7.55235367e-01  4.99945220e+00  2.26921973e+00  2.32908973e-01  5.43238574e+00
 -8.21051561e-01 -1.02167584e-01
Integer atomic weights                     I   N=          14
          14          12          12          12          12          12
          12           1           1           1           1           1
           1           1
Real atomic weights                        R   N=          14
  1.40030740e+01  1.20000000e+01  1.20000000e+01  1.20000000e+01  1.20000000e+01
  1.20000000e+01  1.20000000e+01  1.00782503e+00  1.00782503e+00  1.00782503e+00
  1.00782503e+00  1.00782503e+00  1.00782503e+00  1.00782503e+00
Number of primitive shells                 I              161
Number of contracted shells                I               84
Pure/Cartesian d shells                    I                0
Pure/Cartesian f shells                    I                0
Highest angular momentum                   I                2
Largest degree of contraction              I                6
Shell types                                I   N=          84
           0           0           1           0           1           0
           1          -2           0           0           1           0
           1           0           1          -2           0           0
           1           0           1           0           1          -2
           0           0           1           0           1           0
           1          -2           0           0           1           0
           1           0           1          -2           0           0
           1           0           1           0           1          -2
           0           0           1           0           1           0
           1          -2           0           0           0           1
           0           0           0           1           0           0
           0           1           0           0           0           1
           0           0           0           1           0           0
           0           1           0           0           0           1
Number of primitives per shell             I   N=          84
           6           3           3           1           1           1
           1           1           6           3           3           1
           1           1           1           1           6           3
           3           1           1           1           1           1
           6           3           3           1           1           1
           1           1           6           3           3           1
           1           1           1           1           6           3
           3           1           1           1           1           1
           6           3           3           1           1           1
           1           1           3           1           1           1
           3           1           1           1           3           1
           1           1           3           1           1           1
           3           1           1           1           3           1
           1           1           3           1           1           1
Shell to atom map                          I   N=          84
           1           1           1           1           1           1
           1           1           2           2           2           2
           2           2           2           2           3           3
           3           3           3           3           3           3
           4           4           4           4           4           4
           4           4           5           5           5           5
           5           5           5           5           6           6
           6           6           6           6           6           6
           7           7           7           7           7           7
           7           7           8           8           8           8
           9           9           9           9          10          10
          10          10          11          11          11          11
          12          12          12          12          13          13
          13          13          14          14          14          14
Primitive exponents                        R   N=         161
  6.29348000e+03  9.49044000e+02  2.18776000e+02  6.36916000e+01  1.88282000e+01
  2.72023000e+00  3.06331000e+01  7.02614000e+00  2.11205000e+00  3.06331000e+01
  7.02614000e+00  2.11205000e+00  6.84009000e-01  6.84009000e-01  2.00878000e-01
  2.00878000e-01  9.13000000e-01  4.56324000e+03  6.82024000e+02  1.54973000e+02
  4.44553000e+01  1.30290000e+01  1.82773000e+00  2.09642000e+01  4.80331000e+00
  1.45933000e+00  2.09642000e+01  4.80331000e+00  1.45933000e+00  4.83456000e-01
  4.83456000e-01  1.45585000e-01  1.45585000e-01  6.26000000e-01  4.56324000e+03
  6.82024000e+02  1.54973000e+02  4.44553000e+01  1.30290000e+01  1.82773000e+00
  2.09642000e+01  4.80331000e+00  1.45933000e+00  2.09642000e+01  4.80331000e+00
  1.45933000e+00  4.83456000e-01  4.83456000e-01  1.45585000e-01  1.45585000e-01
  6.26000000e-01  4.56324000e+03  6.82024000e+02  1.54973000e+02  4.44553000e+01
  1.30290000e+01  1.82773000e+00  2.09642000e+01  4.80331000e+00  1.45933000e+00
  2.09642000e+01  4.80331000e+00  1.45933000e+00  4.83456000e-01  4.83456000e-01
  1.45585000e-01  1.45585000e-01  6.26000000e-01  4.56324000e+03  6.82024000e+02
  1.54973000e+02  4.44553000e+01  1.30290000e+01  1.82773000e+00  2.09642000e+01
  4.80331000e+00  1.45933000e+00  2.09642000e+01  4.80331000e+00  1.45933000e+00
  4.83456000e-01  4.83456000e-01  1.45585000e-01  1.45585000e-01  6.26000000e-01
  4.56324000e+03  6.82024000e+02  1.54973000e+02  4.44553000e+01  1.30290000e+01
  1.82773000e+00  2.09642000e+01  4.80331000e+00  1.45933000e+00  2.09642000e+01
  4.80331000e+00  1.45933000e+00  4.83456000e-01  4.83456000e-01  1.45585000e-01
  1.45585000e-01  6.26000000e-01  4.56324000e+03  6.82024000e+02  1.54973000e+02
  4.44553000e+01  1.30290000e+01  1.82773000e+00  2.09642000e+01  4.80331000e+00
  1.45933000e+00  2.09642000e+01  4.80331000e+00  1.45933000e+00  4.83456000e-01
  4.83456000e-01  1.45585000e-01  1.45585000e-01  6.26000000e-01  3.38650000e+01
  5.09479000e+00  1.15879000e+00  3.25840000e-01  1.02741000e-01  7.50000000e-01
  3.38650000e+01  5.09479000e+00  1.15879000e+00  3.25840000e-01  1.02741000e-01
  7.50000000e-01  3.38650000e+01  5.09479000e+00  1.15879000e+00  3.25840000e-01
  1.02741000e-01  7.50000000e-01  3.38650000e+01  5.09479000e+00  1.15879000e+00
  3.25840000e-01  1.02741000e-01  7.50000000e-01  3.38650000e+01  5.09479000e+00
  1.15879000e+00  3.25840000e-01  1.02741000e-01  7.50000000e-01  3.38650000e+01
  5.09479000e+00  1.15879000e+00  3.25840000e-01  1.02741000e-01  7.50000000e-01
  3.38650000e+01  5.09479000e+00  1.15879000e+00  3.25840000e-01  1.02741000e-01
  7.50000000e-01
Contraction coefficients                   R   N=         161
  1.96978815e-03  1.49612859e-02  7.35005308e-02  2.48936766e-01  6.02459433e-01
  2.56201759e-01  1.11906080e-01  9.21666655e-01 -2.56919183e-03  3.83119186e-02
  2.37403116e-01  8.17592398e-01  1.00000000e+00  1.00000000e+00  1.00000000e+00
  1.00000000e+00  1.00000000e+00  1.96665025e-03  1.52306019e-02  7.61269097e-02
  2.60801033e-01  6.16462078e-01  2.21006028e-01  1.14660081e-01  9.19999648e-01
 -3.03068213e-03  4.02486927e-02  2.37593957e-01  8.15853851e-01  1.00000000e+00
  1.00000000e+00  1.00000000e+00  1.00000000e+00  1.00000000e+00  1.96665025e-03
  1.52306019e-02  7.61269097e-02  2.60801033e-01  6.16462078e-01  2.21006028e-01
  1.14660081e-01  9.19999648e-01 -3.03068213e-03  4.02486927e-02  2.37593957e-01
  8.15853851e-01  1.00000000e+00  1.00000000e+00  1.00000000e+00  1.00000000e+00
  1.00000000e+00  1.96665025e-03  1.52306019e-02  7.61269097e-02  2.60801033e-01
  6.16462078e-01  2.21006028e-01  1.14660081e-01  9.19999648e-01 -3.03068213e-03
  4.02486927e-02  2.37593957e-01  8.15853851e-01  1.00000000e+00  1.00000000e+00
  1.00000000e+00  1.00000000e+00  1.00000000e+00  1.96665025e-03  1.52306019e-02
  7.61269097e-02  2.60801033e-01  6.16462078e-01  2.21006028e-01  1.14660081e-01
  9.19999648e-01 -3.03068213e-03  4.02486927e-02  2.37593957e-01  8.15853851e-01
  1.00000000e+00  1.00000000e+00  1.00000000e+00  1.00000000e+00  1.00000000e+00
  1.96665025e-03  1.52306019e-02  7.61269097e-02  2.60801033e-01  6.16462078e-01
  2.21006028e-01  1.14660081e-01  9.19999648e-01 -3.03068213e-03  4.02486927e-02
  2.37593957e-01  8.15853851e-01  1.00000000e+00  1.00000000e+00  1.00000000e+00
  1.00000000e+00  1.00000000e+00  1.96665025e-03  1.52306019e-02  7.61269097e-02
  2.60801033e-01  6.16462078e-01  2.21006028e-01  1.14660081e-01  9.19999648e-01
 -3.03068213e-03  4.02486927e-02  2.37593957e-01  8.15853851e-01  1.00000000e+00
  1.00000000e+00  1.00000000e+00  1.00000000e+00  1.00000000e+00  2.54938145e-02
  1.90373109e-01  8.52161486e-01  1.00000000e+00  1.00000000e+00  1.00000000e+00
  2.54938145e-02  1.90373109e-01  8.52161486e-01  1.00000000e+00  1.00000000e+00
  1.00000000e+00  2.54938145e-02  1.90373109e-01  8.52161486e-01  1.00000000e+00
  1.00000000e+00  1.00000000e+00  2.54938145e-02  1.90373109e-01  8.52161486e-01
  1.00000000e+00  1.00000000e+00  1.00000000e+00  2.54938145e-02  1.90373109e-01
  8.52161486e-01  1.00000000e+00  1.00000000e+00  1.00000000e+00  2.54938145e-02
  1.90373109e-01  8.52161486e-01  1.00000000e+00  1.00000000e+00  1.00000000e+00
  2.54938145e-02  1.90373109e-01  8.52161486e-01  1.00000000e+00  1.00000000e+00
  1.00000000e+00
Coordinates of each shell                  R   N=         252
  4.34307781e+00  5.31996032e-01  7.10911668e-01  4.34307781e+00  5.31996032e-01
  7.10911668e-01  4.34307781e+00  5.31996032e-01  7.10911668e-01  4.34307781e+00
  5.31996032e-01  7.10911668e-01  4.34307781e+00  5.31996032e-01  7.10911668e-01
  4.34307781e+00  5.31996032e-01  7.10911668e-01  4.34307781e+00  5.31996032e-01
  7.10911668e-01  4.34307781e+00  5.31996032e-01  7.10911668e-01  1.75274754e+00
  2.22357107e-01  2.17555670e-01  1.75274754e+00  2.22357107e-01  2.17555670e-01
  1.75274754e+00  2.22357107e-01  2.17555670e-01  1.75274754e+00  2.22357107e-01
  2.17555670e-01  1.75274754e+00  2.22357107e-01  2.17555670e-01  1.75274754e+00
  2.22357107e-01  2.17555670e-01  1.75274754e+00  2.22357107e-01  2.17555670e-01
  1.75274754e+00  2.22357107e-01  2.17555670e-01  7.40384455e-01 -2.18979856e+00
 -1.86912732e-01  7.40384455e-01 -2.18979856e+00 -1.86912732e-01  7.40384455e-01
 -2.18979856e+00 -1.86912732e-01  7.40384455e-01 -2.18979856e+00 -1.86912732e-01
  7.40384455e-01 -2.18979856e+00 -1.86912732e-01  7.40384455e-01 -2.18979856e+00
 -1.86912732e-01  7.40384455e-01 -2.18979856e+00 -1.86912732e-01  7.40384455e-01
 -2.18979856e+00 -1.86912732e-01  1.10316923e-01  2.29640861e+00  3.05146758e-01
  1.10316923e-01  2.29640861e+00  3.05146758e-01  1.10316923e-01  2.29640861e+00
  3.05146758e-01  1.10316923e-01  2.29640861e+00  3.05146758e-01  1.10316923e-01
  2.29640861e+00  3.05146758e-01  1.10316923e-01  2.29640861e+00  3.05146758e-01
  1.10316923e-01  2.29640861e+00  3.05146758e-01  1.10316923e-01  2.29640861e+00
  3.05146758e-01 -1.84705033e+00 -2.50745771e+00 -5.46049881e-01 -1.84705033e+00
 -2.50745771e+00 -5.46049881e-01 -1.84705033e+00 -2.50745771e+00 -5.46049881e-01
 -1.84705033e+00 -2.50745771e+00 -5.46049881e-01 -1.84705033e+00 -2.50745771e+00
 -5.46049881e-01 -1.84705033e+00 -2.50745771e+00 -5.46049881e-01 -1.84705033e+00
 -2.50745771e+00 -5.46049881e-01 -1.84705033e+00 -2.50745771e+00 -5.46049881e-01
 -2.47543006e+00  1.96630347e+00 -5.40840463e-02 -2.47543006e+00  1.96630347e+00
 -5.40840463e-02 -2.47543006e+00  1.96630347e+00 -5.40840463e-02 -2.47543006e+00
  1.96630347e+00 -5.40840463e-02 -2.47543006e+00  1.96630347e+00 -5.40840463e-02
 -2.47543006e+00  1.96630347e+00 -5.40840463e-02 -2.47543006e+00  1.96630347e+00
 -5.40840463e-02 -2.47543006e+00  1.96630347e+00 -5.40840463e-02 -3.47475094e+00
 -4.35971510e-01 -4.74650173e-01 -3.47475094e+00 -4.35971510e-01 -4.74650173e-01
 -3.47475094e+00 -4.35971510e-01 -4.74650173e-01 -3.47475094e+00 -4.35971510e-01
 -4.74650173e-01 -3.47475094e+00 -4.35971510e-01 -4.74650173e-01 -3.47475094e+00
 -4.35971510e-01 -4.74650173e-01 -3.47475094e+00 -4.35971510e-01 -4.74650173e-01
 -3.47475094e+00 -4.35971510e-01 -4.74650173e-01  1.99528172e+00 -3.81915785e+00
 -2.35496157e-01  1.99528172e+00 -3.81915785e+00 -2.35496157e-01  1.99528172e+00
 -3.81915785e+00 -2.35496157e-01  1.99528172e+00 -3.81915785e+00 -2.35496157e-01
  8.72271494e-01  4.17730334e+00  6.41679827e-01  8.72271494e-01  4.17730334e+00
  6.41679827e-01  8.72271494e-01  4.17730334e+00  6.41679827e-01  8.72271494e-01
  4.17730334e+00  6.41679827e-01 -2.59340338e+00 -4.39430903e+00 -8.70009803e-01
 -2.59340338e+00 -4.39430903e+00 -8.70009803e-01 -2.59340338e+00 -4.39430903e+00
 -8.70009803e-01 -2.59340338e+00 -4.39430903e+00 -8.70009803e-01 -3.71654561e+00
  3.60237284e+00  9.74416559e-03 -3.71654561e+00  3.60237284e+00  9.74416559e-03
 -3.71654561e+00  3.60237284e+00  9.74416559e-03 -3.71654561e+00  3.60237284e+00
  9.74416559e-03 -5.49220907e+00 -6.88603423e-01 -7.55235367e-01 -5.49220907e+00
 -6.88603423e-01 -7.55235367e-01 -5.49220907e+00 -6.88603423e-01 -7.55235367e-01
 -5.49220907e+00 -6.88603423e-01 -7.55235367e-01  4.99945220e+00  2.26921973e+00
  2.32908973e-01  4.99945220e+00  2.26921973e+00  2.32908973e-01  4.99945220e+00
  2.26921973e+00  2.32908973e-01  4.99945220e+00  2.26921973e+00  2.32908973e-01
  5.43238574e+00 -8.21051561e-01 -1.02167584e-01  5.43238574e+00 -8.21051561e-01
 -1.02167584e-01  5.43238574e+00 -8.21051561e-01 -1.02167584e-01  5.43238574e+00
 -8.21051561e-01 -1.02167584e-01
Total Energy                               R     -2.868044019337775e+02
Alpha Orbital Energies                     R   N=         168
 -1.55588924e+01 -1.12759921e+01 -1.12343253e+01 -1.12342896e+01 -1.12228482e+01
 -1.12228273e+01 -1.12187788e+01 -1.21967217e+00 -1.12423249e+00 -1.01003534e+00
 -9.83574230e-01 -8.29287220e-01 -8.09155204e-01 -7.01138394e-01 -6.78420958e-01
 -6.51727914e-01 -5.95760169e-01 -5.89636917e-01 -5.79062813e-01 -5.31303321e-01
 -5.04050491e-01 -4.87164697e-01 -4.46862777e-01 -3.34570399e-01 -2.94525579e-01
  1.34439792e-01  1.48727458e-01  1.58323015e-01  1.67923187e-01  1.79395983e-01
  2.08802549e-01  2.09157391e-01  2.42989611e-01  2.60214875e-01  3.54595251e-01
  4.00044428e-01  4.32889841e-01  4.39704108e-01  4.54743312e-01  4.77059313e-01
  5.07829579e-01  5.28732962e-01  5.78284067e-01  5.85647032e-01  5.89469181e-01
  6.20178385e-01  6.23890578e-01  6.36601324e-01  6.42112264e-01  6.42987038e-01
  6.52187294e-01  6.75203750e-01  7.20079462e-01  7.20740637e-01  7.44193798e-01
  7.63938265e-01  8.07919214e-01  8.14634365e-01  8.27244708e-01  8.32146099e-01
  8.34915796e-01  8.64999657e-01  8.75901642e-01  9.03793900e-01  9.25647201e-01
  9.47706675e-01  9.61043335e-01  1.00007396e+00  1.03396957e+00  1.06766591e+00
  1.07943515e+00  1.09079530e+00  1.13515730e+00  1.19042823e+00  1.20698889e+00
  1.21623000e+00  1.26113688e+00  1.33063297e+00  1.34182737e+00  1.39817637e+00
  1.40974136e+00  1.43534649e+00  1.46311605e+00  1.58911209e+00  1.65797127e+00
  1.71166036e+00  1.73071071e+00  1.75331151e+00  1.76754087e+00  1.80417167e+00
  1.82524730e+00  1.82719267e+00  1.84638930e+00  1.87423492e+00  1.88516660e+00
  1.89170777e+00  1.94095582e+00  1.95661866e+00  2.01273082e+00  2.03785676e+00
  2.04679011e+00  2.05784646e+00  2.11408684e+00  2.15930702e+00  2.18018632e+00
  2.20692242e+00  2.21346647e+00  2.21535749e+00  2.23464624e+00  2.23746022e+00
  2.28523416e+00  2.32514560e+00  2.33606200e+00  2.37676326e+00  2.37800988e+00
  2.56786532e+00  2.58325560e+00  2.60366198e+00  2.65550875e+00  2.66776874e+00
  2.70597345e+00  2.76178374e+00  2.76475520e+00  2.82018086e+00  2.91042072e+00
  2.91516140e+00  2.93256665e+00  2.94550495e+00  2.95114472e+00  2.95129943e+00
  2.97089381e+00  2.97499903e+00  3.02264881e+00  3.05135580e+00  3.07530198e+00
  3.12126059e+00  3.14145914e+00  3.21576526e+00  3.21812145e+00  3.26471419e+00
  3.28429681e+00  3.28695759e+00  3.35402327e+00  3.45753080e+00  3.55124527e+00
  3.64807373e+00  3.72006994e+00  3.76232305e+00  3.81148890e+00  3.89350228e+00
  3.90134589e+00  4.02725396e+00  4.20658859e+00  4.36755837e+00  4.41173593e+00
  4.47566196e+00  4.52072059e+00  4.52729712e+00  5.23134828e+00  5.28585689e+00
  5.45206716e+00  2.46470883e+01  2.50833661e+01  2.51024798e+01  2.52354958e+01
  2.52664204e+01  2.53562413e+01  3.70415484e+01
Alpha MO coefficients                      R   N=       28224
  5.57621144e-01  4.68222365e-01 -2.30764046e-04  1.29897611e-04 -1.49710771e-03
  5.28238479e-03  4.73379472e-05 -5.49228670e-05  5.70059949e-04 -2.23328670e-03
  6.14229748e-04  7.67181669e-05  9.11191104e-05  1.23688591e-04  8.33820182e-06
 -1.91796666e-05 -2.81712876e-05 -8.51481405e-06  1.28534484e-05 -3.89994536e-05
  8.44338754e-05  8.78394445e-06  2.80705394e-05  2.58811147e-04  2.52322966e-04
  3.65004535e-05 -9.56076159e-06 -4.56192015e-06  1.94972618e-03  2.35159657e-04
  3.36267362e-04 -4.12594538e-05 -7.47512290e-06 -1.14595150e-05  1.58821981e-04
  4.64406667e-05  2.36019656e-08  2.50413155e-06 -2.30380211e-06 -1.92695754e-05
  1.54669319e-07 -4.08904896e-05 -7.24686486e-06  9.84463694e-05  5.63082316e-06
  1.01770553e-03 -7.13630844e-04  5.35579721e-04 -3.04332199e-05 -1.13243566e-05
  1.36840569e-05  3.48291928e-07 -4.25101241e-06  3.33345838e-05  2.20384495e-08
  2.50846230e-06 -7.45481613e-06  1.74230288e-05  4.18289880e-06 -4.09744572e-05
  1.99407530e-05 -9.55404315e-05 -1.56816455e-05  1.01970270e-03 -5.39691149e-04
 -6.91546403e-04 -1.64728651e-04 -1.02154489e-05  5.43715977e-06  5.27262271e-06
  1.53561213e-05 -3.24039108e-05 -5.91137490e-07  1.53571447e-06  6.66154781e-06
  1.25244622e-06 -1.05231267e-06 -1.06128328e-05 -3.64093983e-05 -1.22438566e-05
  1.42450736e-06 -8.12673011e-04 -1.84806718e-04 -2.00062213e-04 -5.94376184e-05
 -4.91390255e-06  2.78374139e-06  1.23946567e-06 -8.36492307e-06  4.27648358e-06
 -5.91108141e-07  1.53437087e-06  6.72219340e-06  8.71618356e-07 -1.10454139e-06
 -1.05857663e-05 -3.83727182e-05  1.22077710e-06  2.93293533e-06 -8.12533064e-04
 -2.33468883e-04  1.50990396e-04 -2.05911091e-05 -4.60106879e-06  1.13292025e-06
  2.63047293e-06 -4.56013751e-06 -8.48287438e-06 -5.52964809e-07  3.21361605e-06
  1.23087890e-06  2.37457267e-07 -5.96724022e-07 -3.36553639e-05 -9.10124745e-06
 -1.30424204e-06  2.29682386e-07  4.27453904e-04  2.55085188e-04  3.21996714e-05
  3.68196699e-05 -5.83181133e-06 -4.20794551e-07  1.25673273e-06 -1.74714445e-06
 -4.78845943e-07 -2.00009727e-05  2.27287506e-04  1.44666510e-04 -2.31789713e-05
  2.62836782e-05 -2.12885851e-07 -1.99918066e-05  2.27207006e-04  1.44845411e-04
 -1.52148346e-05 -3.09199509e-05 -6.51511984e-06 -5.21409427e-06  3.79739798e-07
 -2.08619076e-05  2.22886533e-06 -2.66297258e-06  1.17181626e-06 -5.20822603e-06
  2.40742950e-07 -2.09724343e-05  1.43114520e-06  2.85232619e-06  1.76811016e-06
 -6.59270661e-06  3.43582645e-05  4.52849537e-05 -1.40241683e-06 -1.44627522e-07
 -6.13189038e-07  2.43875776e-04  2.50465972e-04  2.15749102e-06 -6.50006488e-05
 -7.91420206e-05 -3.23808567e-05  2.43804243e-04  2.51117151e-04  2.27685049e-06
 -8.51363671e-05  6.36454385e-05 -1.67489011e-05  1.13184366e-04  1.92876945e-04
  1.08637092e-04  1.10664087e-05  3.84537449e-05 -5.51343432e-04  6.15970803e-04
  8.16814059e-05  4.30759038e-05  1.40084206e-03 -4.70421777e-04 -4.80304584e-05
 -1.65377691e-04  2.17463210e-05 -9.55558436e-05  7.22074751e-06 -2.19115720e-04
 -5.21879500e-05 -5.63332995e-01 -4.66517609e-01 -8.07921321e-04 -9.61472159e-05
 -1.58109797e-04 -4.02420397e-03  8.50459274e-04  1.04146751e-04  1.39476369e-04
  3.84925810e-04 -1.93238061e-03 -2.42109980e-04 -2.63789811e-04  3.95906755e-04
 -3.12663881e-05 -1.07784489e-04  2.35284463e-04  7.26313749e-05 -6.14934041e-03
 -5.04652487e-03 -8.17402793e-05 -2.00825497e-04 -3.32711698e-05 -2.28291103e-04
 -3.04863499e-05 -3.52550363e-05 -1.15602182e-05 -1.07562142e-03  7.41679427e-04
 -4.56312654e-04  3.61968350e-05 -6.28514866e-05  4.84137800e-06  1.07998110e-06
  2.17902068e-05 -6.02380908e-05 -6.14813890e-03 -5.04553372e-03 -1.34285190e-04
  1.73284049e-04  7.77628480e-06 -2.28256394e-04 -3.92458426e-05  2.72563101e-05
 -4.70214105e-06 -1.07614094e-03  5.89991972e-04  6.22526136e-04  1.54388833e-04
 -5.88062712e-05  1.53891213e-05  2.39051095e-05 -1.05181113e-05  6.08306541e-05
 -2.71012162e-05 -2.38952826e-05 -4.29456026e-06  6.40183735e-06  7.83538129e-07
  8.66399667e-06  2.60545462e-05 -6.65319484e-06  7.45929682e-07  8.17235432e-04
  2.97755894e-04  1.02898108e-04  5.53001837e-05  7.68423097e-07 -2.95895125e-06
 -6.22779043e-06  1.84362166e-05 -3.80306889e-05 -2.71149734e-05 -2.39079272e-05
 -2.36839637e-06 -7.34608845e-06 -7.28905781e-07  8.66611868e-06  2.33022564e-05
  1.31972832e-05  2.92153412e-06  8.17317568e-04  3.16016282e-04 -2.72529562e-05
  4.07001266e-05  2.51019807e-06  4.69584794e-06  4.12472127e-06 -3.48193554e-06
  4.21623163e-05  9.12565317e-05  7.21799098e-05 -6.05213474e-07 -7.95129519e-08
 -5.44486373e-08  3.02587848e-05  1.28674698e-05  1.66116423e-06  1.40338360e-06
 -1.83126937e-04 -2.57579264e-04 -3.20803925e-05 -3.76930723e-05  8.79758159e-06
  1.02387332e-06 -3.37678779e-06  1.58847582e-05  4.49204830e-06 -2.36190307e-06
 -1.06715912e-04 -2.08266066e-04 -1.64007258e-05 -2.38051832e-05 -4.54175503e-06
 -2.36290364e-06 -1.06708341e-04 -2.08184996e-04 -2.23815251e-05  1.88396052e-05
  1.55759497e-07  7.84570017e-06 -2.57753005e-05  1.51141526e-05 -1.53220080e-05
  8.52364147e-06 -1.32011145e-06  7.84951610e-06 -2.57846826e-05  1.50855541e-05
 -1.24608210e-05 -1.18941890e-05 -3.54468433e-06  6.59394117e-06 -6.88963511e-05
 -5.00261980e-05 -4.08816556e-06 -5.29905484e-07 -4.09216781e-07 -1.76969403e-05
 -1.80920406e-04  1.09604037e-04  4.34135744e-05  9.58216955e-05 -1.94509105e-05
 -1.77075347e-05 -1.80852927e-04  1.09590822e-04  6.71908152e-05 -7.41098776e-05
 -3.78465611e-05 -5.89230846e-07 -1.67373542e-06  4.75987758e-07  3.86159232e-07
 -7.74836997e-07  1.23793063e-05 -9.09088447e-06 -1.96583494e-06  5.90795279e-07
 -7.42195934e-05  4.42383252e-05 -4.72295904e-06  1.65832869e-06  1.51190293e-06
 -1.89463397e-06  1.93428010e-07 -4.07936152e-06  4.32303679e-07 -4.90992836e-04
 -4.14524768e-04 -2.23444848e-06 -1.54330760e-06 -1.20819245e-06  5.39315686e-05
 -1.27924643e-05 -6.21832533e-06  7.07059407e-07 -7.88048052e-04  3.51280525e-04
  1.16938157e-04  4.90279440e-05  8.31239924e-06  5.04954325e-06 -4.19428203e-06
  3.35396577e-05  1.29155142e-05  2.33816378e-02  1.93192354e-02 -1.67580976e-04
 -2.30032137e-05 -2.44649574e-05  3.70282470e-04 -1.01390228e-04 -7.85440144e-06
 -1.30772877e-05  5.96662359e-04 -1.39626185e-04  4.82336473e-04  4.28821511e-05
  2.86182931e-05  6.94468147e-06 -1.29117223e-05  7.73376574e-05  2.92626386e-05
  1.77803328e-02  1.46908851e-02 -1.28956740e-04 -1.35198137e-05 -1.81220791e-05
  2.81420596e-04 -7.67555980e-05 -1.63804568e-05 -1.17131280e-05  4.67299969e-04
 -5.88850878e-05 -4.34746939e-04 -6.15895453e-05  2.03522302e-05  4.53627020e-06
 -1.16063645e-05  6.50841923e-05  8.06094300e-06  4.45535137e-01  3.68997832e-01
 -7.63395461e-06 -1.32778840e-04 -2.06695985e-05  3.33808770e-03  4.28428641e-05
  2.27920405e-04  3.70274959e-05 -7.84545088e-04 -8.67176313e-05 -6.05045813e-04
 -9.04427299e-05 -3.25225456e-04  6.40913028e-05  5.95046951e-05  3.05153572e-05
 -7.66065280e-05  3.42095696e-01  2.83326926e-01 -3.60266585e-05  9.57967307e-05
  5.47503729e-06  2.57125121e-03  8.08663076e-05 -1.63462420e-04 -8.53200645e-06
 -7.74784837e-04 -1.92061338e-04  4.99515424e-04  3.64351529e-05 -2.45290773e-04
  5.67905239e-05  6.36068356e-05 -1.42073466e-05  4.40142144e-05  3.05866520e-02
  2.52565014e-02  1.58983938e-04 -1.58151012e-05  1.64628488e-05  5.56116168e-04
  4.87372557e-05 -8.12306170e-06  5.19389726e-06  8.37994044e-04  5.03871173e-04
  8.79206020e-05  7.27824111e-05  6.88508061e-05 -2.43760749e-05 -1.22384279e-05
 -5.16859670e-05 -2.52807659e-05  2.05638286e-05  6.46992498e-05  1.18714138e-04
 -2.87736742e-05 -8.05341640e-06 -4.69330145e-06  1.46508162e-05  7.30037463e-05
  1.03971632e-04 -2.35585390e-05 -1.91949385e-06 -3.36135900e-06  3.43817902e-04
 -1.95270635e-04  3.80713392e-05 -8.11683442e-06  9.64878379e-06  5.63659769e-07
  2.63810439e-04 -1.47293512e-04  2.34738565e-05 -7.84964002e-06 -1.15028875e-05
 -2.04340439e-06  3.15222670e-05  1.88600342e-05  1.53558366e-04  5.27676640e-06
 -5.36413410e-06  9.12685376e-08  2.82926408e-07 -2.89082991e-06 -1.79757352e-05
  1.69375666e-07 -2.69471934e-07  2.35840041e-07 -4.00354780e-07 -3.61553998e-06
 -2.29370684e-05 -8.59091249e-07  4.59923221e-07 -9.90473606e-07  7.72706904e-08
  2.19562660e-07 -3.10986598e-07  1.72335991e-06  3.02535835e-07 -1.63800472e-06
  1.85311167e-06 -4.44478828e-06 -6.21515820e-07  9.92084512e-06  5.46888018e-06
 -7.98954251e-05 -8.99601440e-06  2.49028988e-07  1.02402050e-06  2.48014416e-06
 -2.05199451e-06  9.91100018e-06  6.44122947e-05  5.43796687e-05  1.74639087e-06
 -1.00980581e-05 -9.87013662e-07 -7.07275118e-06  6.20081694e-06 -3.15788509e-05
 -3.59596677e-06  1.03618943e-04 -1.23334280e-04  5.33204266e-04  5.35344411e-05
 -1.52062848e-07  1.64985409e-06  5.85663606e-06 -1.15793185e-05  2.52792847e-05
  1.86789585e-02  1.54345965e-02 -1.30737788e-04 -1.42088974e-05 -1.91230861e-05
  2.96192321e-04 -7.44265615e-05 -1.75743977e-05 -8.89481787e-06  4.23100984e-04
  1.62663009e-04  2.36509404e-04  4.20488953e-05  2.68549311e-05  1.46184463e-06
 -1.25220308e-05  5.71511665e-05  5.37275846e-06 -2.40822698e-02 -1.98991089e-02
  1.69184206e-04  2.24509719e-05  2.50492629e-05 -3.81653755e-04  9.97044745e-05
  6.30843149e-06  1.05184945e-05 -5.63477262e-04 -2.13900646e-04  3.09593300e-04
  2.12289446e-05 -3.37222508e-05 -4.72897484e-06  1.32654561e-05 -7.07741641e-05
 -2.86535083e-05  3.42725696e-01  2.83853942e-01  3.63348749e-06 -1.05730207e-04
 -1.49600277e-05  2.53701691e-03  3.36647580e-05  1.64831314e-04  2.62989978e-05
  6.60537203e-05 -1.40650886e-04 -2.16367511e-04 -4.13938191e-05 -2.56197887e-04
  5.52991908e-05  4.18884502e-05  6.33080519e-05 -6.18925590e-05 -4.46018237e-01
 -3.69402015e-01  3.62968255e-05 -1.32387153e-04 -9.71126776e-06 -3.31233884e-03
 -1.02470881e-04  1.99454453e-04  1.10245734e-05  1.39718178e-04  2.54016750e-04
 -3.13524813e-04 -1.13859993e-05  3.26828840e-04 -8.49264309e-05 -8.25958008e-05
 -2.43895339e-05 -8.64268562e-05 -4.01353763e-03 -3.31411520e-03  1.75066963e-05
 -2.70712225e-04 -3.21451275e-05 -7.29867872e-05  8.91282998e-06 -1.08991421e-04
 -1.28134066e-05 -1.10636055e-04 -9.32009020e-05  1.78052024e-04  1.13041897e-05
 -1.15498381e-05 -5.67688394e-06 -1.32139630e-05  3.27849283e-05 -9.25298137e-05
  2.02464795e-05 -4.07712915e-05  4.16437238e-05 -1.75208098e-05 -1.51461335e-05
 -3.67782793e-06 -2.48577865e-05  2.26529814e-05 -7.09288721e-05  2.81092503e-05
 -1.00809730e-05  1.79318974e-06  2.65431538e-04 -1.61909016e-04  5.19996503e-05
  1.10367967e-05  3.35225600e-07  1.10854344e-06 -3.45205776e-04  2.07350207e-04
 -6.00511694e-05 -8.92812459e-06  4.00240888e-07 -8.27934612e-07 -4.12884278e-06
 -2.62808702e-06 -2.01873999e-05  5.70657205e-06 -4.51105110e-05 -5.06732553e-06
  2.62560026e-06  2.99547583e-06  2.15449062e-05  3.49454215e-06  8.10710365e-07
  5.09857943e-06 -2.60441816e-06 -2.21993808e-06 -1.61878343e-05 -3.61287727e-06
  7.75546738e-07 -4.82830942e-06 -1.76705751e-06 -1.09230459e-06 -3.47491731e-06
 -1.21962327e-05 -1.36496656e-06 -1.13603338e-05  7.94692309e-06  2.02599617e-05
 -2.46439738e-07  7.92342036e-05 -4.48470849e-05  8.83090915e-06 -1.16789291e-05
 -2.41484488e-06 -3.39085156e-06 -1.98003131e-06  5.77040532e-06 -2.40662874e-05
  2.13141584e-03  1.78604765e-03  2.90524464e-06  2.68734003e-04  3.39954689e-05
 -8.00931663e-05 -1.31313910e-05  1.82793410e-04  2.12420368e-05 -1.98346992e-04
  5.84140519e-05 -3.34569981e-04 -3.46527529e-05 -2.30380560e-05 -2.84166436e-06
 -1.63523552e-05  4.24261593e-05 -1.05080505e-04 -4.81150933e-01 -3.98512399e-01
 -1.43833555e-04  1.64893078e-05  9.45032756e-06 -3.70320769e-03  2.03166996e-04