
    -----------------------------------------------------------------------
          Psi4: An Open-Source Ab Initio Electronic Structure Package
                               Psi4 1.3.2 release

                         Git: Rev {HEAD} ecbda83 


    R. M. Parrish, L. A. Burns, D. G. A. Smith, A. C. Simmonett,
    A. E. DePrince III, E. G. Hohenstein, U. Bozkaya, A. Yu. Sokolov,
    R. Di Remigio, R. M. Richard, J. F. Gonthier, A. M. James,
    H. R. McAlexander, A. Kumar, M. Saitow, X. Wang, B. P. Pritchard,
    P. Verma, H. F. Schaefer III, K. Patkowski, R. A. King, E. F. Valeev,
    F. A. Evangelista, J. M. Turney, T. D. Crawford, and C. D. Sherrill,
    J. Chem. Theory Comput. 13(7) pp 3185--3197 (2017).
    (doi: 10.1021/acs.jctc.7b00174)


                         Additional Contributions by
    P. Kraus, H. Kruse, M. H. Lechner, M. C. Schieber, R. A. Shaw,
    A. Alenaizan, R. Galvelis, Z. L. Glick, S. Lehtola, and J. P. Misiewicz

    -----------------------------------------------------------------------


    Psi4 started on: Monday, 24 May 2021 08:40PM

    Process ID: 78075
    Host:       daniele-Precision-5750
    PSIDATADIR: /home/daniele/anaconda3/envs/poltype/share/psi4
    Memory:     500.0 MiB
    Threads:    1
    
  ==> Input File <==

--------------------------------------------------------------------------
molecule { 
0 1
N 2.298257799814 0.281520176280 0.376198253703
C 0.927514052508 0.117666313672 0.115125502370
C 0.391794580472 -1.158791493254 -0.098909958106
C 0.058377201436 1.215207105055 0.161476710100
C -0.977416942380 -1.326889478859 -0.288957153137
C -1.309941173436 1.040522987744 -0.028620044744
C -1.838759007819 -0.230706187612 -0.251174054646
H 1.055857616710 -2.021011299147 -0.124619199484
H 0.461586196368 2.210533732193 0.339562340970
H -1.372369969171 -2.325368193778 -0.460389360907
H -1.966711239250 1.906293609548 0.005156390365
H -2.906351878181 -0.364393238421 -0.399653344783
H 2.645596171363 1.200819366816 0.123250120489
H 2.874694734929 -0.434481774905 -0.054064757367
}
memory 700MB
set_num_threads(8)
psi4_io.set_default_path("/home/daniele/PSI4_sctatch/Psi4-aniline")
set maxiter 500
set freeze_core True
set PROPERTIES_ORIGIN ["COM"]
set cubeprop_tasks ['esp']
E, wfn = properties('mp2/aug-cc-pVTZ',properties=['dipole'],return_wfn=True)
cubeprop(wfn)
fchk(wfn, "aniline-esp.fchk")
oeprop(wfn,"GRID_ESP","WIBERG_LOWDIN_INDICES","MULLIKEN_CHARGES")
clean()
--------------------------------------------------------------------------

  Memory set to 667.572 MiB by Python driver.
  Threads set to 8 by Python driver.
    SCF Algorithm Type (re)set to DF.

*** tstart() called on daniele-Precision-5750
*** at Mon May 24 20:40:34 2021

   => Loading Basis Set <=

    Name: AUG-CC-PVTZ
    Role: ORBITAL
    Keyword: BASIS
    atoms 1    entry N          line   281 file /home/daniele/anaconda3/envs/poltype/share/psi4/basis/aug-cc-pvtz.gbs 
    atoms 2-7  entry C          line   235 file /home/daniele/anaconda3/envs/poltype/share/psi4/basis/aug-cc-pvtz.gbs 
    atoms 8-14 entry H          line    36 file /home/daniele/anaconda3/envs/poltype/share/psi4/basis/aug-cc-pvtz.gbs 


         ---------------------------------------------------------
                                   SCF
               by Justin Turney, Rob Parrish, Andy Simmonett
                          and Daniel G. A. Smith
                              RHF Reference
                        8 Threads,    667 MiB Core
         ---------------------------------------------------------

  ==> Geometry <==

    Molecular point group: c1
    Full point group: C1

    Geometry (in Angstrom), charge = 0, multiplicity = 1:

       Center              X                  Y                   Z               Mass       
    ------------   -----------------  -----------------  -----------------  -----------------
         N            2.298257799814     0.281520176280     0.376198253703    14.003074004430
         C            0.927514052508     0.117666313672     0.115125502370    12.000000000000
         C            0.391794580472    -1.158791493254    -0.098909958106    12.000000000000
         C            0.058377201436     1.215207105055     0.161476710100    12.000000000000
         C           -0.977416942380    -1.326889478859    -0.288957153137    12.000000000000
         C           -1.309941173436     1.040522987744    -0.028620044744    12.000000000000
         C           -1.838759007819    -0.230706187612    -0.251174054646    12.000000000000
         H            1.055857616710    -2.021011299147    -0.124619199484     1.007825032230
         H            0.461586196368     2.210533732193     0.339562340970     1.007825032230
         H           -1.372369969171    -2.325368193778    -0.460389360907     1.007825032230
         H           -1.966711239250     1.906293609548     0.005156390365     1.007825032230
         H           -2.906351878181    -0.364393238421    -0.399653344783     1.007825032230
         H            2.645596171363     1.200819366816     0.123250120489     1.007825032230
         H            2.874694734929    -0.434481774905    -0.054064757367     1.007825032230

  Running in c1 symmetry.

  Rotational constants: A =      0.18754  B =      0.08650  C =      0.05932 [cm^-1]
  Rotational constants: A =   5622.27474  B =   2593.07964  C =   1778.24562 [MHz]
  Nuclear repulsion =  271.230559348952056

  Charge       = 0
  Multiplicity = 1
  Electrons    = 50
  Nalpha       = 25
  Nbeta        = 25

  ==> Algorithm <==

  SCF Algorithm Type is DF.
  DIIS enabled.
  MOM disabled.
  Fractional occupation disabled.
  Guess Type is SAD.
  Energy threshold   = 1.00e-10
  Density threshold  = 1.00e-10
  Integral threshold = 0.00e+00

  ==> Primary Basis <==

  Basis Set: AUG-CC-PVTZ
    Blend: AUG-CC-PVTZ
    Number of shells: 161
    Number of basis function: 483
    Number of Cartesian functions: 560
    Spherical Harmonics?: true
    Max angular momentum: 3

   => Loading Basis Set <=

    Name: (AUG-CC-PVTZ AUX)
    Role: JKFIT
    Keyword: DF_BASIS_SCF
    atoms 1    entry N          line   224 file /home/daniele/anaconda3/envs/poltype/share/psi4/basis/aug-cc-pvtz-jkfit.gbs 
    atoms 2-7  entry C          line   162 file /home/daniele/anaconda3/envs/poltype/share/psi4/basis/aug-cc-pvtz-jkfit.gbs 
    atoms 8-14 entry H          line    70 file /home/daniele/anaconda3/envs/poltype/share/psi4/basis/aug-cc-pvtz-jkfit.gbs 

  ==> Pre-Iterations <==

   -------------------------------------------------------
    Irrep   Nso     Nmo     Nalpha   Nbeta   Ndocc  Nsocc
   -------------------------------------------------------
     A        483     483       0       0       0       0
   -------------------------------------------------------
    Total     483     483      25      25      25       0
   -------------------------------------------------------

  ==> Integral Setup <==

  ==> DiskDFJK: Density-Fitted J/K Matrices <==

    J tasked:                  Yes
    K tasked:                  Yes
    wK tasked:                  No
    OpenMP threads:              8
    Integrals threads:           8
    Memory [MiB]:              500
    Algorithm:                Disk
    Integral Cache:           NONE
    Schwarz Cutoff:          1E-12
    Fitting Condition:       1E-10

   => Auxiliary Basis Set <=

  Basis Set: (AUG-CC-PVTZ AUX)
    Blend: AUG-CC-PVTZ-JKFIT
    Number of shells: 308
    Number of basis function: 1050
    Number of Cartesian functions: 1302
    Spherical Harmonics?: true
    Max angular momentum: 4

  Minimum eigenvalue in the overlap matrix is 6.8040924397E-07.
  Using Symmetric Orthogonalization.

  SCF Guess: Superposition of Atomic Densities via on-the-fly atomic UHF.

  ==> Iterations <==

                           Total Energy        Delta E     RMS |[F,P]|

   @DF-RHF iter SAD:  -285.26943438951741   -2.85269e+02   0.00000e+00 
   @DF-RHF iter   1:  -285.59974720637001   -3.30313e-01   1.30880e-03 DIIS
   @DF-RHF iter   2:  -285.78785550816923   -1.88108e-01   6.27977e-04 DIIS
   @DF-RHF iter   3:  -285.83230563359001   -4.44501e-02   1.01495e-04 DIIS
   @DF-RHF iter   4:  -285.83446293853365   -2.15730e-03   2.28531e-05 DIIS
   @DF-RHF iter   5:  -285.83454983184345   -8.68933e-05   7.40590e-06 DIIS
   @DF-RHF iter   6:  -285.83456126360738   -1.14318e-05   2.32950e-06 DIIS
   @DF-RHF iter   7:  -285.83456274851568   -1.48491e-06   7.37138e-07 DIIS
   @DF-RHF iter   8:  -285.83456291321056   -1.64695e-07   3.15401e-07 DIIS
   @DF-RHF iter   9:  -285.83456293965850   -2.64479e-08   9.98414e-08 DIIS
   @DF-RHF iter  10:  -285.83456294389424   -4.23574e-09   5.65855e-08 DIIS
   @DF-RHF iter  11:  -285.83456294522773   -1.33349e-09   2.51147e-08 DIIS
   @DF-RHF iter  12:  -285.83456294569737   -4.69640e-10   9.52374e-09 DIIS
   @DF-RHF iter  13:  -285.83456294574108   -4.37126e-11   3.78080e-09 DIIS
   @DF-RHF iter  14:  -285.83456294574665   -5.57066e-12   8.07494e-10 DIIS
   @DF-RHF iter  15:  -285.83456294574671   -5.68434e-14   1.95502e-10 DIIS
   @DF-RHF iter  16:  -285.83456294574660    1.13687e-13   6.83587e-11 DIIS
  Energy and wave function converged.


  ==> Post-Iterations <==

    Orbital Energies [Eh]
    ---------------------

    Doubly Occupied:                                                      

       1A    -15.567071     2A    -11.278065     3A    -11.236527  
       4A    -11.236490     5A    -11.225413     6A    -11.225393  
       7A    -11.221161     8A     -1.222784     9A     -1.126271  
      10A     -1.011719    11A     -0.985464    12A     -0.831186  
      13A     -0.811211    14A     -0.703010    15A     -0.681137  
      16A     -0.653833    17A     -0.597490    18A     -0.591778  
      19A     -0.580604    20A     -0.534573    21A     -0.506086  
      22A     -0.488945    23A     -0.450041    24A     -0.336866  
      25A     -0.297725  

    Virtual:                                                              

      26A      0.026831    27A      0.033957    28A      0.034492  
      29A      0.047380    30A      0.047995    31A      0.064186  
      32A      0.075467    33A      0.092335    34A      0.099762  
      35A      0.103268    36A      0.108545    37A      0.109843  
      38A      0.112787    39A      0.115238    40A      0.122210  
      41A      0.130345    42A      0.131261    43A      0.135160  
      44A      0.138781    45A      0.142122    46A      0.145847  
      47A      0.153467    48A      0.156056    49A      0.161939  
      50A      0.162486    51A      0.163268    52A      0.178649  
      53A      0.181661    54A      0.197166    55A      0.202606  
      56A      0.225994    57A      0.236965    58A      0.248775  
      59A      0.251706    60A      0.258871    61A      0.260138  
      62A      0.272019    63A      0.273746    64A      0.284536  
      65A      0.295840    66A      0.305609    67A      0.306969  
      68A      0.311632    69A      0.316291    70A      0.323227  
      71A      0.325968    72A      0.331130    73A      0.338784  
      74A      0.343739    75A      0.353466    76A      0.366055  
      77A      0.368835    78A      0.380107    79A      0.383221  
      80A      0.383974    81A      0.390111    82A      0.413583  
      83A      0.415180    84A      0.418501    85A      0.425371  
      86A      0.434068    87A      0.438917    88A      0.450277  
      89A      0.451545    90A      0.453720    91A      0.462918  
      92A      0.463378    93A      0.463618    94A      0.475036  
      95A      0.480942    96A      0.485661    97A      0.488606  
      98A      0.490601    99A      0.500024   100A      0.512718  
     101A      0.521476   102A      0.521925   103A      0.530716  
     104A      0.534989   105A      0.539896   106A      0.541484  
     107A      0.548389   108A      0.555427   109A      0.558007  
     110A      0.566304   111A      0.595630   112A      0.601376  
     113A      0.605778   114A      0.621961   115A      0.638089  
     116A      0.642525   117A      0.651658   118A      0.661513  
     119A      0.667678   120A      0.669353   121A      0.682578  
     122A      0.686098   123A      0.704807   124A      0.705231  
     125A      0.707691   126A      0.712601   127A      0.721552  
     128A      0.735882   129A      0.745515   130A      0.756586  
     131A      0.765798   132A      0.770660   133A      0.798822  
     134A      0.804308   135A      0.814250   136A      0.821815  
     137A      0.833053   138A      0.845688   139A      0.855636  
     140A      0.863028   141A      0.876429   142A      0.879815  
     143A      0.880342   144A      0.887022   145A      0.891563  
     146A      0.897653   147A      0.902617   148A      0.908228  
     149A      0.920768   150A      0.924846   151A      0.932329  
     152A      0.937168   153A      0.946331   154A      0.958213  
     155A      0.959186   156A      0.967867   157A      0.984190  
     158A      0.988587   159A      0.991533   160A      1.012900  
     161A      1.020865   162A      1.033305   163A      1.042667  
     164A      1.045077   165A      1.052374   166A      1.053584  
     167A      1.059610   168A      1.063950   169A      1.077326  
     170A      1.081829   171A      1.088856   172A      1.091847  
     173A      1.094298   174A      1.106250   175A      1.106265  
     176A      1.118871   177A      1.132170   178A      1.141100  
     179A      1.151234   180A      1.155115   181A      1.165845  
     182A      1.172064   183A      1.190038   184A      1.191185  
     185A      1.193327   186A      1.201757   187A      1.215698  
     188A      1.219316   189A      1.225314   190A      1.229285  
     191A      1.233123   192A      1.249022   193A      1.260155  
     194A      1.265515   195A      1.268810   196A      1.269624  
     197A      1.281908   198A      1.295968   199A      1.332076  
     200A      1.337422   201A      1.353835   202A      1.356833  
     203A      1.374691   204A      1.384030   205A      1.388783  
     206A      1.390721   207A      1.405906   208A      1.415098  
     209A      1.416032   210A      1.460474   211A      1.466457  
     212A      1.469038   213A      1.474631   214A      1.477534  
     215A      1.496929   216A      1.528195   217A      1.531230  
     218A      1.540294   219A      1.540670   220A      1.553606  
     221A      1.566425   222A      1.566664   223A      1.633207  
     224A      1.656977   225A      1.685493   226A      1.693518  
     227A      1.703527   228A      1.707088   229A      1.711994  
     230A      1.721074   231A      1.735992   232A      1.756984  
     233A      1.768463   234A      1.787320   235A      1.811177  
     236A      1.816800   237A      1.825491   238A      1.837857  
     239A      1.846750   240A      1.858765   241A      1.858881  
     242A      1.866763   243A      1.878856   244A      1.888209  
     245A      1.897989   246A      1.906791   247A      1.919600  
     248A      1.949672   249A      1.973248   250A      1.985401  
     251A      1.989134   252A      1.992742   253A      2.014615  
     254A      2.017418   255A      2.022486   256A      2.037369  
     257A      2.047269   258A      2.061873   259A      2.077056  
     260A      2.080558   261A      2.103832   262A      2.113804  
     263A      2.125939   264A      2.131174   265A      2.131293  
     266A      2.153730   267A      2.188446   268A      2.203330  
     269A      2.225727   270A      2.226474   271A      2.228494  
     272A      2.255744   273A      2.276692   274A      2.289187  
     275A      2.307379   276A      2.342999   277A      2.354505  
     278A      2.370435   279A      2.377982   280A      2.387511  
     281A      2.400558   282A      2.408824   283A      2.448047  
     284A      2.451242   285A      2.472134   286A      2.481834  
     287A      2.506037   288A      2.509164   289A      2.543819  
     290A      2.565558   291A      2.590173   292A      2.594603  
     293A      2.616275   294A      2.653288   295A      2.660464  
     296A      2.734944   297A      2.784040   298A      2.785260  
     299A      2.788909   300A      2.814304   301A      2.837816  
     302A      2.854618   303A      2.893986   304A      2.899623  
     305A      3.030190   306A      3.100031   307A      3.131644  
     308A      3.156309   309A      3.184403   310A      3.194261  
     311A      3.227833   312A      3.248503   313A      3.259186  
     314A      3.275141   315A      3.336801   316A      3.352859  
     317A      3.367148   318A      3.392388   319A      3.405982  
     320A      3.415625   321A      3.420306   322A      3.426896  
     323A      3.448604   324A      3.450741   325A      3.466260  
     326A      3.530895   327A      3.535101   328A      3.547033  
     329A      3.552823   330A      3.567060   331A      3.571021  
     332A      3.588414   333A      3.600742   334A      3.605943  
     335A      3.620663   336A      3.661343   337A      3.678246  
     338A      3.684953   339A      3.699980   340A      3.712439  
     341A      3.743647   342A      3.789006   343A      3.809866  
     344A      3.821036   345A      3.834410   346A      3.834535  
     347A      3.859036   348A      3.860377   349A      3.869204  
     350A      3.886606   351A      3.900076   352A      3.901948  
     353A      3.945026   354A      3.962944   355A      3.967067  
     356A      3.984067   357A      3.991340   358A      4.013564  
     359A      4.015245   360A      4.044932   361A      4.066443  
     362A      4.072553   363A      4.075227   364A      4.095851  
     365A      4.118401   366A      4.138488   367A      4.156807  
     368A      4.164854   369A      4.179486   370A      4.191832  
     371A      4.209459   372A      4.231050   373A      4.266273  
     374A      4.272826   375A      4.298200   376A      4.301607  
     377A      4.309517   378A      4.342528   379A      4.355423  
     380A      4.362645   381A      4.367834   382A      4.371917  
     383A      4.395907   384A      4.404542   385A      4.419641  
     386A      4.421158   387A      4.437910   388A      4.442809  
     389A      4.458313   390A      4.485027   391A      4.491419  
     392A      4.499619   393A      4.509081   394A      4.545194  
     395A      4.573907   396A      4.591696   397A      4.593140  
     398A      4.628128   399A      4.669983   400A      4.692224  
     401A      4.713059   402A      4.720132   403A      4.740273  
     404A      4.743735   405A      4.758963   406A      4.777031  
     407A      4.812246   408A      4.859067   409A      4.864438  
     410A      4.907150   411A      4.909182   412A      4.943289  
     413A      4.954292   414A      4.956674   415A      4.975466  
     416A      4.995061   417A      5.019970   418A      5.058322  
     419A      5.073873   420A      5.103869   421A      5.107147  
     422A      5.128165   423A      5.150187   424A      5.150932  
     425A      5.157286   426A      5.174174   427A      5.192006  
     428A      5.203048   429A      5.239676   430A      5.265539  
     431A      5.270594   432A      5.282387   433A      5.289318  
     434A      5.325520   435A      5.334799   436A      5.338046  
     437A      5.374261   438A      5.401478   439A      5.422966  
     440A      5.439446   441A      5.475107   442A      5.549011  
     443A      5.555891   444A      5.620449   445A      5.685245  
     446A      5.713953   447A      5.760126   448A      5.770498  
     449A      5.821554   450A      5.868671   451A      5.917431  
     452A      5.982117   453A      5.982406   454A      6.013563  
     455A      6.082365   456A      6.092626   457A      6.152201  
     458A      6.208091   459A      6.216069   460A      6.262040  
     461A      6.274710   462A      6.357486   463A      6.402121  
     464A      6.446323   465A      6.509629   466A      6.684076  
     467A      6.716497   468A      6.779900   469A      6.877466  
     470A      6.905759   471A      6.948934   472A      7.120399  
     473A      7.164492   474A      7.301780   475A      7.416875  
     476A      7.794541   477A     15.953563   478A     16.115285  
     479A     17.189131   480A     18.357317   481A     19.454882  
     482A     19.537890   483A     19.713801  

    Final Occupation by Irrep:
              A 
    DOCC [    25 ]

  @DF-RHF Final Energy:  -285.83456294574660

   => Energetics <=

    Nuclear Repulsion Energy =            271.2305593489520561
    One-Electron Energy =                -923.3285553966244379
    Two-Electron Energy =                 366.2634331019257843
    Total Energy =                       -285.8345629457465975

Computation Completed

*** tstop() called on daniele-Precision-5750 at Mon May 24 20:40:58 2021
Module time:
	user time   =     175.28 seconds =       2.92 minutes
	system time =       7.11 seconds =       0.12 minutes
	total time  =         24 seconds =       0.40 minutes
Total time:
	user time   =     175.28 seconds =       2.92 minutes
	system time =       7.11 seconds =       0.12 minutes
	total time  =         24 seconds =       0.40 minutes
   => Loading Basis Set <=

    Name: (AUG-CC-PVTZ AUX)
    Role: RIFIT
    Keyword: DF_BASIS_MP2
    atoms 1    entry N          line   206 file /home/daniele/anaconda3/envs/poltype/share/psi4/basis/aug-cc-pvtz-ri.gbs 
    atoms 2-7  entry C          line   148 file /home/daniele/anaconda3/envs/poltype/share/psi4/basis/aug-cc-pvtz-ri.gbs 
    atoms 8-14 entry H          line    30 file /home/daniele/anaconda3/envs/poltype/share/psi4/basis/aug-cc-pvtz-ri.gbs 


*** tstart() called on daniele-Precision-5750
*** at Mon May 24 20:40:59 2021


  //>>>>>>>>>>>>>>>>>>>>>>>>>>>>>>>>>>>//
  //               DFMP2               //
  //<<<<<<<<<<<<<<<<<<<<<<<<<<<<<<<<<<<//

	 --------------------------------------------------------
	                          DF-MP2                         
	      2nd-Order Density-Fitted Moller-Plesset Theory     
	              RMP2 Wavefunction,   8 Threads             
	                                                         
	        Rob Parrish, Justin Turney, Andy Simmonett,      
	           Ed Hohenstein, and C. David Sherrill          
	 --------------------------------------------------------

   => Auxiliary Basis Set <=

  Basis Set: (AUG-CC-PVTZ AUX)
    Blend: AUG-CC-PVTZ-RI
    Number of shells: 294
    Number of basis function: 1064
    Number of Cartesian functions: 1337
    Spherical Harmonics?: true
    Max angular momentum: 4

	 --------------------------------------------------------
	                 NBF =   483, NAUX =  1064
	 --------------------------------------------------------
	   CLASS    FOCC     OCC    AOCC    AVIR     VIR    FVIR
	   PAIRS       7      25      18     458     458       0
	 --------------------------------------------------------


         ------------------------------------------------------------
                                     CPHF                           
                                  Rob Parrish                       
         ------------------------------------------------------------

  ==> Geometry <==

    Molecular point group: c1
    Full point group: C1

    Geometry (in Angstrom), charge = 0, multiplicity = 1:

       Center              X                  Y                   Z               Mass       
    ------------   -----------------  -----------------  -----------------  -----------------
         N            2.298257799814     0.281520176280     0.376198253703    14.003074004430
         C            0.927514052508     0.117666313672     0.115125502370    12.000000000000
         C            0.391794580472    -1.158791493254    -0.098909958106    12.000000000000
         C            0.058377201436     1.215207105055     0.161476710100    12.000000000000
         C           -0.977416942380    -1.326889478859    -0.288957153137    12.000000000000
         C           -1.309941173436     1.040522987744    -0.028620044744    12.000000000000
         C           -1.838759007819    -0.230706187612    -0.251174054646    12.000000000000
         H            1.055857616710    -2.021011299147    -0.124619199484     1.007825032230
         H            0.461586196368     2.210533732193     0.339562340970     1.007825032230
         H           -1.372369969171    -2.325368193778    -0.460389360907     1.007825032230
         H           -1.966711239250     1.906293609548     0.005156390365     1.007825032230
         H           -2.906351878181    -0.364393238421    -0.399653344783     1.007825032230
         H            2.645596171363     1.200819366816     0.123250120489     1.007825032230
         H            2.874694734929    -0.434481774905    -0.054064757367     1.007825032230

  Nuclear repulsion =  271.230559348952056
  Reference energy  = -285.834562945746598

  ==> Basis Set <==

  Basis Set: AUG-CC-PVTZ
    Blend: AUG-CC-PVTZ
    Number of shells: 161
    Number of basis function: 483
    Number of Cartesian functions: 560
    Spherical Harmonics?: true
    Max angular momentum: 3

  ==> CGRSolver (by Rob Parrish) <==

   Number of roots    =         1
   Preconditioning    =    JACOBI
   Convergence cutoff =     1E-06
   Maximum iterations =       100

  ==> CPHFRHamiltonian (by Rob Parrish) <== 

  ==> DiskDFJK: Density-Fitted J/K Matrices <==

    J tasked:                  Yes
    K tasked:                  Yes
    wK tasked:                  No
    OpenMP threads:              8
    Integrals threads:           8
    Memory [MiB]:              500
    Algorithm:                Disk
    Integral Cache:           NONE
    Schwarz Cutoff:          1E-12
    Fitting Condition:       1E-10

   => Auxiliary Basis Set <=

  Basis Set: (AUG-CC-PVTZ AUX)
    Blend: AUG-CC-PVTZ-JKFIT
    Number of shells: 308
    Number of basis function: 1050
    Number of Cartesian functions: 1302
    Spherical Harmonics?: true
    Max angular momentum: 4

  ==> CPHF Iterations <==

  => Iterations <=

             Iter  Converged  Remaining    Residual
  CGR           1          0          1   9.548E-02
  CGR           2          0          1   3.011E-02
  CGR           3          0          1   1.759E-02
  CGR           4          0          1   6.974E-03
  CGR           5          0          1   2.936E-03
  CGR           6          0          1   1.057E-03
  CGR           7          0          1   3.328E-04
  CGR           8          0          1   7.124E-05
  CGR           9          0          1   2.259E-05
  CGR          10          0          1   7.099E-06
  CGR          11          0          1   1.945E-06
  CGR          12          1          0   5.457E-07

    CGRSolver converged.

	-----------------------------------------------------------
	 ==================> DF-MP2 Energies <==================== 
	-----------------------------------------------------------
	 Reference Energy          =    -285.8345629457465975 [Eh]
	 Singles Energy            =      -0.0000000000000000 [Eh]
	 Same-Spin Energy          =      -0.2969306829860699 [Eh]
	 Opposite-Spin Energy      =      -0.8839046508487888 [Eh]
	 Correlation Energy        =      -1.1808353338348587 [Eh]
	 Total Energy              =    -287.0153982795814613 [Eh]
	-----------------------------------------------------------
	 ================> DF-SCS-MP2 Energies <================== 
	-----------------------------------------------------------
	 SCS Same-Spin Scale       =       0.3333333333333333 [-]
	 SCS Opposite-Spin Scale   =       1.2000000000000000 [-]
	 SCS Same-Spin Energy      =      -0.0989768943286900 [Eh]
	 SCS Opposite-Spin Energy  =      -1.0606855810185465 [Eh]
	 SCS Correlation Energy    =      -1.1596624753472364 [Eh]
	 SCS Total Energy          =    -286.9942254210938586 [Eh]
	-----------------------------------------------------------



Properties will be evaluated at  -0.000000,   0.000000,   0.000000 [a0]

Properties computed using the MP2 density matrix

  Nuclear Dipole Moment: [e a0]
     X:     0.7361      Y:     0.1608      Z:    -0.5362

  Electronic Dipole Moment: [e a0]
     X:    -0.3118      Y:    -0.0617      Z:     0.1712

  Dipole Moment: [e a0]
     X:     0.4243      Y:     0.0991      Z:    -0.3649     Total:     0.5684

  Dipole Moment: [D]
     X:     1.0785      Y:     0.2519      Z:    -0.9276     Total:     1.4447


*** tstop() called on daniele-Precision-5750 at Mon May 24 20:41:41 2021
Module time:
	user time   =     315.91 seconds =       5.27 minutes
	system time =       7.98 seconds =       0.13 minutes
	total time  =         42 seconds =       0.70 minutes
Total time:
	user time   =     492.02 seconds =       8.20 minutes
	system time =      15.09 seconds =       0.25 minutes
	total time  =         67 seconds =       1.12 minutes
  ==> One Electron Grid Properties (v2.0) <==

  ==> CubicScalarGrid <==

    Filepath     = .
    Total Points =           395136
    XYZ Blocking =               10
    X Points     =               96
    Y Points     =               84
    Z Points     =               49
    X Spacing    =        2.000E-01
    Y Spacing    =        2.000E-01
    Z Spacing    =        2.000E-01
    X Minimum    =       -9.530E+00
    Y Minimum    =       -8.409E+00
    Z Minimum    =       -4.880E+00
    X Maximum    =        9.470E+00
    Y Maximum    =        8.191E+00
    Z Maximum    =        4.720E+00

  Basis Set: AUG-CC-PVTZ
    Blend: AUG-CC-PVTZ
    Number of shells: 161
    Number of basis function: 483
    Number of Cartesian functions: 560
    Spherical Harmonics?: true
    Max angular momentum: 3



Properties will be evaluated at  -0.000000,   0.000000,   0.000000 [a0]
OEProp: No title given, name of density matrix used for the following properties is 'DF-MP2 relaxed density'
  Mulliken Charges: (a.u.)
   Center  Symbol    Alpha    Beta     Spin     Total
       1     N     3.87803  3.87803  0.00000 -0.75605
       2     C     2.34327  2.34327  0.00000  1.31347
       3     C     3.43293  3.43293  0.00000 -0.86585
       4     C     3.43347  3.43347  0.00000 -0.86694
       5     C     3.19510  3.19510  0.00000 -0.39020
       6     C     3.19543  3.19543  0.00000 -0.39087
       7     C     3.23676  3.23676  0.00000 -0.47352
       8     H     0.24143  0.24143  0.00000  0.51713
       9     H     0.24115  0.24115  0.00000  0.51771
      10     H     0.32084  0.32084  0.00000  0.35832
      11     H     0.32084  0.32084  0.00000  0.35832
      12     H     0.24689  0.24689  0.00000  0.50622
      13     H     0.45696  0.45696  0.00000  0.08609
      14     H     0.45691  0.45691  0.00000  0.08619

   Total alpha = 25.00000, Total beta = 25.00000, Total charge = -0.00000



  Wiberg Bond Indices using Orthogonal Lowdin Orbitals:

  Irrep: 1 Size: 14 x 14

                 1                   2                   3                   4                   5

    1     0.00000000000000     1.40079165364666     0.32515469800134     0.32513304050860     0.05554826893271
    2     1.40079165364666     0.00000000000000     1.24310721679728     1.24309859872062     0.40699228166859
    3     0.32515469800134     1.24310721679728     0.00000000000000     0.37644822316728     1.33288263762700
    4     0.32513304050860     1.24309859872062     0.37644822316728     0.00000000000000     0.19990154268454
    5     0.05554826893271     0.40699228166859     1.33288263762700     0.19990154268454     0.00000000000000
    6     0.05554687950702     0.40701662914547     0.19990912857790     1.33296363595294     0.41950643719032
    7     0.02802169398092     0.19454755023265     0.41006627922499     0.41003253309675     1.33428902495971
    8     0.06668277858139     0.30189216501039     0.82898528608710     0.04990706114471     0.31169595708772
    9     0.06666707250864     0.30190776226158     0.04991017199325     0.82902567819794     0.02173438527368
   10     0.00455341672162     0.05370519546086     0.31763430426515     0.02213260853409     0.84874573519054
   11     0.00455413314867     0.05372129768331     0.02213817344332     0.31770923673369     0.05458799060525
   12     0.00510663599850     0.02111153743601     0.05334747929131     0.05333937438894     0.31553680088946
   13     1.12154238657256     0.35035550668787     0.05083570899009     0.08690714786961     0.00678122067949
   14     1.12126608317147     0.35032620546976     0.08699576730180     0.05081683674612     0.01176297849388

                 6                   7                   8                   9                  10

    1     0.05554687950702     0.02802169398092     0.06668277858139     0.06666707250864     0.00455341672162
    2     0.40701662914547     0.19454755023265     0.30189216501039     0.30190776226158     0.05370519546086
    3     0.19990912857790     0.41006627922499     0.82898528608710     0.04991017199325     0.31763430426515
    4     1.33296363595294     0.41003253309675     0.04990706114471     0.82902567819794     0.02213260853409
    5     0.41950643719032     1.33428902495971     0.31169595708772     0.02173438527368     0.84874573519054
    6     0.00000000000000     1.33407883372124     0.02173474172402     0.31172307227837     0.05458110837827
    7     1.33407883372124     0.00000000000000     0.05321100050408     0.05320902822624     0.31372723139809
    8     0.02173474172402     0.05321100050408     0.00000000000000     0.00380065231296     0.06155172134050
    9     0.31172307227837     0.05320902822624     0.00380065231296     0.00000000000000     0.00290809597648
   10     0.05458110837827     0.31372723139809     0.06155172134050     0.00290809597648     0.00000000000000
   11     0.84883896716937     0.31371754547250     0.00290867400672     0.06157019482639     0.00410774710052
   12     0.31547452600654     0.85346591097399     0.00394493571734     0.00394468042500     0.06013814033743
   13     0.01174676878994     0.00462813073634     0.00745520215766     0.03069432366682     0.00092735003890
   14     0.00677968404792     0.00462834357817     0.03076778250165     0.00744562408834     0.00112592015488

                11                  12                  13                  14

    1     0.00455413314867     0.00510663599850     1.12154238657256     1.12126608317147
    2     0.05372129768331     0.02111153743601     0.35035550668787     0.35032620546976
    3     0.02213817344332     0.05334747929131     0.05083570899009     0.08699576730180
    4     0.31770923673369     0.05333937438894     0.08690714786961     0.05081683674612
    5     0.05458799060525     0.31553680088946     0.00678122067949     0.01176297849388
    6     0.84883896716937     0.31547452600654     0.01174676878994     0.00677968404792
    7     0.31371754547250     0.85346591097399     0.00462813073634     0.00462834357817
    8     0.00290867400672     0.00394493571734     0.00745520215766     0.03076778250165
    9     0.06157019482639     0.00394468042500     0.03069432366682     0.00744562408834
   10     0.00410774710052     0.06013814033743     0.00092735003890     0.00112592015488
   11     0.00000000000000     0.06012641223721     0.00112453357953     0.00092772993984
   12     0.06012641223721     0.00000000000000     0.00095099604244     0.00095081616961
   13     0.00112453357953     0.00095099604244     0.00000000000000     0.33486719853249
   14     0.00092772993984     0.00095081616961     0.33486719853249     0.00000000000000



  Atomic Valences: 

 #  #
 Irrep: 1
      1:  4.5805687
      2:  6.3285736
      3:  5.2974151
      4:  5.2974155
      5:  5.3199653
      6:  5.3199004
      7:  5.3076231
      8:  1.7445380
      9:  1.7445407
     10:  1.7458386
     11:  1.7460326
     12:  1.7474382
     13:  2.0088165
     14:  2.0086610


 Electrostatic potential computed on the grid and written to grid_esp.dat

    Psi4 stopped on: Monday, 24 May 2021 08:48PM
    Psi4 wall time for execution: 0:08:24.94

*** Psi4 exiting successfully. Buy a developer a beer!
