Generated by Psi4
        SP                        DF-MP2                      6-311G**
Number of atoms                            I                6
Charge                                     I                0
Multiplicity                               I                1
Number of electrons                        I               16
Number of alpha electrons                  I                8
Number of beta electrons                   I                8
Number of basis functions                  I               60
Number of independent functions            I               60
Atomic numbers                             I   N=           6
           6           6           1           1           1           1
Nuclear charges                            R   N=           6
  6.00000000e+00  6.00000000e+00  1.00000000e+00  1.00000000e+00  1.00000000e+00
  1.00000000e+00
Current cartesian coordinates              R   N=          18
  1.13919551e-05  1.26141632e+00  0.00000000e+00 -1.16119059e-05 -1.26141621e+00
  0.00000000e+00 -1.74398822e+00  2.33854958e+00  0.00000000e+00  1.74403227e+00
  2.33852150e+00  0.00000000e+00  1.74398733e+00 -2.33855191e+00  0.00000000e+00
 -1.74402876e+00 -2.33852051e+00  0.00000000e+00
Integer atomic weights                     I   N=           6
          12          12           1           1           1           1
Real atomic weights                        R   N=           6
  1.20000000e+01  1.20000000e+01  1.00782503e+00  1.00782503e+00  1.00782503e+00
  1.00782503e+00
Number of primitive shells                 I               58
Number of contracted shells                I               32
Pure/Cartesian d shells                    I                0
Pure/Cartesian f shells                    I                0
Highest angular momentum                   I                2
Largest degree of contraction              I                6
Shell types                                I   N=          32
           0           0           1           0           1           0
           1          -2           0           0           1           0
           1           0           1          -2           0           0
           0           1           0           0           0           1
           0           0           0           1           0           0
           0           1
Number of primitives per shell             I   N=          32
           6           3           3           1           1           1
           1           1           6           3           3           1
           1           1           1           1           3           1
           1           1           3           1           1           1
           3           1           1           1           3           1
           1           1
Shell to atom map                          I   N=          32
           1           1           1           1           1           1
           1           1           2           2           2           2
           2           2           2           2           3           3
           3           3           4           4           4           4
           5           5           5           5           6           6
           6           6
Primitive exponents                        R   N=          58
  4.56324000e+03  6.82024000e+02  1.54973000e+02  4.44553000e+01  1.30290000e+01
  1.82773000e+00  2.09642000e+01  4.80331000e+00  1.45933000e+00  2.09642000e+01
  4.80331000e+00  1.45933000e+00  4.83456000e-01  4.83456000e-01  1.45585000e-01
  1.45585000e-01  6.26000000e-01  4.56324000e+03  6.82024000e+02  1.54973000e+02
  4.44553000e+01  1.30290000e+01  1.82773000e+00  2.09642000e+01  4.80331000e+00
  1.45933000e+00  2.09642000e+01  4.80331000e+00  1.45933000e+00  4.83456000e-01
  4.83456000e-01  1.45585000e-01  1.45585000e-01  6.26000000e-01  3.38650000e+01
  5.09479000e+00  1.15879000e+00  3.25840000e-01  1.02741000e-01  7.50000000e-01
  3.38650000e+01  5.09479000e+00  1.15879000e+00  3.25840000e-01  1.02741000e-01
  7.50000000e-01  3.38650000e+01  5.09479000e+00  1.15879000e+00  3.25840000e-01
  1.02741000e-01  7.50000000e-01  3.38650000e+01  5.09479000e+00  1.15879000e+00
  3.25840000e-01  1.02741000e-01  7.50000000e-01
Contraction coefficients                   R   N=          58
  1.96665025e-03  1.52306019e-02  7.61269097e-02  2.60801033e-01  6.16462078e-01
  2.21006028e-01  1.14660081e-01  9.19999648e-01 -3.03068213e-03  4.02486927e-02
  2.37593957e-01  8.15853851e-01  1.00000000e+00  1.00000000e+00  1.00000000e+00
  1.00000000e+00  1.00000000e+00  1.96665025e-03  1.52306019e-02  7.61269097e-02
  2.60801033e-01  6.16462078e-01  2.21006028e-01  1.14660081e-01  9.19999648e-01
 -3.03068213e-03  4.02486927e-02  2.37593957e-01  8.15853851e-01  1.00000000e+00
  1.00000000e+00  1.00000000e+00  1.00000000e+00  1.00000000e+00  2.54938145e-02
  1.90373109e-01  8.52161486e-01  1.00000000e+00  1.00000000e+00  1.00000000e+00
  2.54938145e-02  1.90373109e-01  8.52161486e-01  1.00000000e+00  1.00000000e+00
  1.00000000e+00  2.54938145e-02  1.90373109e-01  8.52161486e-01  1.00000000e+00
  1.00000000e+00  1.00000000e+00  2.54938145e-02  1.90373109e-01  8.52161486e-01
  1.00000000e+00  1.00000000e+00  1.00000000e+00
Coordinates of each shell                  R   N=          96
  1.13919551e-05  1.26141632e+00  0.00000000e+00  1.13919551e-05  1.26141632e+00
  0.00000000e+00  1.13919551e-05  1.26141632e+00  0.00000000e+00  1.13919551e-05
  1.26141632e+00  0.00000000e+00  1.13919551e-05  1.26141632e+00  0.00000000e+00
  1.13919551e-05  1.26141632e+00  0.00000000e+00  1.13919551e-05  1.26141632e+00
  0.00000000e+00  1.13919551e-05  1.26141632e+00  0.00000000e+00 -1.16119059e-05
 -1.26141621e+00  0.00000000e+00 -1.16119059e-05 -1.26141621e+00  0.00000000e+00
 -1.16119059e-05 -1.26141621e+00  0.00000000e+00 -1.16119059e-05 -1.26141621e+00
  0.00000000e+00 -1.16119059e-05 -1.26141621e+00  0.00000000e+00 -1.16119059e-05
 -1.26141621e+00  0.00000000e+00 -1.16119059e-05 -1.26141621e+00  0.00000000e+00
 -1.16119059e-05 -1.26141621e+00  0.00000000e+00 -1.74398822e+00  2.33854958e+00
  0.00000000e+00 -1.74398822e+00  2.33854958e+00  0.00000000e+00 -1.74398822e+00
  2.33854958e+00  0.00000000e+00 -1.74398822e+00  2.33854958e+00  0.00000000e+00
  1.74403227e+00  2.33852150e+00  0.00000000e+00  1.74403227e+00  2.33852150e+00
  0.00000000e+00  1.74403227e+00  2.33852150e+00  0.00000000e+00  1.74403227e+00
  2.33852150e+00  0.00000000e+00  1.74398733e+00 -2.33855191e+00  0.00000000e+00
  1.74398733e+00 -2.33855191e+00  0.00000000e+00  1.74398733e+00 -2.33855191e+00
  0.00000000e+00  1.74398733e+00 -2.33855191e+00  0.00000000e+00 -1.74402876e+00
 -2.33852051e+00  0.00000000e+00 -1.74402876e+00 -2.33852051e+00  0.00000000e+00
 -1.74402876e+00 -2.33852051e+00  0.00000000e+00 -1.74402876e+00 -2.33852051e+00
  0.00000000e+00
Total Energy                               R     -7.834422331202904e+01
Alpha Orbital Energies                     R   N=          60
 -1.12300287e+01 -1.12283396e+01 -1.03091071e+00 -7.90911034e-01 -6.39976203e-01
 -5.86182526e-01 -5.04708221e-01 -3.74784467e-01  1.61746772e-01  1.71271916e-01
  1.97167605e-01  1.98939691e-01  2.62478158e-01  4.50054888e-01  4.54997643e-01
  4.73055564e-01  5.64374637e-01  5.89322575e-01  5.97665891e-01  7.17397037e-01
  7.83732611e-01  8.47109085e-01  8.72097964e-01  8.99187339e-01  9.19958702e-01
  1.04484653e+00  1.23527911e+00  1.34357586e+00  1.36096255e+00  1.60177368e+00
  1.63263541e+00  1.68683682e+00  1.80810969e+00  1.82765558e+00  1.84889192e+00
  1.86339280e+00  2.04411497e+00  2.07526032e+00  2.18973124e+00  2.27253937e+00
  2.39567829e+00  2.40749247e+00  2.45773822e+00  2.48124436e+00  2.60316036e+00
  2.64515557e+00  2.85983236e+00  2.87886485e+00  2.88518564e+00  2.95082444e+00
  3.03696073e+00  3.14330812e+00  3.23755272e+00  3.47975871e+00  3.80610446e+00
  4.04275779e+00  4.22020378e+00  4.51998863e+00  2.48823986e+01  2.54191956e+01
Alpha MO coefficients                      R   N=        3600
  3.98281349e-01  3.29842680e-01  1.55156175e-09  5.30254169e-05  0.00000000e+00
  3.05440042e-03 -6.50072631e-09 -3.19102716e-04  0.00000000e+00 -2.42955983e-04
  3.36210037e-11  1.05264775e-05  0.00000000e+00 -2.25971737e-04  0.00000000e+00
  0.00000000e+00 -2.37027964e-04  2.53456964e-09  3.98230221e-01  3.29800331e-01
 -3.95081671e-10 -5.29660876e-05  0.00000000e+00  3.05403849e-03  1.97013634e-09
  3.19008778e-04  0.00000000e+00 -2.42959343e-04  4.82362595e-10 -1.05237392e-05
  0.00000000e+00 -2.25919701e-04  0.00000000e+00  0.00000000e+00 -2.36991075e-04
  4.91448981e-09  2.99177622e-04 -5.78882478e-05  1.49549801e-04 -8.77347331e-06
 -4.53345644e-05  0.00000000e+00  2.99176549e-04 -5.78833026e-05  1.49547690e-04
  8.77097868e-06 -4.53359423e-05  0.00000000e+00  2.99139906e-04 -5.78923819e-05
  1.49541451e-04  8.77956804e-06  4.53321850e-05  0.00000000e+00  2.99140033e-04
 -5.78932502e-05  1.49542046e-04 -8.77939785e-06  4.53321582e-05  0.00000000e+00
  3.98403965e-01  3.29998337e-01  5.12613436e-09  4.61439946e-04  0.00000000e+00
  2.85748142e-03 -9.75777019e-09 -7.19810954e-04  0.00000000e+00  2.51379662e-05
 -4.94824050e-10  2.46281536e-05  0.00000000e+00 -4.15643309e-04  0.00000000e+00
  0.00000000e+00 -2.87686629e-04  3.50053783e-09 -3.98455069e-01 -3.30040659e-01
  4.09230750e-09  4.61446563e-04  0.00000000e+00 -2.85787753e-03 -5.70981598e-09
 -7.19850290e-04  0.00000000e+00 -2.51061514e-05  1.10569292e-09  2.46295441e-05
  0.00000000e+00  4.15673089e-04  0.00000000e+00  0.00000000e+00  2.87716743e-04
 -5.86635338e-09  2.93701457e-04  3.84472649e-05  5.82009067e-05  4.74200971e-05
 -2.34128452e-05  0.00000000e+00  2.93700421e-04  3.84518483e-05  5.81996642e-05
 -4.74219375e-05 -2.34131866e-05  0.00000000e+00 -2.93739810e-04 -3.84415589e-05
 -5.82199111e-05  4.74191533e-05 -2.34193449e-05  0.00000000e+00 -2.93740107e-04
 -3.84396505e-05 -5.82200704e-05 -4.74189594e-05 -2.34182667e-05  0.00000000e+00
  8.35986006e-02  1.37569192e-01  5.74862783e-07  4.96072017e-02  0.00000000e+00
 -3.47038379e-01  8.05454263e-07  7.73636429e-02  0.00000000e+00 -1.86216539e-01
  1.62437343e-07  1.35528004e-02  0.00000000e+00  1.16189558e-02  0.00000000e+00
  0.00000000e+00  1.37412126e-02 -2.47806386e-07  8.35986587e-02  1.37569286e-01
 -4.09028316e-07 -4.96071095e-02  0.00000000e+00 -3.47038566e-01 -6.51927741e-07
 -7.73635526e-02  0.00000000e+00 -1.86216597e-01 -1.08343109e-07 -1.35527621e-02
  0.00000000e+00  1.16189660e-02  0.00000000e+00  0.00000000e+00  1.37412195e-02
 -2.50415494e-07 -5.11762494e-02 -6.62331707e-02  3.98606384e-03 -1.07204405e-02
  8.71583164e-03  0.00000000e+00 -5.11759906e-02 -6.62329123e-02  3.98602142e-03
  1.07205504e-02  8.71561041e-03  0.00000000e+00 -5.11761931e-02 -6.62331166e-02
  3.98604217e-03  1.07204196e-02 -8.71583165e-03  0.00000000e+00 -5.11762681e-02
 -6.62331922e-02  3.98604297e-03 -1.07205800e-02 -8.71565304e-03  0.00000000e+00
  6.38049681e-02  1.06224897e-01 -3.41961238e-07 -7.08593352e-02  0.00000000e+00
 -2.72202279e-01 -6.82407862e-07 -1.16040557e-01  0.00000000e+00 -2.07088425e-01
 -3.21231119e-07 -4.85837877e-02  0.00000000e+00  9.28010424e-03  0.00000000e+00
  0.00000000e+00 -1.35769234e-02  2.86178650e-07 -6.38049013e-02 -1.06224781e-01
 -6.54758110e-07 -7.08597613e-02  0.00000000e+00  2.72201926e-01 -1.04793944e-06
 -1.16041140e-01  0.00000000e+00  2.07088161e-01 -4.29640575e-07 -4.85839701e-02
  0.00000000e+00 -9.28010319e-03  0.00000000e+00  0.00000000e+00  1.35769549e-02
 -2.09193819e-07 -8.78715875e-02 -1.25025037e-01 -1.65585188e-02 -1.51375689e-02
  5.49237760e-03  0.00000000e+00 -8.78711365e-02 -1.25024528e-01 -1.65584591e-02
  1.51376235e-02  5.49208864e-03  0.00000000e+00  8.78714879e-02  1.25024917e-01
  1.65585114e-02 -1.51375648e-02  5.49236999e-03  0.00000000e+00  8.78715740e-02
  1.25024997e-01  1.65585249e-02  1.51376618e-02  5.49210510e-03  0.00000000e+00
 -9.01876345e-08 -1.55684049e-07  1.40427044e-01 -1.74835811e-06  0.00000000e+00
  4.36112790e-07  2.14524257e-01 -2.60507117e-06  0.00000000e+00  4.38441627e-07
  1.12970856e-01 -1.30817527e-06  0.00000000e+00 -2.05032088e-10  0.00000000e+00
  0.00000000e+00 -1.89218911e-08  4.39423295e-03  1.05049815e-09  4.04196184e-10
  1.40427180e-01 -6.79856638e-07  0.00000000e+00  1.61203978e-08  2.14524386e-01
 -1.07051449e-06  0.00000000e+00 -9.34455668e-08  1.12970913e-01 -6.43336936e-07
  0.00000000e+00  7.50126185e-09  0.00000000e+00  0.00000000e+00 -1.59055367e-07
 -4.39428116e-03 -9.41426797e-02 -1.45160234e-01 -3.87394443e-02 -1.06765263e-02
  1.02846509e-02  0.00000000e+00  9.41423474e-02  1.45159882e-01  3.87393706e-02
 -1.06766743e-02 -1.02844992e-02  0.00000000e+00  9.41423621e-02  1.45159783e-01
  3.87393301e-02 -1.06764598e-02  1.02846977e-02  0.00000000e+00 -9.41428695e-02
 -1.45160541e-01 -3.87395431e-02 -1.06767225e-02 -1.02845020e-02  0.00000000e+00
  6.01490818e-03  1.00855721e-02  1.92629036e-06  1.82795123e-01  0.00000000e+00
 -3.11413974e-02  2.94732887e-06  2.74184667e-01  0.00000000e+00  2.21944567e-02
  1.60793352e-06  1.41868709e-01  0.00000000e+00 -2.03592295e-03  0.00000000e+00
  0.00000000e+00  2.44146765e-02 -4.45674194e-07  6.01503416e-03  1.00857856e-02
 -1.28540347e-06 -1.82795018e-01  0.00000000e+00 -3.11419626e-02 -1.88844362e-06
 -2.74184378e-01  0.00000000e+00  2.21937326e-02 -9.53374547e-07 -1.41868572e-01
  0.00000000e+00 -2.03591995e-03  0.00000000e+00  0.00000000e+00  2.44145893e-02
 -4.60139048e-07  7.45968898e-02  1.18184734e-01  4.17634421e-02  1.25918095e-02
  2.38048081e-03  0.00000000e+00  7.45973261e-02  1.18185533e-01  4.17636862e-02
 -1.25918249e-02  2.38061336e-03  0.00000000e+00  7.45972314e-02  1.18185311e-01
  4.17636028e-02 -1.25918540e-02 -2.38040505e-03  0.00000000e+00  7.45967530e-02
  1.18184507e-01  4.17632992e-02  1.25917658e-02 -2.38068387e-03  0.00000000e+00
 -4.29531614e-08 -7.61200711e-08  1.33114805e-01 -1.18741558e-06  0.00000000e+00
  1.99544725e-07  2.05669505e-01 -1.77057790e-06  0.00000000e+00  4.51598318e-07
  1.60050556e-01 -1.34661411e-06  0.00000000e+00 -1.66970319e-09  0.00000000e+00
  0.00000000e+00  7.10041736e-07  4.04413566e-02  1.56162415e-08  2.70161369e-08
 -1.33114797e-01  1.25973779e-06  0.00000000e+00 -6.99866611e-08 -2.05669459e-01
  1.97134168e-06  0.00000000e+00 -1.32095380e-07 -1.60050473e-01  1.55126030e-06
  0.00000000e+00  1.95258986e-09  0.00000000e+00  0.00000000e+00  7.10684128e-07
  4.04413944e-02 -1.11047352e-01 -1.78557261e-01 -8.18478438e-02 -6.60313845e-03
  9.11853058e-03  0.00000000e+00  1.11047437e-01  1.78557543e-01  8.18480554e-02
 -6.60332877e-03 -9.11841810e-03  0.00000000e+00 -1.11047430e-01 -1.78557409e-01
 -8.18479673e-02  6.60313497e-03 -9.11853332e-03  0.00000000e+00  1.11047323e-01
  1.78557193e-01  8.18478600e-02  6.60326827e-03  9.11841961e-03  0.00000000e+00
  0.00000000e+00  0.00000000e+00  0.00000000e+00  0.00000000e+00  1.65286142e-01
  0.00000000e+00  0.00000000e+00  0.00000000e+00  2.69163026e-01  0.00000000e+00
  0.00000000e+00  0.00000000e+00  2.79463239e-01  0.00000000e+00 -2.95867807e-07
 -3.09472293e-02  0.00000000e+00  0.00000000e+00  0.00000000e+00  0.00000000e+00
  0.00000000e+00  0.00000000e+00  1.65286126e-01  0.00000000e+00  0.00000000e+00
  0.00000000e+00  2.69163004e-01  0.00000000e+00  0.00000000e+00  0.00000000e+00
  2.79463243e-01  0.00000000e+00  2.73968142e-07  3.09472155e-02  0.00000000e+00
  0.00000000e+00  0.00000000e+00  0.00000000e+00  0.00000000e+00  0.00000000e+00
  0.00000000e+00  1.24842847e-02  0.00000000e+00  0.00000000e+00  0.00000000e+00
  0.00000000e+00  0.00000000e+00  1.24842536e-02  0.00000000e+00  0.00000000e+00
  0.00000000e+00  0.00000000e+00  0.00000000e+00  1.24842716e-02  0.00000000e+00
  0.00000000e+00  0.00000000e+00  0.00000000e+00  0.00000000e+00  1.24842830e-02
  0.00000000e+00  0.00000000e+00  0.00000000e+00  0.00000000e+00  1.62451544e-01
  0.00000000e+00  0.00000000e+00  0.00000000e+00  2.04641806e-01  0.00000000e+00
  0.00000000e+00  0.00000000e+00  7.89486029e-01  0.00000000e+00  2.35276645e-07
  2.76806253e-02  0.00000000e+00  0.00000000e+00  0.00000000e+00  0.00000000e+00
  0.00000000e+00  0.00000000e+00 -1.62451530e-01  0.00000000e+00  0.00000000e+00
  0.00000000e+00 -2.04641803e-01  0.00000000e+00  0.00000000e+00  0.00000000e+00
 -7.89486029e-01  0.00000000e+00  2.57791377e-07  2.76806410e-02  0.00000000e+00
  0.00000000e+00  0.00000000e+00  0.00000000e+00  0.00000000e+00  0.00000000e+00
  0.00000000e+00  1.84521866e-02  0.00000000e+00  0.00000000e+00  0.00000000e+00
  0.00000000e+00  0.00000000e+00  1.84521730e-02  0.00000000e+00  0.00000000e+00
  0.00000000e+00  0.00000000e+00  0.00000000e+00 -1.84521830e-02  0.00000000e+00
  0.00000000e+00  0.00000000e+00  0.00000000e+00  0.00000000e+00 -1.84522012e-02
  2.75626016e-02  4.31279784e-02 -7.25572778e-07 -6.02099501e-02  0.00000000e+00
 -3.85970146e-02 -7.92774425e-07 -5.89034002e-02  0.00000000e+00 -1.26582307e+00
 -4.75713770e-06 -4.28146818e-01  0.00000000e+00  3.09765302e-03  0.00000000e+00
  0.00000000e+00  5.05945441e-03 -4.64771395e-08  2.75625081e-02  4.31278198e-02
  4.19109049e-07  6.02098525e-02  0.00000000e+00 -3.85966117e-02  4.19128643e-07
  5.89033100e-02  0.00000000e+00 -1.26582129e+00  3.35351384e-06  4.28146851e-01
  0.00000000e+00  3.09768936e-03  0.00000000e+00  0.00000000e+00  5.05943846e-03
 -1.59785544e-07  9.34900101e-03 -5.30551921e-02  8.88996696e-01 -7.10128595e-03
  1.04579772e-03  0.00000000e+00  9.34913717e-03 -5.30551895e-02  8.88998545e-01
  7.10128226e-03  1.04567295e-03  0.00000000e+00  9.34898873e-03 -5.30550951e-02
  8.88997183e-01  7.10127256e-03 -1.04581920e-03  0.00000000e+00  9.34884261e-03
 -5.30551326e-02  8.88995391e-01 -7.10127212e-03 -1.04565468e-03  0.00000000e+00
 -8.09108476e-07 -1.36727502e-06  9.92032848e-02  1.37246083e-07  0.00000000e+00
  2.34773605e-06  4.14756010e-02 -1.22748809e-06  0.00000000e+00  2.76005497e-05
  6.65177147e-01  2.81205664e-06  0.00000000e+00 -9.05866834e-08  0.00000000e+00
  0.00000000e+00 -1.16000748e-06 -3.61808735e-02  8.61497053e-07  1.42549219e-06
  9.92031394e-02  1.53558463e-07  0.00000000e+00 -2.03542126e-06  4.14752293e-02
 -1.42743660e-06  0.00000000e+00 -3.21868746e-05  6.65175801e-01  3.54400684e-06
  0.00000000e+00  9.72706442e-08  0.00000000e+00  0.00000000e+00  1.19474002e-06
  3.61810069e-02  1.60881638e-02 -9.43615394e-02  1.19567761e+00 -2.26923380e-02
  1.38825343e-02  0.00000000e+00 -1.60891714e-02  9.43653873e-02 -1.19572659e+00
 -2.26929399e-02 -1.38827070e-02  0.00000000e+00 -1.60882586e-02  9.43611657e-02
 -1.19567413e+00 -2.26923086e-02  1.38825560e-02  0.00000000e+00  1.60890086e-02
 -9.43661063e-02  1.19572904e+00 -2.26930750e-02 -1.38828333e-02  0.00000000e+00
  3.36504250e-02  5.60599185e-02  1.92380250e-06 -4.26129406e-02  0.00000000e+00
 -8.29809944e-02  1.03536568e-06  4.33745006e-02  0.00000000e+00 -1.26503510e+00
  1.28241654e-05 -3.64147766e-01  0.00000000e+00  4.17619855e-03  0.00000000e+00
  0.00000000e+00  2.32545449e-02 -1.33445331e-06 -3.36504501e-02 -5.60599455e-02
  2.10104507e-06 -4.26130033e-02  0.00000000e+00  8.29807790e-02  1.51823883e-06
  4.33745851e-02  0.00000000e+00  1.26503835e+00  1.32449093e-05 -3.64148917e-01
  0.00000000e+00 -4.17621827e-03  0.00000000e+00  0.00000000e+00 -2.32545275e-02
  1.27682328e-06  1.62219737e-02 -9.57299359e-02  1.08604115e+00 -9.88463167e-03
  1.32481205e-02  0.00000000e+00  1.62213400e-02 -9.57251449e-02  1.08598180e+00
  9.88363565e-03  1.32472543e-02  0.00000000e+00 -1.62219337e-02  9.57302845e-02
 -1.08604272e+00 -9.88457987e-03  1.32481609e-02  0.00000000e+00 -1.62211949e-02
  9.57252905e-02 -1.08598430e+00  9.88371426e-03  1.32473221e-02  0.00000000e+00
  6.76051773e-09  1.52575859e-09  9.31774043e-02 -8.01788088e-07  0.00000000e+00
  1.87788255e-07  3.43616920e-02 -6.72241216e-08  0.00000000e+00 -3.13112115e-06
  1.40531785e+00 -1.23021702e-05  0.00000000e+00  3.91711966e-08  0.00000000e+00
  0.00000000e+00  7.70674898e-08  1.92541899e-03  7.84197726e-09  1.46225433e-08
 -9.31774854e-02  7.93247837e-07  0.00000000e+00 -1.14366054e-07 -3.43615499e-02
  4.24659347e-07  0.00000000e+00  1.69937011e-06 -1.40531836e+00  1.26801843e-05
  0.00000000e+00 -8.67452513e-09  0.00000000e+00  0.00000000e+00  1.85197263e-08
  1.92531968e-03 -1.12353638e-02 -4.20079463e-02  1.66241187e+00 -1.31602178e-02
  2.84027390e-03  0.00000000e+00  1.12351490e-02  4.20076852e-02 -1.66240883e+00
 -1.31601682e-02 -2.83995374e-03  0.00000000e+00 -1.12352517e-02 -4.20082469e-02
  1.66241254e+00  1.31602558e-02 -2.84027025e-03  0.00000000e+00  1.12353197e-02
  4.20084003e-02 -1.66241430e+00  1.31603287e-02  2.84007809e-03  0.00000000e+00
  1.50564348e-02  2.34348582e-02  6.24739902e-07  7.12969018e-02  0.00000000e+00
  1.71144530e-02  4.78550168e-07  6.10255577e-02  0.00000000e+00 -3.56576123e+00
  2.88701580e-05  3.35350638e+00  0.00000000e+00  5.36991134e-03  0.00000000e+00
  0.00000000e+00 -1.25504891e-02  1.79283981e-07 -1.50571701e-02 -2.34364804e-02
  5.97753077e-07  7.12981538e-02  0.00000000e+00 -1.71076824e-02  5.14437689e-07
  6.10367367e-02  0.00000000e+00  3.56583336e+00  3.12928022e-05  3.35342914e+00
  0.00000000e+00 -5.36934677e-03  0.00000000e+00  0.00000000e+00  1.25501032e-02
 -2.65668062e-07 -2.00580718e-02 -3.20506066e-01 -5.76299316e-01  4.34953741e-03
  3.80104432e-03  0.00000000e+00 -2.00580401e-02 -3.20506124e-01 -5.76295720e-01
 -4.34956659e-03  3.80112778e-03  0.00000000e+00  2.00563236e-02  3.20456475e-01
  5.76296324e-01  4.35029470e-03  3.79907638e-03  0.00000000e+00  2.00562225e-02
  3.20456425e-01  5.76298583e-01 -4.35019944e-03  3.79920728e-03  0.00000000e+00
  1.05138832e-02  2.35118979e-02 -1.56357750e-08  2.17231649e-02  0.00000000e+00
 -1.02101972e-01  1.45380688e-06  1.73877482e-01  0.00000000e+00 -1.10345022e+00
 -8.25250581e-06 -1.17071334e+00  0.00000000e+00 -6.27365938e-03  0.00000000e+00
  0.00000000e+00  5.71728687e-03  1.51741790e-07  1.05127539e-02  2.35101419e-02
 -2.54678713e-07 -2.17182829e-02  0.00000000e+00 -1.02103267e-01 -1.89002125e-06
 -1.73873034e-01  0.00000000e+00 -1.10319657e+00  6.42202995e-06  1.17095251e+00
  0.00000000e+00 -6.27397462e-03  0.00000000e+00  0.00000000e+00  5.71817616e-03
 -1.77680921e-07  2.27688471e-02  7.25966741e-01  2.83503604e-02  1.10494628e-02
 -2.89469810e-02  0.00000000e+00  2.27693113e-02  7.25969053e-01  2.83455794e-02
 -1.10498504e-02 -2.89465004e-02  0.00000000e+00  2.27704076e-02  7.25992154e-01
  2.83904565e-02 -1.10493067e-02  2.89470801e-02  0.00000000e+00  2.27700374e-02
  7.25985765e-01  2.83921914e-02  1.10495586e-02  2.89468806e-02  0.00000000e+00
 -6.07591344e-08 -6.06775358e-08  3.09853576e-02 -3.43712914e-08  0.00000000e+00
 -5.52505258e-07  1.36366601e-01 -8.01807234e-08  0.00000000e+00 -2.89298492e-06
  6.83783129e-01 -1.17888208e-05  0.00000000e+00  1.39503284e-07  0.00000000e+00
  0.00000000e+00 -2.36068367e-07 -1.33577723e-02  9.64467046e-08  2.02637462e-07
  3.09852513e-02 -6.36580679e-07  0.00000000e+00 -9.15240328e-07  1.36366806e-01
 -2.35440976e-06  0.00000000e+00 -6.43051277e-06  6.83787117e-01 -2.06773048e-06
  0.00000000e+00  5.07816901e-08  0.00000000e+00  0.00000000e+00  2.08385192e-07
  1.33574571e-02  6.22751851e-02  8.21220134e-01 -1.73223120e-01  3.90157198e-02
  1.05902406e-02  0.00000000e+00 -6.22754175e-02 -8.21219402e-01  1.73228102e-01
  3.90152785e-02 -1.05911736e-02  0.00000000e+00 -6.22752455e-02 -8.21218046e-01
  1.73224081e-01  3.90156350e-02  1.05902367e-02  0.00000000e+00  6.22754120e-02
  8.21224034e-01 -1.73224137e-01  3.90156093e-02 -1.05906284e-02  0.00000000e+00
  8.05862911e-03  2.19678216e-02  9.64492633e-07  9.61561096e-02  0.00000000e+00
 -3.70043343e-01  3.51442584e-06  4.81631822e-01  0.00000000e+00  8.11766065e-01
 -6.27174377e-06 -4.22410193e-01  0.00000000e+00  2.66581841e-02  0.00000000e+00
  0.00000000e+00  1.35009164e-02 -4.67315563e-07  8.05891115e-03  2.19682904e-02
 -9.42246136e-07 -9.61562411e-02  0.00000000e+00 -3.70043678e-01 -4.83255460e-06
 -4.81631650e-01  0.00000000e+00  8.11740517e-01  1.53105258e-06  4.22392983e-01
  0.00000000e+00  2.66580772e-02  0.00000000e+00  0.00000000e+00  1.35006973e-02
 -1.14935835e-07 -3.08299998e-02 -5.87353934e-01  6.13884032e-02 -2.92433252e-02
  8.50303903e-03  0.00000000e+00 -3.08299527e-02 -5.87350226e-01  6.13920029e-02
  2.92428400e-02  8.50216475e-03  0.00000000e+00 -3.08295511e-02 -5.87346082e-01
  6.13849655e-02  2.92429536e-02 -8.50277951e-03  0.00000000e+00 -3.08298148e-02
 -5.87350784e-01  6.13855287e-02 -2.92434644e-02 -8.50229163e-03  0.00000000e+00
  0.00000000e+00  0.00000000e+00  0.00000000e+00  0.00000000e+00  1.31966053e-01
  0.00000000e+00  0.00000000e+00  0.00000000e+00  6.39565709e-01  0.00000000e+00
  0.00000000e+00  0.00000000e+00 -6.87287866e-01  0.00000000e+00 -5.63184029e-07
 -6.01287301e-02  0.00000000e+00  0.00000000e+00  0.00000000e+00  0.00000000e+00
  0.00000000e+00  0.00000000e+00  1.31966007e-01  0.00000000e+00  0.00000000e+00
  0.00000000e+00  6.39565597e-01  0.00000000e+00  0.00000000e+00  0.00000000e+00
 -6.87287700e-01  0.00000000e+00  5.36910836e-07  6.01287315e-02  0.00000000e+00
  0.00000000e+00  0.00000000e+00  0.00000000e+00  0.00000000e+00  0.00000000e+00
  0.00000000e+00  5.00627448e-03  0.00000000e+00  0.00000000e+00  0.00000000e+00
  0.00000000e+00  0.00000000e+00  5.00618833e-03  0.00000000e+00  0.00000000e+00
  0.00000000e+00  0.00000000e+00  0.00000000e+00  5.00624657e-03  0.00000000e+00
  0.00000000e+00  0.00000000e+00  0.00000000e+00  0.00000000e+00  5.00626638e-03
  4.39315920e-02  7.70768097e-02 -9.87742342e-09  3.57760709e-02  0.00000000e+00
 -6.48994948e-02 -7.08723221e-07 -1.06891784e-01  0.00000000e+00 -3.79398394e+00
  1.79992137e-05  1.48136781e+00  0.00000000e+00  1.74726540e-03  0.00000000e+00
  0.00000000e+00 -5.88113591e-02  1.33046252e-06 -4.39314694e-02 -7.70765744e-02
  5.86845915e-07  3.57757340e-02  0.00000000e+00  6.48967767e-02 -6.33699970e-07
 -1.06894241e-01  0.00000000e+00  3.79399770e+00  1.46294820e-05  1.48136423e+00
  0.00000000e+00 -1.74728133e-03  0.00000000e+00  0.00000000e+00  5.88115205e-02
 -1.04941675e-06  4.93914041e-02  9.86625818e-01 -4.57138177e-01  2.61097514e-02
 -2.91323870e-02  0.00000000e+00  4.93913778e-02  9.86621788e-01 -4.57143178e-01
 -2.61095673e-02 -2.91315605e-02  0.00000000e+00 -4.93916332e-02 -9.86631841e-01
  4.57139365e-01  2.61099045e-02 -2.91323427e-02  0.00000000e+00 -4.93913433e-02
 -9.86627696e-01  4.57137565e-01 -2.61103592e-02 -2.91321211e-02  0.00000000e+00
  0.00000000e+00  0.00000000e+00  0.00000000e+00  0.00000000e+00  1.82397311e-01
  0.00000000e+00  0.00000000e+00  0.00000000e+00  7.23861933e-01  0.00000000e+00
  0.00000000e+00  0.00000000e+00 -1.21744766e+00  0.00000000e+00  3.29619203e-07
  3.75375517e-02  0.00000000e+00  0.00000000e+00  0.00000000e+00  0.00000000e+00
  0.00000000e+00  0.00000000e+00 -1.82397320e-01  0.00000000e+00  0.00000000e+00
  0.00000000e+00 -7.23862028e-01  0.00000000e+00  0.00000000e+00  0.00000000e+00
  1.21744777e+00  0.00000000e+00  3.39604823e-07  3.75375467e-02  0.00000000e+00
  0.00000000e+00  0.00000000e+00  0.00000000e+00  0.00000000e+00  0.00000000e+00
  0.00000000e+00  2.65169430e-02  0.00000000e+00  0.00000000e+00  0.00000000e+00
  0.00000000e+00  0.00000000e+00  2.65167609e-02  0.00000000e+00  0.00000000e+00
  0.00000000e+00  0.00000000e+00  0.00000000e+00 -2.65168717e-02  0.00000000e+00
  0.00000000e+00  0.00000000e+00  0.00000000e+00  0.00000000e+00 -2.65168945e-02
 -1.53117470e-07 -3.14398603e-07  1.53969481e-01 -1.10729629e-06  0.00000000e+00
  2.55447982e-06  7.36273957e-01 -6.12566847e-06  0.00000000e+00 -6.87859219e-06
 -1.33152236e+00  1.10326325e-05  0.00000000e+00  1.05351466e-07  0.00000000e+00
  0.00000000e+00 -1.54527547e-06 -7.38110244e-02 -1.24589980e-07 -2.49734877e-07
  1.53968628e-01 -1.49422369e-06  0.00000000e+00  1.51481340e-06  7.36271701e-01
 -6.74326471e-06  0.00000000e+00 -3.47821056e-07 -1.33152649e+00  1.40884287e-05
  0.00000000e+00  2.10572208e-08  0.00000000e+00  0.00000000e+00  1.22009726e-06
  7.38111066e-02  2.14175273e-02  1.28801290e-01 -1.02871275e+00 -2.67514156e-02
  6.79734593e-03  0.00000000e+00 -2.14176870e-02 -1.28798656e-01  1.02871420e+00
 -2.67523312e-02 -6.79713229e-03  0.00000000e+00 -2.14175044e-02 -1.28796113e-01
  1.02871374e+00 -2.67518363e-02  6.79738338e-03  0.00000000e+00  2.14173256e-02
  1.28795735e-01 -1.02871123e+00 -2.67515831e-02 -6.79677005e-03  0.00000000e+00
 -4.73657425e-07 -1.00843005e-06  2.05646097e-01 -8.25332611e-07  0.00000000e+00
  8.48250378e-06  7.44522938e-01 -4.15849520e-06  0.00000000e+00 -2.27699659e-05
 -2.21819239e+00  1.56018926e-05  0.00000000e+00  3.04177729e-07  0.00000000e+00
  0.00000000e+00 -7.35693789e-07 -9.86151302e-03 -3.17785555e-07 -6.61124750e-07
 -2.05646548e-01  1.82813097e-06  0.00000000e+00  3.94840759e-06 -7.44525810e-01
  7.25825153e-06  0.00000000e+00 -4.21192286e-07  2.21819613e+00 -1.64779678e-05
  0.00000000e+00  9.71068662e-09  0.00000000e+00  0.00000000e+00 -3.67692592e-07
 -9.86168879e-03  3.30336295e-02  1.14640131e-01 -1.24743420e+00 -2.81078078e-02
  6.76038651e-02  0.00000000e+00 -3.30342208e-02 -1.14635277e-01  1.24744456e+00
 -2.81111825e-02 -6.76041193e-02  0.00000000e+00  3.30338928e-02  1.14638021e-01
 -1.24744177e+00  2.81084007e-02 -6.76041128e-02  0.00000000e+00 -3.30340789e-02
 -1.14640881e-01  1.24744671e+00  2.81101111e-02  6.76038105e-02  0.00000000e+00
  7.56331932e-02  1.61070527e-01  4.54022418e-07 -9.83769924e-02  0.00000000e+00
 -1.20316772e+00  3.04553077e-06 -2.01440280e-01  0.00000000e+00  2.13372798e+00
 -1.89272538e-05  6.04355178e-01  0.00000000e+00 -3.51395160e-02  0.00000000e+00
  0.00000000e+00  8.61464117e-02 -2.15432834e-06  7.56329598e-02  1.61069980e-01
  1.91402477e-07  9.83757578e-02  0.00000000e+00 -1.20316141e+00 -5.93568891e-07
  2.01434538e-01  0.00000000e+00  2.13370317e+00  1.39764261e-05 -6.04351996e-01
  0.00000000e+00 -3.51393481e-02  0.00000000e+00  0.00000000e+00  8.61460213e-02