
    -----------------------------------------------------------------------
          Psi4: An Open-Source Ab Initio Electronic Structure Package
                               Psi4 1.3.2 release

                         Git: Rev {HEAD} ecbda83 


    R. M. Parrish, L. A. Burns, D. G. A. Smith, A. C. Simmonett,
    A. E. DePrince III, E. G. Hohenstein, U. Bozkaya, A. Yu. Sokolov,
    R. Di Remigio, R. M. Richard, J. F. Gonthier, A. M. James,
    H. R. McAlexander, A. Kumar, M. Saitow, X. Wang, B. P. Pritchard,
    P. Verma, H. F. Schaefer III, K. Patkowski, R. A. King, E. F. Valeev,
    F. A. Evangelista, J. M. Turney, T. D. Crawford, and C. D. Sherrill,
    J. Chem. Theory Comput. 13(7) pp 3185--3197 (2017).
    (doi: 10.1021/acs.jctc.7b00174)


                         Additional Contributions by
    P. Kraus, H. Kruse, M. H. Lechner, M. C. Schieber, R. A. Shaw,
    A. Alenaizan, R. Galvelis, Z. L. Glick, S. Lehtola, and J. P. Misiewicz

    -----------------------------------------------------------------------


    Psi4 started on: Wednesday, 19 May 2021 01:16AM

    Process ID: 326751
    Host:       daniele-Precision-5750
    PSIDATADIR: /home/daniele/anaconda3/envs/poltype/share/psi4
    Memory:     500.0 MiB
    Threads:    1
    
  ==> Input File <==

--------------------------------------------------------------------------
molecule { 
0 1
H -1.853399133481 -2.021944065594 0.010287561311
C -1.251879818347 -1.116576440305 0.009532189160
C -1.871112285134 0.134779811264 0.032915796238
H -2.954446267882 0.210285975325 0.051958156871
C -1.087166468108 1.286659578587 0.031637215830
H -1.555713897809 2.267349252083 0.049677841095
C 0.304348570917 1.194151531038 0.007231402073
H 0.913254282565 2.097195329370 0.006327260005
C 0.913777319763 -0.061512279412 -0.016025535292
C 0.135592299911 -1.220803009747 -0.014924483549
H 0.633760379768 -2.185585220695 -0.033301490654
O 2.276791516025 -0.226853169214 -0.040706059958
H 2.693357312673 0.652822999878 -0.038620909978
}
memory 700MB
set_num_threads(8)
psi4_io.set_default_path("/home/daniele/PSI4_sctatch/Psi4-phenol")
set freeze_core True
set PROPERTIES_ORIGIN ["COM"]
set cubeprop_tasks ['esp']
E, wfn = energy('mp2/6-311G**',properties=['dipole'],return_wfn=True)
cubeprop(wfn)
fchk(wfn, "phenol-dma.fchk")
clean()
--------------------------------------------------------------------------

  Memory set to 667.572 MiB by Python driver.
  Threads set to 8 by Python driver.
    SCF Algorithm Type (re)set to DF.

*** tstart() called on daniele-Precision-5750
*** at Wed May 19 01:16:06 2021

   => Loading Basis Set <=

    Name: 6-311G**
    Role: ORBITAL
    Keyword: BASIS
    atoms 1, 4, 6, 8, 11, 13 entry H          line    32 file /home/daniele/anaconda3/envs/poltype/share/psi4/basis/6-311gss.gbs 
    atoms 2-3, 5, 7, 9-10    entry C          line   113 file /home/daniele/anaconda3/envs/poltype/share/psi4/basis/6-311gss.gbs 
    atoms 12                 entry O          line   151 file /home/daniele/anaconda3/envs/poltype/share/psi4/basis/6-311gss.gbs 


         ---------------------------------------------------------
                                   SCF
               by Justin Turney, Rob Parrish, Andy Simmonett
                          and Daniel G. A. Smith
                              RHF Reference
                        8 Threads,    667 MiB Core
         ---------------------------------------------------------

  ==> Geometry <==

    Molecular point group: c1
    Full point group: C1

    Geometry (in Angstrom), charge = 0, multiplicity = 1:

       Center              X                  Y                   Z               Mass       
    ------------   -----------------  -----------------  -----------------  -----------------
         H           -1.853399133481    -2.021944065594     0.010287561311     1.007825032230
         C           -1.251879818347    -1.116576440305     0.009532189160    12.000000000000
         C           -1.871112285134     0.134779811264     0.032915796238    12.000000000000
         H           -2.954446267882     0.210285975325     0.051958156871     1.007825032230
         C           -1.087166468108     1.286659578587     0.031637215830    12.000000000000
         H           -1.555713897809     2.267349252083     0.049677841095     1.007825032230
         C            0.304348570917     1.194151531038     0.007231402073    12.000000000000
         H            0.913254282565     2.097195329370     0.006327260005     1.007825032230
         C            0.913777319763    -0.061512279412    -0.016025535292    12.000000000000
         C            0.135592299911    -1.220803009747    -0.014924483549    12.000000000000
         H            0.633760379768    -2.185585220695    -0.033301490654     1.007825032230
         O            2.276791516025    -0.226853169214    -0.040706059958    15.994914619570
         H            2.693357312673     0.652822999878    -0.038620909978     1.007825032230

  Running in c1 symmetry.

  Rotational constants: A =      0.18864  B =      0.08727  C =      0.05967 [cm^-1]
  Rotational constants: A =   5655.22576  B =   2616.41739  C =   1788.81400 [MHz]
  Nuclear repulsion =  270.897602981994851

  Charge       = 0
  Multiplicity = 1
  Electrons    = 50
  Nalpha       = 25
  Nbeta        = 25

  ==> Algorithm <==

  SCF Algorithm Type is DF.
  DIIS enabled.
  MOM disabled.
  Fractional occupation disabled.
  Guess Type is SAD.
  Energy threshold   = 1.00e-08
  Density threshold  = 1.00e-08
  Integral threshold = 0.00e+00

  ==> Primary Basis <==

  Basis Set: 6-311G**
    Blend: 6-311G**
    Number of shells: 80
    Number of basis function: 162
    Number of Cartesian functions: 169
    Spherical Harmonics?: true
    Max angular momentum: 2

   => Loading Basis Set <=

    Name: (6-311G** AUX)
    Role: JKFIT
    Keyword: DF_BASIS_SCF
    atoms 1, 4, 6, 8, 11, 13 entry H          line    51 file /home/daniele/anaconda3/envs/poltype/share/psi4/basis/cc-pvtz-jkfit.gbs 
    atoms 2-3, 5, 7, 9-10    entry C          line   125 file /home/daniele/anaconda3/envs/poltype/share/psi4/basis/cc-pvtz-jkfit.gbs 
    atoms 12                 entry O          line   229 file /home/daniele/anaconda3/envs/poltype/share/psi4/basis/cc-pvtz-jkfit.gbs 

  ==> Pre-Iterations <==

   -------------------------------------------------------
    Irrep   Nso     Nmo     Nalpha   Nbeta   Ndocc  Nsocc
   -------------------------------------------------------
     A        162     162       0       0       0       0
   -------------------------------------------------------
    Total     162     162      25      25      25       0
   -------------------------------------------------------

  ==> Integral Setup <==

  DFHelper Memory: AOs need 0.148 GiB; user supplied 0.489 GiB. Using in-core AOs.

  ==> MemDFJK: Density-Fitted J/K Matrices <==

    J tasked:                   Yes
    K tasked:                   Yes
    wK tasked:                   No
    OpenMP threads:               8
    Memory [MiB]:               500
    Algorithm:                 Core
    Schwarz Cutoff:           1E-12
    Mask sparsity (%):       4.5572
    Fitting Condition:        1E-10

   => Auxiliary Basis Set <=

  Basis Set: (6-311G** AUX)
    Blend: CC-PVTZ-JKFIT
    Number of shells: 235
    Number of basis function: 733
    Number of Cartesian functions: 882
    Spherical Harmonics?: true
    Max angular momentum: 4

  Minimum eigenvalue in the overlap matrix is 2.2026560239E-04.
  Using Symmetric Orthogonalization.

  SCF Guess: Superposition of Atomic Densities via on-the-fly atomic UHF.

  ==> Iterations <==

                           Total Energy        Delta E     RMS |[F,P]|

   @DF-RHF iter SAD:  -304.99544308759363   -3.04995e+02   0.00000e+00 
   @DF-RHF iter   1:  -305.47634301255522   -4.80900e-01   3.20248e-03 DIIS
   @DF-RHF iter   2:  -305.60638668824117   -1.30044e-01   1.44594e-03 DIIS
   @DF-RHF iter   3:  -305.62996773827973   -2.35811e-02   2.91833e-04 DIIS
   @DF-RHF iter   4:  -305.63163903739820   -1.67130e-03   1.11806e-04 DIIS
   @DF-RHF iter   5:  -305.63182148536896   -1.82448e-04   2.25608e-05 DIIS
   @DF-RHF iter   6:  -305.63183530327967   -1.38179e-05   6.89397e-06 DIIS
   @DF-RHF iter   7:  -305.63183686062882   -1.55735e-06   2.64441e-06 DIIS
   @DF-RHF iter   8:  -305.63183704959783   -1.88969e-07   9.39972e-07 DIIS
   @DF-RHF iter   9:  -305.63183708212540   -3.25276e-08   2.87576e-07 DIIS
   @DF-RHF iter  10:  -305.63183708724955   -5.12415e-09   1.60704e-07 DIIS
   @DF-RHF iter  11:  -305.63183708900419   -1.75464e-09   6.70083e-08 DIIS
   @DF-RHF iter  12:  -305.63183708940221   -3.98018e-10   2.08343e-08 DIIS
   @DF-RHF iter  13:  -305.63183708942654   -2.43290e-11   1.01936e-08 DIIS
   @DF-RHF iter  14:  -305.63183708942984   -3.29692e-12   2.47830e-09 DIIS
  Energy and wave function converged.


  ==> Post-Iterations <==

    Orbital Energies [Eh]
    ---------------------

    Doubly Occupied:                                                      

       1A    -20.583678     2A    -11.304322     3A    -11.243377  
       4A    -11.241091     5A    -11.235284     6A    -11.228503  
       7A    -11.228047     8A     -1.399227     9A     -1.147125  
      10A     -1.020094    11A     -1.004365    12A     -0.845359  
      13A     -0.821282    14A     -0.729775    15A     -0.683626  
      16A     -0.650616    17A     -0.608928    18A     -0.591380  
      19A     -0.586232    20A     -0.566568    21A     -0.515964  
      22A     -0.493946    23A     -0.482001    24A     -0.342426  
      25A     -0.314773  

    Virtual:                                                              

      26A      0.127793    27A      0.147074    28A      0.148965  
      29A      0.161366    30A      0.186190    31A      0.205038  
      32A      0.228650    33A      0.240649    34A      0.352650  
      35A      0.389112    36A      0.405437    37A      0.433976  
      38A      0.451524    39A      0.470562    40A      0.519735  
      41A      0.544282    42A      0.570244    43A      0.581210  
      44A      0.592494    45A      0.616074    46A      0.624137  
      47A      0.625406    48A      0.630111    49A      0.635827  
      50A      0.642929    51A      0.716372    52A      0.724115  
      53A      0.733388    54A      0.761631    55A      0.804451  
      56A      0.814624    57A      0.821563    58A      0.822301  
      59A      0.829085    60A      0.876580    61A      0.899166  
      62A      0.926453    63A      0.939161    64A      0.999575  
      65A      1.030010    66A      1.054252    67A      1.064121  
      68A      1.068598    69A      1.110166    70A      1.116262  
      71A      1.195196    72A      1.211607    73A      1.212010  
      74A      1.240704    75A      1.275653    76A      1.320881  
      77A      1.350398    78A      1.382362    79A      1.432119  
      80A      1.452450    81A      1.532142    82A      1.642891  
      83A      1.667530    84A      1.708498    85A      1.742171  
      86A      1.762072    87A      1.813585    88A      1.815589  
      89A      1.822215    90A      1.859098    91A      1.866777  
      92A      1.871099    93A      1.894517    94A      1.956535  
      95A      2.008564    96A      2.024885    97A      2.050398  
      98A      2.051795    99A      2.111322   100A      2.188610  
     101A      2.199880   102A      2.202203   103A      2.216269  
     104A      2.226083   105A      2.238467   106A      2.264133  
     107A      2.285236   108A      2.324019   109A      2.337105  
     110A      2.371501   111A      2.573970   112A      2.588501  
     113A      2.616794   114A      2.651918   115A      2.655759  
     116A      2.700789   117A      2.767275   118A      2.802938  
     119A      2.898067   120A      2.915445   121A      2.926506  
     122A      2.940325   123A      2.944425   124A      2.946865  
     125A      2.949618   126A      2.992789   127A      3.074639  
     128A      3.105770   129A      3.152510   130A      3.169411  
     131A      3.224741   132A      3.240869   133A      3.272425  
     134A      3.422055   135A      3.445819   136A      3.474824  
     137A      3.530152   138A      3.561857   139A      3.735547  
     140A      3.771704   141A      3.804409   142A      3.883101  
     143A      3.894947   144A      3.966882   145A      4.045669  
     146A      4.254935   147A      4.361476   148A      4.410331  
     149A      4.488051   150A      4.519172   151A      4.524266  
     152A      5.266769   153A      5.371772   154A      5.883213  
     155A      6.241959   156A     24.624328   157A     25.062002  
     158A     25.099325   159A     25.227889   160A     25.258211  
     161A     25.346878   162A     51.607901  

    Final Occupation by Irrep:
              A 
    DOCC [    25 ]

  @DF-RHF Final Energy:  -305.63183708942984

   => Energetics <=

    Nuclear Repulsion Energy =            270.8976029819948508
    One-Electron Energy =                -951.3229028201767505
    Two-Electron Energy =                 374.7934627487520629
    Total Energy =                       -305.6318370894298369

Computation Completed


Properties will be evaluated at  -0.000000,   0.000000,  -0.000000 [a0]

Properties computed using the SCF density matrix

  Nuclear Dipole Moment: [e a0]
     X:    -1.9795      Y:     0.9552      Z:     0.0432

  Electronic Dipole Moment: [e a0]
     X:     1.8978      Y:    -0.3838      Z:    -0.0359

  Dipole Moment: [e a0]
     X:    -0.0817      Y:     0.5714      Z:     0.0073     Total:     0.5773

  Dipole Moment: [D]
     X:    -0.2075      Y:     1.4524      Z:     0.0185     Total:     1.4673


*** tstop() called on daniele-Precision-5750 at Wed May 19 01:16:08 2021
Module time:
	user time   =      11.07 seconds =       0.18 minutes
	system time =       0.17 seconds =       0.00 minutes
	total time  =          2 seconds =       0.03 minutes
Total time:
	user time   =      11.07 seconds =       0.18 minutes
	system time =       0.17 seconds =       0.00 minutes
	total time  =          2 seconds =       0.03 minutes

*** tstart() called on daniele-Precision-5750
*** at Wed May 19 01:16:08 2021


  //>>>>>>>>>>>>>>>>>>>>>>>>>>>>>>>>>>>//
  //               DFMP2               //
  //<<<<<<<<<<<<<<<<<<<<<<<<<<<<<<<<<<<//

   => Loading Basis Set <=

    Name: (6-311G** AUX)
    Role: RIFIT
    Keyword: DF_BASIS_MP2
    atoms 1, 4, 6, 8, 11, 13 entry H          line    19 file /home/daniele/anaconda3/envs/poltype/share/psi4/basis/cc-pvtz-ri.gbs 
    atoms 2-3, 5, 7, 9-10    entry C          line   209 file /home/daniele/anaconda3/envs/poltype/share/psi4/basis/cc-pvtz-ri.gbs 
    atoms 12                 entry O          line   305 file /home/daniele/anaconda3/envs/poltype/share/psi4/basis/cc-pvtz-ri.gbs 

	 --------------------------------------------------------
	                          DF-MP2                         
	      2nd-Order Density-Fitted Moller-Plesset Theory     
	              RMP2 Wavefunction,   8 Threads             
	                                                         
	        Rob Parrish, Justin Turney, Andy Simmonett,      
	           Ed Hohenstein, and C. David Sherrill          
	 --------------------------------------------------------

   => Auxiliary Basis Set <=

  Basis Set: (6-311G** AUX)
    Blend: CC-PVTZ-RI
    Number of shells: 221
    Number of basis function: 747
    Number of Cartesian functions: 917
    Spherical Harmonics?: true
    Max angular momentum: 4

	 --------------------------------------------------------
	                 NBF =   162, NAUX =   747
	 --------------------------------------------------------
	   CLASS    FOCC     OCC    AOCC    AVIR     VIR    FVIR
	   PAIRS       7      25      18     137     137       0
	 --------------------------------------------------------

	-----------------------------------------------------------
	 ==================> DF-MP2 Energies <==================== 
	-----------------------------------------------------------
	 Reference Energy          =    -305.6318370894298369 [Eh]
	 Singles Energy            =      -0.0000000000000000 [Eh]
	 Same-Spin Energy          =      -0.2710120831428422 [Eh]
	 Opposite-Spin Energy      =      -0.7509539412215744 [Eh]
	 Correlation Energy        =      -1.0219660243644166 [Eh]
	 Total Energy              =    -306.6538031137942539 [Eh]
	-----------------------------------------------------------
	 ================> DF-SCS-MP2 Energies <================== 
	-----------------------------------------------------------
	 SCS Same-Spin Scale       =       0.3333333333333333 [-]
	 SCS Opposite-Spin Scale   =       1.2000000000000000 [-]
	 SCS Same-Spin Energy      =      -0.0903373610476141 [Eh]
	 SCS Opposite-Spin Energy  =      -0.9011447294658893 [Eh]
	 SCS Correlation Energy    =      -0.9914820905135033 [Eh]
	 SCS Total Energy          =    -306.6233191799433371 [Eh]
	-----------------------------------------------------------


*** tstop() called on daniele-Precision-5750 at Wed May 19 01:16:08 2021
Module time:
	user time   =       5.31 seconds =       0.09 minutes
	system time =       0.11 seconds =       0.00 minutes
	total time  =          0 seconds =       0.00 minutes
Total time:
	user time   =      16.39 seconds =       0.27 minutes
	system time =       0.28 seconds =       0.00 minutes
	total time  =          2 seconds =       0.03 minutes
  ==> One Electron Grid Properties (v2.0) <==

  ==> CubicScalarGrid <==

    Filepath     = .
    Total Points =           335160
    XYZ Blocking =               10
    X Points     =               95
    Y Points     =               84
    Z Points     =               42
    X Spacing    =        2.000E-01
    Y Spacing    =        2.000E-01
    Z Spacing    =        2.000E-01
    X Minimum    =       -9.647E+00
    Y Minimum    =       -8.223E+00
    Z Minimum    =       -4.089E+00
    X Maximum    =        9.153E+00
    Y Maximum    =        8.377E+00
    Z Maximum    =        4.111E+00

  Basis Set: 6-311G**
    Blend: 6-311G**
    Number of shells: 80
    Number of basis function: 162
    Number of Cartesian functions: 169
    Spherical Harmonics?: true
    Max angular momentum: 2


    Psi4 stopped on: Wednesday, 19 May 2021 01:16AM
    Psi4 wall time for execution: 0:00:07.69

*** Psi4 exiting successfully. Buy a developer a beer!
