Generated by Psi4
        SP                        DF-MP2                      6-311G**
Number of atoms                            I               13
Charge                                     I                0
Multiplicity                               I                1
Number of electrons                        I               50
Number of alpha electrons                  I               25
Number of beta electrons                   I               25
Number of basis functions                  I              162
Number of independent functions            I              162
Atomic numbers                             I   N=          13
           1           6           6           1           6           1
           6           1           6           6           1           8
           1
Nuclear charges                            R   N=          13
  1.00000000e+00  6.00000000e+00  6.00000000e+00  1.00000000e+00  6.00000000e+00
  1.00000000e+00  6.00000000e+00  1.00000000e+00  6.00000000e+00  6.00000000e+00
  1.00000000e+00  8.00000000e+00  1.00000000e+00
Current cartesian coordinates              R   N=          39
 -3.50241676e+00 -3.82092052e+00  1.94406734e-02 -2.36571000e+00 -2.11002367e+00
  1.80132269e-02 -3.53588977e+00  2.54696931e-01  6.22018401e-02 -5.58309430e+00
  3.97382901e-01  9.81866865e-02 -2.05444688e+00  2.43143422e+00  5.97856733e-02
 -2.93987320e+00  4.28466912e+00  9.38775142e-02  5.75135446e-01  2.25661935e+00
  1.36653694e-02  1.72580048e+00  3.96312480e+00  1.19567885e-02  1.72678887e+00
 -1.16241361e-01 -3.02838727e-02  2.56232312e-01 -2.30698334e+00 -2.82031865e-02
  1.19763355e+00 -4.13015749e+00 -6.29306969e-02  4.30251241e+00 -4.28690361e-01
 -7.69233050e-02  5.08970768e+00  1.23365668e+00 -7.29829426e-02
Integer atomic weights                     I   N=          13
           1          12          12           1          12           1
          12           1          12          12           1          15
           1
Real atomic weights                        R   N=          13
  1.00782503e+00  1.20000000e+01  1.20000000e+01  1.00782503e+00  1.20000000e+01
  1.00782503e+00  1.20000000e+01  1.00782503e+00  1.20000000e+01  1.20000000e+01
  1.00782503e+00  1.59949146e+01  1.00782503e+00
Number of primitive shells                 I              155
Number of contracted shells                I               80
Pure/Cartesian d shells                    I                0
Pure/Cartesian f shells                    I                0
Highest angular momentum                   I                2
Largest degree of contraction              I                6
Shell types                                I   N=          80
           0           0           0           1           0           0
           1           0           1           0           1          -2
           0           0           1           0           1           0
           1          -2           0           0           0           1
           0           0           1           0           1           0
           1          -2           0           0           0           1
           0           0           1           0           1           0
           1          -2           0           0           0           1
           0           0           1           0           1           0
           1          -2           0           0           1           0
           1           0           1          -2           0           0
           0           1           0           0           1           0
           1           0           1          -2           0           0
           0           1
Number of primitives per shell             I   N=          80
           3           1           1           1           6           3
           3           1           1           1           1           1
           6           3           3           1           1           1
           1           1           3           1           1           1
           6           3           3           1           1           1
           1           1           3           1           1           1
           6           3           3           1           1           1
           1           1           3           1           1           1
           6           3           3           1           1           1
           1           1           6           3           3           1
           1           1           1           1           3           1
           1           1           6           3           3           1
           1           1           1           1           3           1
           1           1
Shell to atom map                          I   N=          80
           1           1           1           1           2           2
           2           2           2           2           2           2
           3           3           3           3           3           3
           3           3           4           4           4           4
           5           5           5           5           5           5
           5           5           6           6           6           6
           7           7           7           7           7           7
           7           7           8           8           8           8
           9           9           9           9           9           9
           9           9          10          10          10          10
          10          10          10          10          11          11
          11          11          12          12          12          12
          12          12          12          12          13          13
          13          13
Primitive exponents                        R   N=         155
  3.38650000e+01  5.09479000e+00  1.15879000e+00  3.25840000e-01  1.02741000e-01
  7.50000000e-01  4.56324000e+03  6.82024000e+02  1.54973000e+02  4.44553000e+01
  1.30290000e+01  1.82773000e+00  2.09642000e+01  4.80331000e+00  1.45933000e+00
  2.09642000e+01  4.80331000e+00  1.45933000e+00  4.83456000e-01  4.83456000e-01
  1.45585000e-01  1.45585000e-01  6.26000000e-01  4.56324000e+03  6.82024000e+02
  1.54973000e+02  4.44553000e+01  1.30290000e+01  1.82773000e+00  2.09642000e+01
  4.80331000e+00  1.45933000e+00  2.09642000e+01  4.80331000e+00  1.45933000e+00
  4.83456000e-01  4.83456000e-01  1.45585000e-01  1.45585000e-01  6.26000000e-01
  3.38650000e+01  5.09479000e+00  1.15879000e+00  3.25840000e-01  1.02741000e-01
  7.50000000e-01  4.56324000e+03  6.82024000e+02  1.54973000e+02  4.44553000e+01
  1.30290000e+01  1.82773000e+00  2.09642000e+01  4.80331000e+00  1.45933000e+00
  2.09642000e+01  4.80331000e+00  1.45933000e+00  4.83456000e-01  4.83456000e-01
  1.45585000e-01  1.45585000e-01  6.26000000e-01  3.38650000e+01  5.09479000e+00
  1.15879000e+00  3.25840000e-01  1.02741000e-01  7.50000000e-01  4.56324000e+03
  6.82024000e+02  1.54973000e+02  4.44553000e+01  1.30290000e+01  1.82773000e+00
  2.09642000e+01  4.80331000e+00  1.45933000e+00  2.09642000e+01  4.80331000e+00
  1.45933000e+00  4.83456000e-01  4.83456000e-01  1.45585000e-01  1.45585000e-01
  6.26000000e-01  3.38650000e+01  5.09479000e+00  1.15879000e+00  3.25840000e-01
  1.02741000e-01  7.50000000e-01  4.56324000e+03  6.82024000e+02  1.54973000e+02
  4.44553000e+01  1.30290000e+01  1.82773000e+00  2.09642000e+01  4.80331000e+00
  1.45933000e+00  2.09642000e+01  4.80331000e+00  1.45933000e+00  4.83456000e-01
  4.83456000e-01  1.45585000e-01  1.45585000e-01  6.26000000e-01  4.56324000e+03
  6.82024000e+02  1.54973000e+02  4.44553000e+01  1.30290000e+01  1.82773000e+00
  2.09642000e+01  4.80331000e+00  1.45933000e+00  2.09642000e+01  4.80331000e+00
  1.45933000e+00  4.83456000e-01  4.83456000e-01  1.45585000e-01  1.45585000e-01
  6.26000000e-01  3.38650000e+01  5.09479000e+00  1.15879000e+00  3.25840000e-01
  1.02741000e-01  7.50000000e-01  8.58850000e+03  1.29723000e+03  2.99296000e+02
  8.73771000e+01  2.56789000e+01  3.74004000e+00  4.21175000e+01  9.62837000e+00
  2.85332000e+00  4.21175000e+01  9.62837000e+00  2.85332000e+00  9.05661000e-01
  9.05661000e-01  2.55611000e-01  2.55611000e-01  1.29200000e+00  3.38650000e+01
  5.09479000e+00  1.15879000e+00  3.25840000e-01  1.02741000e-01  7.50000000e-01
Contraction coefficients                   R   N=         155
  2.54938145e-02  1.90373109e-01  8.52161486e-01  1.00000000e+00  1.00000000e+00
  1.00000000e+00  1.96665025e-03  1.52306019e-02  7.61269097e-02  2.60801033e-01
  6.16462078e-01  2.21006028e-01  1.14660081e-01  9.19999648e-01 -3.03068213e-03
  4.02486927e-02  2.37593957e-01  8.15853851e-01  1.00000000e+00  1.00000000e+00
  1.00000000e+00  1.00000000e+00  1.00000000e+00  1.96665025e-03  1.52306019e-02
  7.61269097e-02  2.60801033e-01  6.16462078e-01  2.21006028e-01  1.14660081e-01
  9.19999648e-01 -3.03068213e-03  4.02486927e-02  2.37593957e-01  8.15853851e-01
  1.00000000e+00  1.00000000e+00  1.00000000e+00  1.00000000e+00  1.00000000e+00
  2.54938145e-02  1.90373109e-01  8.52161486e-01  1.00000000e+00  1.00000000e+00
  1.00000000e+00  1.96665025e-03  1.52306019e-02  7.61269097e-02  2.60801033e-01
  6.16462078e-01  2.21006028e-01  1.14660081e-01  9.19999648e-01 -3.03068213e-03
  4.02486927e-02  2.37593957e-01  8.15853851e-01  1.00000000e+00  1.00000000e+00
  1.00000000e+00  1.00000000e+00  1.00000000e+00  2.54938145e-02  1.90373109e-01
  8.52161486e-01  1.00000000e+00  1.00000000e+00  1.00000000e+00  1.96665025e-03
  1.52306019e-02  7.61269097e-02  2.60801033e-01  6.16462078e-01  2.21006028e-01
  1.14660081e-01  9.19999648e-01 -3.03068213e-03  4.02486927e-02  2.37593957e-01
  8.15853851e-01  1.00000000e+00  1.00000000e+00  1.00000000e+00  1.00000000e+00
  1.00000000e+00  2.54938145e-02  1.90373109e-01  8.52161486e-01  1.00000000e+00
  1.00000000e+00  1.00000000e+00  1.96665025e-03  1.52306019e-02  7.61269097e-02
  2.60801033e-01  6.16462078e-01  2.21006028e-01  1.14660081e-01  9.19999648e-01
 -3.03068213e-03  4.02486927e-02  2.37593957e-01  8.15853851e-01  1.00000000e+00
  1.00000000e+00  1.00000000e+00  1.00000000e+00  1.00000000e+00  1.96665025e-03
  1.52306019e-02  7.61269097e-02  2.60801033e-01  6.16462078e-01  2.21006028e-01
  1.14660081e-01  9.19999648e-01 -3.03068213e-03  4.02486927e-02  2.37593957e-01
  8.15853851e-01  1.00000000e+00  1.00000000e+00  1.00000000e+00  1.00000000e+00
  1.00000000e+00  2.54938145e-02  1.90373109e-01  8.52161486e-01  1.00000000e+00
  1.00000000e+00  1.00000000e+00  1.89515008e-03  1.43859006e-02  7.07320031e-02
  2.40001011e-01  5.94797026e-01  2.80802012e-01  1.13889012e-01  9.20811101e-01
 -3.27447036e-03  3.65113974e-02  2.37152983e-01  8.19701941e-01  1.00000000e+00
  1.00000000e+00  1.00000000e+00  1.00000000e+00  1.00000000e+00  2.54938145e-02
  1.90373109e-01  8.52161486e-01  1.00000000e+00  1.00000000e+00  1.00000000e+00
Coordinates of each shell                  R   N=         240
 -3.50241676e+00 -3.82092052e+00  1.94406734e-02 -3.50241676e+00 -3.82092052e+00
  1.94406734e-02 -3.50241676e+00 -3.82092052e+00  1.94406734e-02 -3.50241676e+00
 -3.82092052e+00  1.94406734e-02 -2.36571000e+00 -2.11002367e+00  1.80132269e-02
 -2.36571000e+00 -2.11002367e+00  1.80132269e-02 -2.36571000e+00 -2.11002367e+00
  1.80132269e-02 -2.36571000e+00 -2.11002367e+00  1.80132269e-02 -2.36571000e+00
 -2.11002367e+00  1.80132269e-02 -2.36571000e+00 -2.11002367e+00  1.80132269e-02
 -2.36571000e+00 -2.11002367e+00  1.80132269e-02 -2.36571000e+00 -2.11002367e+00
  1.80132269e-02 -3.53588977e+00  2.54696931e-01  6.22018401e-02 -3.53588977e+00
  2.54696931e-01  6.22018401e-02 -3.53588977e+00  2.54696931e-01  6.22018401e-02
 -3.53588977e+00  2.54696931e-01  6.22018401e-02 -3.53588977e+00  2.54696931e-01
  6.22018401e-02 -3.53588977e+00  2.54696931e-01  6.22018401e-02 -3.53588977e+00
  2.54696931e-01  6.22018401e-02 -3.53588977e+00  2.54696931e-01  6.22018401e-02
 -5.58309430e+00  3.97382901e-01  9.81866865e-02 -5.58309430e+00  3.97382901e-01
  9.81866865e-02 -5.58309430e+00  3.97382901e-01  9.81866865e-02 -5.58309430e+00
  3.97382901e-01  9.81866865e-02 -2.05444688e+00  2.43143422e+00  5.97856733e-02
 -2.05444688e+00  2.43143422e+00  5.97856733e-02 -2.05444688e+00  2.43143422e+00
  5.97856733e-02 -2.05444688e+00  2.43143422e+00  5.97856733e-02 -2.05444688e+00
  2.43143422e+00  5.97856733e-02 -2.05444688e+00  2.43143422e+00  5.97856733e-02
 -2.05444688e+00  2.43143422e+00  5.97856733e-02 -2.05444688e+00  2.43143422e+00
  5.97856733e-02 -2.93987320e+00  4.28466912e+00  9.38775142e-02 -2.93987320e+00
  4.28466912e+00  9.38775142e-02 -2.93987320e+00  4.28466912e+00  9.38775142e-02
 -2.93987320e+00  4.28466912e+00  9.38775142e-02  5.75135446e-01  2.25661935e+00
  1.36653694e-02  5.75135446e-01  2.25661935e+00  1.36653694e-02  5.75135446e-01
  2.25661935e+00  1.36653694e-02  5.75135446e-01  2.25661935e+00  1.36653694e-02
  5.75135446e-01  2.25661935e+00  1.36653694e-02  5.75135446e-01  2.25661935e+00
  1.36653694e-02  5.75135446e-01  2.25661935e+00  1.36653694e-02  5.75135446e-01
  2.25661935e+00  1.36653694e-02  1.72580048e+00  3.96312480e+00  1.19567885e-02
  1.72580048e+00  3.96312480e+00  1.19567885e-02  1.72580048e+00  3.96312480e+00
  1.19567885e-02  1.72580048e+00  3.96312480e+00  1.19567885e-02  1.72678887e+00
 -1.16241361e-01 -3.02838727e-02  1.72678887e+00 -1.16241361e-01 -3.02838727e-02
  1.72678887e+00 -1.16241361e-01 -3.02838727e-02  1.72678887e+00 -1.16241361e-01
 -3.02838727e-02  1.72678887e+00 -1.16241361e-01 -3.02838727e-02  1.72678887e+00
 -1.16241361e-01 -3.02838727e-02  1.72678887e+00 -1.16241361e-01 -3.02838727e-02
  1.72678887e+00 -1.16241361e-01 -3.02838727e-02  2.56232312e-01 -2.30698334e+00
 -2.82031865e-02  2.56232312e-01 -2.30698334e+00 -2.82031865e-02  2.56232312e-01
 -2.30698334e+00 -2.82031865e-02  2.56232312e-01 -2.30698334e+00 -2.82031865e-02
  2.56232312e-01 -2.30698334e+00 -2.82031865e-02  2.56232312e-01 -2.30698334e+00
 -2.82031865e-02  2.56232312e-01 -2.30698334e+00 -2.82031865e-02  2.56232312e-01
 -2.30698334e+00 -2.82031865e-02  1.19763355e+00 -4.13015749e+00 -6.29306969e-02
  1.19763355e+00 -4.13015749e+00 -6.29306969e-02  1.19763355e+00 -4.13015749e+00
 -6.29306969e-02  1.19763355e+00 -4.13015749e+00 -6.29306969e-02  4.30251241e+00
 -4.28690361e-01 -7.69233050e-02  4.30251241e+00 -4.28690361e-01 -7.69233050e-02
  4.30251241e+00 -4.28690361e-01 -7.69233050e-02  4.30251241e+00 -4.28690361e-01
 -7.69233050e-02  4.30251241e+00 -4.28690361e-01 -7.69233050e-02  4.30251241e+00
 -4.28690361e-01 -7.69233050e-02  4.30251241e+00 -4.28690361e-01 -7.69233050e-02
  4.30251241e+00 -4.28690361e-01 -7.69233050e-02  5.08970768e+00  1.23365668e+00
 -7.29829426e-02  5.08970768e+00  1.23365668e+00 -7.29829426e-02  5.08970768e+00
  1.23365668e+00 -7.29829426e-02  5.08970768e+00  1.23365668e+00 -7.29829426e-02
Total Energy                               R     -3.066538031137943e+02
Alpha Orbital Energies                     R   N=         162
 -2.05836776e+01 -1.13043220e+01 -1.12433769e+01 -1.12410913e+01 -1.12352842e+01
 -1.12285031e+01 -1.12280468e+01 -1.39922709e+00 -1.14712481e+00 -1.02009366e+00
 -1.00436469e+00 -8.45359066e-01 -8.21281633e-01 -7.29775325e-01 -6.83626197e-01
 -6.50615977e-01 -6.08928030e-01 -5.91380125e-01 -5.86231915e-01 -5.66568262e-01
 -5.15964355e-01 -4.93946227e-01 -4.82001131e-01 -3.42425623e-01 -3.14772779e-01
  1.27792801e-01  1.47074449e-01  1.48964953e-01  1.61365966e-01  1.86189848e-01
  2.05037852e-01  2.28649860e-01  2.40649243e-01  3.52650205e-01  3.89111841e-01
  4.05436802e-01  4.33975977e-01  4.51523716e-01  4.70561671e-01  5.19734955e-01
  5.44281637e-01  5.70244318e-01  5.81210125e-01  5.92493993e-01  6.16074385e-01
  6.24136757e-01  6.25406346e-01  6.30110985e-01  6.35827176e-01  6.42929369e-01
  7.16372428e-01  7.24115414e-01  7.33387607e-01  7.61630917e-01  8.04451377e-01
  8.14624303e-01  8.21562961e-01  8.22301481e-01  8.29084595e-01  8.76580056e-01
  8.99165850e-01  9.26453020e-01  9.39160908e-01  9.99574844e-01  1.03000958e+00
  1.05425156e+00  1.06412119e+00  1.06859827e+00  1.11016602e+00  1.11626198e+00
  1.19519606e+00  1.21160712e+00  1.21201003e+00  1.24070361e+00  1.27565334e+00
  1.32088140e+00  1.35039783e+00  1.38236195e+00  1.43211881e+00  1.45245039e+00
  1.53214196e+00  1.64289119e+00  1.66752991e+00  1.70849833e+00  1.74217118e+00
  1.76207188e+00  1.81358525e+00  1.81558942e+00  1.82221476e+00  1.85909785e+00
  1.86677685e+00  1.87109854e+00  1.89451671e+00  1.95653468e+00  2.00856389e+00
  2.02488534e+00  2.05039839e+00  2.05179467e+00  2.11132249e+00  2.18860977e+00
  2.19987970e+00  2.20220271e+00  2.21626943e+00  2.22608274e+00  2.23846737e+00
  2.26413272e+00  2.28523644e+00  2.32401913e+00  2.33710515e+00  2.37150059e+00
  2.57396952e+00  2.58850136e+00  2.61679389e+00  2.65191849e+00  2.65575933e+00
  2.70078938e+00  2.76727547e+00  2.80293844e+00  2.89806668e+00  2.91544496e+00
  2.92650619e+00  2.94032541e+00  2.94442503e+00  2.94686535e+00  2.94961844e+00
  2.99278899e+00  3.07463904e+00  3.10577026e+00  3.15251018e+00  3.16941080e+00
  3.22474097e+00  3.24086906e+00  3.27242536e+00  3.42205484e+00  3.44581947e+00
  3.47482406e+00  3.53015235e+00  3.56185750e+00  3.73554691e+00  3.77170352e+00
  3.80440887e+00  3.88310064e+00  3.89494700e+00  3.96688151e+00  4.04566874e+00
  4.25493543e+00  4.36147595e+00  4.41033054e+00  4.48805124e+00  4.51917169e+00
  4.52426641e+00  5.26676913e+00  5.37177201e+00  5.88321251e+00  6.24195881e+00
  2.46243280e+01  2.50620017e+01  2.50993250e+01  2.52278885e+01  2.52582109e+01
  2.53468782e+01  5.16079011e+01
Alpha MO coefficients                      R   N=       26244
  4.60456024e-06  3.67570488e-07  3.01948654e-05 -8.87210915e-08  2.79712081e-06
  3.08763454e-08  4.56396230e-07 -9.97659418e-07 -5.39125185e-06 -4.48779255e-07
  8.60395524e-08  4.37868398e-06  3.38361760e-05  5.47139029e-06 -5.12784680e-07
  9.28870375e-04  2.50356441e-04  1.82775026e-04 -2.32942930e-06  4.47910348e-06
 -4.92239010e-08  2.29604884e-08  4.98275824e-06 -9.22135736e-06  5.02615985e-07
 -2.41981679e-06  9.09514309e-07  3.68103164e-06  2.26998888e-08  3.20704662e-05
 -6.09481458e-06 -2.06563889e-05 -1.10782681e-07 -5.95364472e-04 -3.62542041e-04
  3.79146893e-05  6.49993798e-06  6.03955834e-06  1.25733324e-08 -2.28679800e-08
  4.76186430e-06 -7.99333393e-06  6.51514248e-06 -5.22111228e-05 -5.90298745e-05
 -1.10427669e-06  1.95469303e-07  2.09080028e-08 -1.14699523e-07  1.88180909e-06
 -6.57904468e-06  3.07191453e-06  1.42593551e-07 -2.83218045e-05  2.32913318e-05
 -1.78885788e-05 -5.77308528e-07  1.16808311e-03  3.61642591e-04 -3.78465556e-04
 -1.00141267e-05 -2.13761546e-06  6.26536609e-08 -8.22906636e-08 -2.17947259e-06
  8.54649815e-06 -1.30215046e-06  3.42612300e-05  6.55152942e-05 -8.02771980e-06
 -4.01008107e-06  9.42428355e-08 -1.01818278e-06 -1.33551143e-06  8.74121392e-06
 -2.56831471e-05 -4.12942436e-07  5.30745100e-05 -4.24381656e-05  1.51070425e-04
  2.27809987e-06 -1.69850168e-03  7.48526609e-04  7.89857704e-04 -4.44009273e-06
  1.83789859e-05  6.77376352e-07 -1.40317875e-06  2.24322080e-05  5.00356699e-05
  2.23655671e-05 -2.60261401e-04 -1.63488356e-04  1.33382538e-05  3.71622800e-05
  1.61284371e-07  1.91244579e-06  4.19617679e-05 -2.82159117e-05  1.65561669e-05
  6.47032520e-07 -2.20220146e-04 -3.16992748e-04 -9.20746490e-07  5.33085928e-06
  6.04614492e-04 -1.62667319e-03  6.43327868e-04  3.40624769e-05  3.16504874e-05
  3.99735366e-06  1.93550485e-06 -1.98586228e-04 -2.66119147e-05 -5.66448109e-07
 -7.25818729e-07  7.20919527e-06  1.87073392e-05  7.23103480e-08  2.37286849e-05
 -1.72978676e-05 -1.02985000e-04 -7.75086556e-07 -6.85600968e-04  7.23966741e-04
 -5.52136961e-04 -1.79134742e-05  9.10923946e-06  8.29398832e-08  7.66673548e-07
 -1.67578986e-05 -4.49629214e-05  1.40322567e-05 -2.36618826e-04 -1.56277558e-04
  2.41381849e-05 -3.34118937e-05 -7.51778835e-07 -5.51462600e-01 -4.71660880e-01
  8.84374558e-04 -1.53934999e-03 -3.08389690e-05 -5.68419448e-03 -2.98832986e-04
  6.33805557e-04  1.15960136e-05  1.58940966e-03 -3.35305586e-04 -1.14863920e-04
  4.46505739e-06 -1.44091971e-04 -4.76971244e-06  1.06764698e-06  6.43364777e-05
  5.04815774e-05 -1.88303899e-04 -2.27609002e-04  3.01811393e-05  1.23180956e-04
  1.01589858e-04 -1.02467378e-06 -8.58727757e-06  6.43242619e-05  4.48374111e-05
  1.57163714e-05 -8.29300843e-06 -3.50914829e-07  9.41587059e-06  8.48639666e-06
 -4.21000079e-06 -9.81911477e-06 -3.05241836e-08 -2.20018075e-05  1.85033435e-05
  2.64158755e-05 -3.89513274e-08  1.34539151e-05 -9.19596029e-05  2.78857605e-04
  4.44039449e-06 -4.07046004e-06  1.93164516e-07 -7.52467601e-07  8.42126155e-06
  4.38140706e-05 -6.97180914e-05 -5.74884250e-05  1.12104618e-06 -5.10402739e-08
 -1.95062226e-08  3.57597758e-06 -1.39314280e-05  1.13320632e-06  2.46899055e-07
 -4.20741826e-04 -8.43124201e-05  4.60909548e-05  1.89337574e-06 -4.44303464e-06
  1.66586896e-07  2.11386627e-07 -1.62502370e-05  2.16812595e-06  1.85889832e-07
  2.40269762e-05 -1.03009334e-05  4.73299680e-06 -1.59144356e-06 -9.59067201e-08
  8.64625528e-06  7.47967086e-06 -3.10553185e-06  1.05258368e-05  1.61520931e-07
 -2.03004532e-05  1.73044709e-05 -3.05429174e-05 -6.08461912e-07  5.45395584e-05
 -4.79972588e-05 -1.94709532e-04 -1.20280685e-06 -5.93643862e-06 -5.79475409e-07
  8.89231946e-07 -3.22864958e-06 -4.44677402e-05 -8.62299976e-06  5.66506964e-05
  3.08041557e-05  1.41816406e-05  5.13965360e-06 -1.86047941e-07  4.82867843e-03
  3.95311901e-03  8.94243422e-05 -2.06751131e-04 -3.64598324e-06  2.47178825e-04
  4.62473507e-05  3.99239299e-05 -3.66617470e-07  1.51977947e-04 -1.38750251e-04
 -3.66970608e-05  1.95456260e-06  8.16676311e-05  2.03086045e-06 -3.80196059e-07
 -1.34987024e-05 -5.59857529e-05  2.03354856e-05 -6.46007166e-05  9.82850131e-05
  2.48024094e-05 -5.34656113e-06 -4.73084280e-07  5.63408486e-01  4.66544827e-01
  1.29628924e-03 -6.06692771e-05 -2.24696130e-05  3.87524394e-03 -1.16608616e-03
  6.42600212e-05  2.03055562e-05  4.69484933e-05  7.12061162e-04 -1.79563840e-04
 -1.38505972e-05 -3.82582575e-04 -4.65361403e-06  9.42708536e-06 -3.48470541e-04
  6.18428409e-05  4.38405543e-03  3.58695478e-03  1.16119294e-04  1.94021825e-04
  5.30366376e-08  2.34776603e-04  3.44794682e-05 -5.09242905e-05 -1.10890637e-06
  5.04593168e-05 -2.90318168e-04 -5.88133536e-05  4.27830721e-06  8.22398891e-05
  2.83869679e-06 -2.34471998e-06  4.07812989e-06  4.90200684e-05  1.75034917e-05
 -4.92384128e-05  4.61276525e-05  3.02384151e-05  2.02837412e-06 -4.88176629e-07
 -8.46651291e-05 -1.62918482e-04 -1.15364473e-04  2.48377490e-05  2.20087232e-06
  4.73381982e-04 -6.29667864e-04  5.64238028e-05  1.11961897e-05 -1.77585901e-04
  9.24346027e-05  8.08046507e-05 -7.24463694e-07 -9.46065126e-05 -7.12228651e-06
  9.82107293e-07  2.06728172e-04 -8.45339569e-05  1.40804592e-05 -7.42297714e-05
 -9.48795120e-05  1.79379731e-06 -3.55435028e-05 -3.97844213e-07  2.32811796e-06
  7.05785588e-06 -1.60174576e-05 -1.24075745e-05  7.92258414e-06  2.90625353e-07
  4.24904707e-03  3.51601623e-03 -7.76038078e-06  3.77132862e-06  1.69926304e-07
  5.50811164e-05  5.96901897e-06  5.83832208e-06 -4.07482277e-08 -5.21919543e-04
  9.00554533e-06 -2.00940916e-04 -2.22761246e-06  1.68308316e-06  6.48308319e-07
 -1.87008896e-08 -2.61011890e-05  1.53590351e-05  2.24759406e-02  1.85615966e-02
  1.26131072e-04  1.86719278e-04 -1.91419652e-07  3.97033537e-04  3.29189449e-05
  5.93420556e-05  5.92996909e-08  6.10523806e-04  3.58259399e-04 -1.40477743e-04
 -7.49128325e-06  5.44814966e-05  2.78734450e-06 -1.83511178e-06 -2.88800095e-05
  6.85972573e-05  2.30473030e-05  1.00269691e-05  1.11823901e-04  4.62130394e-06
  3.20333383e-05  2.53371334e-07  5.61294329e-01  4.64871311e-01  4.57058448e-05
  1.66042841e-04  9.42677561e-07  4.19621449e-03  1.28648193e-05 -2.82183150e-04
 -3.13818800e-06 -5.74945362e-04 -1.61987725e-04  6.21842747e-04  9.16798096e-06
 -4.24903039e-04 -1.18560242e-05  5.62551402e-06  2.92558543e-05  1.00408805e-04
  4.31529362e-04 -2.66825738e-04  6.76274847e-05 -2.14668067e-06 -2.10839569e-06
  1.37701434e-08  4.18925418e-02  3.46363438e-02 -2.06556386e-04  1.64598659e-05
  3.65159643e-06  5.76291720e-04 -1.61860293e-04  9.62836106e-06  2.82626210e-06
  7.49776317e-04  6.88665403e-05 -5.56687389e-04 -6.92309631e-06  2.62735459e-05
 -1.28959244e-06 -1.32804840e-06  1.11311788e-04 -1.75397439e-05  3.81777782e-05
  2.53393829e-05  1.21450266e-04 -3.66629005e-05  1.21424324e-05  7.43027564e-07
 -3.73118262e-04 -3.16260505e-04 -4.91349280e-06  1.16945463e-05  2.04137118e-07
  4.76331984e-05 -8.89395482e-06  3.09494073e-05  4.69032171e-07 -6.26479400e-04
  1.90187071e-04 -4.52714707e-04 -7.88236308e-06  7.89405197e-06 -3.75824267e-07
  1.40821588e-07  1.86350117e-05 -2.81995205e-05 -2.16004975e-04 -1.79105236e-04
 -9.62016983e-07 -3.14966373e-06 -1.65420105e-08 -4.13679410e-06  5.30274001e-07
  1.15495203e-05  1.11324050e-07  7.55183668e-07 -1.94738668e-04  1.32783966e-04
  4.65063650e-06 -4.45621255e-06 -7.58587134e-08 -1.89780025e-07  4.80141775e-06
  1.30662742e-05 -3.07772658e-06  7.03439598e-05  3.78131314e-05 -2.98181146e-06
  6.91010858e-06  1.21987133e-07 -2.31135927e-07 -3.47891007e-07 -1.00353425e-06
  1.35140585e-06  3.07072906e-08  2.21697373e-07 -1.96602386e-06 -3.56586739e-06
 -3.07926547e-09  1.22562521e-06  1.71782986e-05  7.34433863e-05  4.68211480e-07
 -1.86711201e-06 -9.42500477e-09  1.32303942e-07 -4.55457343e-06 -3.06761412e-06
 -3.18964589e-06 -2.41845299e-05 -1.98821205e-05 -1.82793516e-06  8.02666550e-06
  1.14181857e-07  4.32929680e-04 -2.59969400e-04  7.19254955e-05 -4.56830591e-07
  3.74654693e-06  4.60347182e-08  5.62047279e-01  4.65496962e-01 -4.02910440e-05
 -1.31701949e-04 -6.90037566e-07  4.19874842e-03  1.22314809e-04  2.34836510e-04
  3.70564031e-07 -5.71002266e-04 -2.89564806e-04 -5.42813123e-04 -7.40315861e-07
 -4.29630736e-04 -1.40537415e-05  9.02105830e-06  3.04274362e-05 -9.65891325e-05
  2.55779171e-02  2.11292084e-02  9.51572339e-05 -2.01608085e-04 -3.68976068e-06
  4.28530055e-04  3.80935802e-05 -9.30727791e-05 -1.60561801e-06  5.81203381e-04
  3.71679644e-04  1.24686928e-04 -4.97213359e-06  4.56192468e-05  1.52138366e-06
  9.09468132e-07 -5.39171212e-05 -6.93778311e-05  2.54865425e-05  1.65036629e-05
  1.07584871e-04  2.72622648e-06 -3.35261794e-05 -3.93473360e-07 -5.16415984e-03
 -4.28095631e-03 -9.06865791e-06 -6.15332501e-06  8.92923364e-08 -1.04103569e-05
  3.81758525e-07 -6.84336116e-06 -7.77824776e-08 -5.03387446e-04  5.88529895e-05
  2.02885866e-04  1.11312430e-06  9.60431029e-06  7.56770404e-07  2.57000747e-07
 -3.18860646e-05 -5.89851433e-06 -4.21888023e-06  9.63092112e-06 -1.99767733e-05
 -1.37074581e-05 -6.76239494e-06  1.60506463e-07 -1.51836930e-03 -1.25686426e-03
  3.19824599e-06  1.76843210e-06 -3.57658734e-08 -1.72038490e-05 -1.01673210e-06
 -5.74942778e-06 -4.15551935e-08  3.21724979e-06 -1.64656075e-04 -1.04616729e-04
  1.68662465e-06 -4.03774090e-06 -2.91405389e-07  2.53020622e-07  2.68026772e-06
 -1.23737717e-05 -3.47835510e-06  6.19237463e-05  3.37882869e-05 -2.44176501e-06
 -6.34070943e-06 -2.43649116e-08 -2.11433922e-04 -1.79760814e-04 -1.84948440e-06
 -6.84221479e-06 -3.94382997e-08  3.29590717e-05 -1.62152113e-05 -2.22813413e-05
  4.15833105e-08 -5.48506001e-04  1.85670668e-04  3.34779765e-04  3.44180824e-07
  6.72628997e-06 -3.46739459e-08 -6.47675589e-07  2.39014576e-05  1.65914810e-05
  2.74309452e-02  2.26609522e-02 -2.20503938e-04  2.05269551e-05  3.92803634e-06
  4.55679072e-04 -1.18732126e-04 -9.10083229e-07  1.99024464e-06  6.76874566e-04
  8.64057577e-05  4.68001166e-04  3.38942839e-06  4.18641610e-05 -5.94324840e-07
 -1.40575071e-06  9.56142242e-05 -1.98842937e-05  2.50587030e-05  1.33257679e-05
  1.05262321e-04 -3.46900928e-05 -1.46192694e-05  4.32866260e-07 -4.31623595e-07
 -7.95912225e-07 -3.99638885e-07  4.81627236e-07  1.15726493e-08  2.07803909e-06
 -3.95789895e-06 -6.53138882e-07  6.04580790e-08  1.76994285e-05 -1.35955412e-05
 -2.79443526e-05 -6.20590567e-08  1.21866174e-07  4.83396325e-08 -9.14730585e-08
  4.36117117e-07  5.02474474e-06  3.18788695e-06 -1.16761761e-05 -7.13628390e-06
  6.53308377e-06 -9.38591151e-07 -1.19742611e-07 -2.41572293e-06  5.11201062e-05
  2.91581831e-05  3.36715435e-06  2.89870112e-06 -2.68173289e-08  1.35169308e-03
  1.12172837e-03  2.76116162e-07 -1.82738724e-06 -2.35111171e-08 -8.04527073e-06
 -1.12384355e-06 -5.40755681e-06 -3.73744589e-08  7.31235101e-05  6.47075550e-05
  1.61988893e-04  5.89683188e-07 -8.59943769e-06 -5.63128516e-07  3.10124496e-07
  9.31115688e-06 -1.49803738e-05 -3.97687131e-03 -3.28965624e-03 -1.27383165e-05
 -1.21047231e-05  8.90305646e-08 -3.82736327e-05 -5.47644572e-06 -1.78391226e-05
 -9.17434808e-08 -4.62443895e-04 -1.69892243e-04 -1.14604297e-04  1.67238296e-06
 -8.32785859e-07 -6.15080512e-07 -3.69792366e-07  3.56365454e-05  9.54178340e-07
 -6.54051824e-06  4.72516674e-06 -2.16507455e-05 -2.71351417e-06  1.09884954e-05
  1.59953330e-07 -4.19563716e-02 -3.48004440e-02  2.33368663e-04 -2.91301927e-05
 -4.23313027e-06 -8.72348853e-05  2.79617074e-05  3.14542938e-05 -1.44513668e-07
  5.37147797e-04  3.26844685e-05 -3.77669833e-04 -4.45989295e-06  1.03815861e-04
  1.95644492e-06 -2.21756695e-06  5.57522371e-05 -1.31314199e-05 -2.59899470e-05
  2.60159558e-05  8.89939916e-05  2.85966419e-05  1.44577090e-05 -3.31914764e-07
  5.61710547e-01  4.65237093e-01  1.90608455e-04  4.64630106e-05 -2.71763686e-06
  4.33780689e-03 -2.22589755e-04 -1.82329069e-04  1.86168235e-06 -3.94630500e-04
  3.79724848e-04  3.59084021e-04 -2.68016868e-06 -3.93675954e-04 -1.33040349e-05
  7.71457590e-06  6.08019321e-05 -7.60765003e-05  4.24287048e-04 -2.67659288e-04
  1.18212571e-04  9.20744898e-06  1.03105541e-05 -4.75428566e-08 -4.98727448e-03
 -4.19239966e-03 -1.06494378e-04  2.09582160e-04  3.96280790e-06  2.53693874e-04
 -3.95616141e-06  1.24319066e-04  1.35441945e-06  5.22422891e-04 -1.72177270e-04
 -3.25842211e-04 -4.72597921e-07  6.44255526e-05  2.25499883e-06  5.18117407e-07