
    -----------------------------------------------------------------------
          Psi4: An Open-Source Ab Initio Electronic Structure Package
                               Psi4 1.3.2 release

                         Git: Rev {HEAD} ecbda83 


    R. M. Parrish, L. A. Burns, D. G. A. Smith, A. C. Simmonett,
    A. E. DePrince III, E. G. Hohenstein, U. Bozkaya, A. Yu. Sokolov,
    R. Di Remigio, R. M. Richard, J. F. Gonthier, A. M. James,
    H. R. McAlexander, A. Kumar, M. Saitow, X. Wang, B. P. Pritchard,
    P. Verma, H. F. Schaefer III, K. Patkowski, R. A. King, E. F. Valeev,
    F. A. Evangelista, J. M. Turney, T. D. Crawford, and C. D. Sherrill,
    J. Chem. Theory Comput. 13(7) pp 3185--3197 (2017).
    (doi: 10.1021/acs.jctc.7b00174)


                         Additional Contributions by
    P. Kraus, H. Kruse, M. H. Lechner, M. C. Schieber, R. A. Shaw,
    A. Alenaizan, R. Galvelis, Z. L. Glick, S. Lehtola, and J. P. Misiewicz

    -----------------------------------------------------------------------


    Psi4 started on: Monday, 24 May 2021 08:59PM

    Process ID: 79599
    Host:       daniele-Precision-5750
    PSIDATADIR: /home/daniele/anaconda3/envs/poltype/share/psi4
    Memory:     500.0 MiB
    Threads:    1
    
  ==> Input File <==

--------------------------------------------------------------------------
molecule { 
0 1
 N    2.315209    0.384627    0.173089
 C    0.929512    0.175825    0.043833
 C    0.421817   -1.102444   -0.286467
 C    0.025987    1.244547    0.241428
 C   -0.966813   -1.306472   -0.413772
 C   -1.362100    1.037329    0.114091
 C   -1.860970   -0.237936   -0.212818
 H    1.096188   -1.932944   -0.442269
 H    0.395971    2.228824    0.492162
 H   -1.349844   -2.307897   -0.670606
 H   -2.055897    1.879351    0.272011
 H   -2.947498   -0.398984   -0.310578
 H    2.922287    0.282528   -0.647911
 H    2.778281    0.164570    1.062189
}
set optking { 
  frozen_dihedral = ("
    3 2 1 13
  ")
}
set {
  geom_maxiter 5
  g_convergence GAU_LOOSE
  dynamic_level 1
}
memory 700MB
set_num_threads(8)
psi4_io.set_default_path("/home/daniele/PSI4_sctatch/Psi4-aniline")
for _ in range(1):
  try:
    set opt_coordinates both
    optimize('wb97x-d/6-31G*')
    break
  except OptimizationConvergenceError:
    break
  else:
    try:
      set opt_coordinates cartesian
      optimize('wb97x-d/6-31G*')
      break
    except OptimizationConvergenceError:
      pass
clean()
--------------------------------------------------------------------------

  Memory set to 667.572 MiB by Python driver.
  Threads set to 8 by Python driver.
gradient() will perform analytic gradient computation.

*** tstart() called on daniele-Precision-5750
*** at Mon May 24 20:59:32 2021

   => Loading Basis Set <=

    Name: 6-31G*
    Role: ORBITAL
    Keyword: BASIS
    atoms 1    entry N          line   128 file /home/daniele/anaconda3/envs/poltype/share/psi4/basis/6-31gs.gbs 
    atoms 2-7  entry C          line   111 file /home/daniele/anaconda3/envs/poltype/share/psi4/basis/6-31gs.gbs 
    atoms 8-14 entry H          line    44 file /home/daniele/anaconda3/envs/poltype/share/psi4/basis/6-31gs.gbs 


         ---------------------------------------------------------
                                   SCF
               by Justin Turney, Rob Parrish, Andy Simmonett
                          and Daniel G. A. Smith
                              RKS Reference
                        8 Threads,    667 MiB Core
         ---------------------------------------------------------

  ==> Geometry <==

    Molecular point group: c1
    Full point group: C1

    Geometry (in Angstrom), charge = 0, multiplicity = 1:

       Center              X                  Y                   Z               Mass       
    ------------   -----------------  -----------------  -----------------  -----------------
         N            2.320417631197     0.352056563996     0.215939776213    14.003074004430
         C            0.934720631197     0.143254563996     0.086683776213    12.000000000000
         C            0.427025631197    -1.135014436004    -0.243616223787    12.000000000000
         C            0.031195631197     1.211976563996     0.284278776213    12.000000000000
         C           -0.961604368803    -1.339042436004    -0.370921223787    12.000000000000
         C           -1.356891368803     1.004758563996     0.156941776213    12.000000000000
         C           -1.855761368803    -0.270506436004    -0.169967223787    12.000000000000
         H            1.101396631197    -1.965514436004    -0.399418223787     1.007825032230
         H            0.401179631197     2.196253563996     0.535012776213     1.007825032230
         H           -1.344635368803    -2.340467436004    -0.627755223787     1.007825032230
         H           -2.050688368803     1.846780563996     0.314861776213     1.007825032230
         H           -2.942289368803    -0.431554436004    -0.267727223787     1.007825032230
         H            2.927495631197     0.249957563996    -0.605060223787     1.007825032230
         H            2.783489631197     0.131999563996     1.105039776213     1.007825032230

  Running in c1 symmetry.

  Rotational constants: A =      0.18370  B =      0.08438  C =      0.05840 [cm^-1]
  Rotational constants: A =   5507.12757  B =   2529.50680  C =   1750.81525 [MHz]
  Nuclear repulsion =  268.478759232190896

  Charge       = 0
  Multiplicity = 1
  Electrons    = 50
  Nalpha       = 25
  Nbeta        = 25

  ==> Algorithm <==

  SCF Algorithm Type is DF.
  DIIS enabled.
  MOM disabled.
  Fractional occupation disabled.
  Guess Type is SAD.
  Energy threshold   = 1.00e-08
  Density threshold  = 1.00e-08
  Integral threshold = 0.00e+00

  ==> Primary Basis <==

  Basis Set: 6-31G*
    Blend: 6-31G*
    Number of shells: 56
    Number of basis function: 119
    Number of Cartesian functions: 119
    Spherical Harmonics?: false
    Max angular momentum: 2

  ==> DFT Potential <==

   => Composite Functional: WB97X-D <= 

    wB97X-D Hyb-GGA Exchange-Correlation Functional

    J.-D. Chai and M. Head-Gordon, Phys. Chem. Chem. Phys. 10, 6615 (2008)

    Deriv               =              1
    GGA                 =           TRUE
    Meta                =          FALSE

    Exchange Hybrid     =           TRUE
    MP2 Hybrid          =          FALSE

   => Exchange-Correlation Functionals <=

    1.0000   wB97D range-separated functional

   => Exact (HF) Exchange <=

    0.7780            HF,LR [omega = 0.2000]
    0.2220               HF 

   => Molecular Quadrature <=

    Radial Scheme          =       TREUTLER
    Pruning Scheme         =           FLAT
    Nuclear Scheme         =       TREUTLER

    BS radius alpha        =              1
    Pruning alpha          =              1
    Radial Points          =             75
    Spherical Points       =            302
    Total Points           =         308107
    Total Blocks           =           2373
    Max Points             =            256
    Max Functions          =            118

   => WB97X-D: Empirical Dispersion <=

    Chai and Head-Gordon Dispersion Correction
    Chai, J.-D.; Head-Gordon, M. (2010), J. Chem. Phys., 132: 6615-6620

        s6 =       1.000000

   => Loading Basis Set <=

    Name: (6-31G* AUX)
    Role: JKFIT
    Keyword: DF_BASIS_SCF
    atoms 1    entry N          line   171 file /home/daniele/anaconda3/envs/poltype/share/psi4/basis/cc-pvdz-jkfit.gbs 
    atoms 2-7  entry C          line   121 file /home/daniele/anaconda3/envs/poltype/share/psi4/basis/cc-pvdz-jkfit.gbs 
    atoms 8-14 entry H          line    51 file /home/daniele/anaconda3/envs/poltype/share/psi4/basis/cc-pvdz-jkfit.gbs 

  ==> Pre-Iterations <==

   -------------------------------------------------------
    Irrep   Nso     Nmo     Nalpha   Nbeta   Ndocc  Nsocc
   -------------------------------------------------------
     A        119     119       0       0       0       0
   -------------------------------------------------------
    Total     119     119      25      25      25       0
   -------------------------------------------------------

  ==> Integral Setup <==

  ==> DiskDFJK: Density-Fitted J/K Matrices <==

    J tasked:                  Yes
    K tasked:                  Yes
    wK tasked:                 Yes
    Omega:               2.000E-01
    OpenMP threads:              8
    Integrals threads:           8
    Memory [MiB]:               53
    Algorithm:                Disk
    Integral Cache:           NONE
    Schwarz Cutoff:          1E-12
    Fitting Condition:       1E-10

   => Auxiliary Basis Set <=

  Basis Set: (6-31G* AUX)
    Blend: CC-PVDZ-JKFIT
    Number of shells: 231
    Number of basis function: 742
    Number of Cartesian functions: 742
    Spherical Harmonics?: false
    Max angular momentum: 3

  Cached 100.0% of DFT collocation blocks in 0.807 [GiB].

  Minimum eigenvalue in the overlap matrix is 5.0136569777E-04.
  Using Symmetric Orthogonalization.

  SCF Guess: Superposition of Atomic Densities via on-the-fly atomic UHF.

  ==> Iterations <==

                           Total Energy        Delta E     RMS |[F,P]|

   @DF-RKS iter SAD:  -286.63305821325082   -2.86633e+02   0.00000e+00 
   @DF-RKS iter   1:  -287.26713749163173   -6.34079e-01   5.48838e-03 DIIS
   @DF-RKS iter   2:  -287.37693214078962   -1.09795e-01   4.14944e-03 DIIS
   @DF-RKS iter   3:  -287.48598131227078   -1.09049e-01   3.36768e-04 DIIS
   @DF-RKS iter   4:  -287.48660874300981   -6.27431e-04   1.77919e-04 DIIS
   @DF-RKS iter   5:  -287.48682057274402   -2.11830e-04   3.05492e-05 DIIS
   @DF-RKS iter   6:  -287.48682737961286   -6.80687e-06   9.90187e-06 DIIS
   @DF-RKS iter   7:  -287.48682821105643   -8.31444e-07   4.18771e-06 DIIS
   @DF-RKS iter   8:  -287.48682838910844   -1.78052e-07   1.02784e-06 DIIS
   @DF-RKS iter   9:  -287.48682840417428   -1.50658e-08   4.76767e-07 DIIS
   @DF-RKS iter  10:  -287.48682840802428   -3.85000e-09   1.05826e-07 DIIS
   @DF-RKS iter  11:  -287.48682840826120   -2.36923e-10   3.81093e-08 DIIS
   @DF-RKS iter  12:  -287.48682840827621   -1.50067e-11   1.75927e-08 DIIS
   @DF-RKS iter  13:  -287.48682840827956   -3.35376e-12   4.19781e-09 DIIS
  Energy and wave function converged.


  ==> Post-Iterations <==

    Orbital Energies [Eh]
    ---------------------

    Doubly Occupied:                                                      

       1A    -14.428761     2A    -10.329570     3A    -10.300847  
       4A    -10.300411     5A    -10.299870     6A    -10.294512  
       7A    -10.293349     8A     -0.986789     9A     -0.920455  
      10A     -0.831796    11A     -0.809519    12A     -0.688300  
      13A     -0.678129    14A     -0.600576    15A     -0.573470  
      16A     -0.554670    17A     -0.526511    18A     -0.506665  
      19A     -0.494358    20A     -0.436617    21A     -0.428696  
      22A     -0.421409    23A     -0.318898    24A     -0.316324  
      25A     -0.298946  

    Virtual:                                                              

      26A      0.072391    27A      0.075506    28A      0.175802  
      29A      0.185092    30A      0.224716    31A      0.234003  
      32A      0.247914    33A      0.271257    34A      0.279082  
      35A      0.283345    36A      0.347119    37A      0.383012  
      38A      0.386651    39A      0.427135    40A      0.446581  
      41A      0.572299    42A      0.616961    43A      0.621136  
      44A      0.637568    45A      0.646089    46A      0.686356  
      47A      0.689998    48A      0.694512    49A      0.696537  
      50A      0.708084    51A      0.710291    52A      0.746023  
      53A      0.760074    54A      0.769753    55A      0.824378  
      56A      0.850190    57A      0.891251    58A      0.932487  
      59A      0.937825    60A      0.938384    61A      0.960325  
      62A      0.972194    63A      0.991678    64A      1.015545  
      65A      1.034411    66A      1.038899    67A      1.043836  
      68A      1.098460    69A      1.152857    70A      1.196443  
      71A      1.208910    72A      1.272164    73A      1.290793  
      74A      1.343504    75A      1.405917    76A      1.518409  
      77A      1.529923    78A      1.556753    79A      1.561414  
      80A      1.579519    81A      1.601083    82A      1.637739  
      83A      1.872010    84A      1.875937    85A      1.923000  
      86A      1.934947    87A      1.977800    88A      2.006048  
      89A      2.036571    90A      2.064010    91A      2.134765  
      92A      2.168766    93A      2.187489    94A      2.206761  
      95A      2.233030    96A      2.290637    97A      2.349242  
      98A      2.366061    99A      2.388241   100A      2.407139  
     101A      2.570706   102A      2.650700   103A      2.667664  
     104A      2.679577   105A      2.732960   106A      2.800674  
     107A      2.805803   108A      2.810542   109A      2.890194  
     110A      2.974079   111A      3.167771   112A      3.473670  
     113A      3.941879   114A      4.179048   115A      4.220410  
     116A      4.234808   117A      4.434159   118A      4.461621  
     119A      4.785286  

    Final Occupation by Irrep:
              A 
    DOCC [    25 ]

  @DF-RKS Final Energy:  -287.48682840827956

   => Energetics <=

    Nuclear Repulsion Energy =            268.4787592321908960
    One-Electron Energy =                -919.1270644518336894
    Two-Electron Energy =                 391.9550550182303823
    DFT Exchange-Correlation Energy =     -28.7879837572662680
    Empirical Dispersion Energy =          -0.0055944496008914
    VV10 Nonlocal Energy =                  0.0000000000000000
    Total Energy =                       -287.4868284082795640

Computation Completed


Properties will be evaluated at   0.000000,   0.000000,   0.000000 [a0]

Properties computed using the SCF density matrix

  Nuclear Dipole Moment: [e a0]
     X:     0.8144      Y:    -0.2940      Z:     0.0509

  Electronic Dipole Moment: [e a0]
     X:    -0.5443      Y:     0.0375      Z:    -0.0366

  Dipole Moment: [e a0]
     X:     0.2701      Y:    -0.2565      Z:     0.0143     Total:     0.3728

  Dipole Moment: [D]
     X:     0.6865      Y:    -0.6519      Z:     0.0364     Total:     0.9475


*** tstop() called on daniele-Precision-5750 at Mon May 24 20:59:38 2021
Module time:
	user time   =      38.56 seconds =       0.64 minutes
	system time =       1.17 seconds =       0.02 minutes
	total time  =          6 seconds =       0.10 minutes
Total time:
	user time   =      38.56 seconds =       0.64 minutes
	system time =       1.17 seconds =       0.02 minutes
	total time  =          6 seconds =       0.10 minutes

*** tstart() called on daniele-Precision-5750
*** at Mon May 24 20:59:38 2021


         ------------------------------------------------------------
                                   SCF GRAD                          
                          Rob Parrish, Justin Turney,                
                       Andy Simmonett, and Alex Sokolov              
         ------------------------------------------------------------

  ==> Geometry <==

    Molecular point group: c1
    Full point group: C1

    Geometry (in Angstrom), charge = 0, multiplicity = 1:

       Center              X                  Y                   Z               Mass       
    ------------   -----------------  -----------------  -----------------  -----------------
         N            2.320417631197     0.352056563996     0.215939776213    14.003074004430
         C            0.934720631197     0.143254563996     0.086683776213    12.000000000000
         C            0.427025631197    -1.135014436004    -0.243616223787    12.000000000000
         C            0.031195631197     1.211976563996     0.284278776213    12.000000000000
         C           -0.961604368803    -1.339042436004    -0.370921223787    12.000000000000
         C           -1.356891368803     1.004758563996     0.156941776213    12.000000000000
         C           -1.855761368803    -0.270506436004    -0.169967223787    12.000000000000
         H            1.101396631197    -1.965514436004    -0.399418223787     1.007825032230
         H            0.401179631197     2.196253563996     0.535012776213     1.007825032230
         H           -1.344635368803    -2.340467436004    -0.627755223787     1.007825032230
         H           -2.050688368803     1.846780563996     0.314861776213     1.007825032230
         H           -2.942289368803    -0.431554436004    -0.267727223787     1.007825032230
         H            2.927495631197     0.249957563996    -0.605060223787     1.007825032230
         H            2.783489631197     0.131999563996     1.105039776213     1.007825032230

  Nuclear repulsion =  268.478759232190896

  ==> Basis Set <==

  Basis Set: 6-31G*
    Blend: 6-31G*
    Number of shells: 56
    Number of basis function: 119
    Number of Cartesian functions: 119
    Spherical Harmonics?: false
    Max angular momentum: 2

  ==> DFJKGrad: Density-Fitted SCF Gradients <==

    Gradient:                    1
    J tasked:                  Yes
    K tasked:                  Yes
    wK tasked:                 Yes
    Omega:               2.000E-01
    OpenMP threads:              8
    Integrals threads:           8
    Memory [MiB]:              500
    Schwarz Cutoff:          0E+00
    Fitting Condition:       1E-10

   => Auxiliary Basis Set <=

  Basis Set: (6-31G* AUX)
    Blend: CC-PVDZ-JKFIT
    Number of shells: 231
    Number of basis function: 742
    Number of Cartesian functions: 742
    Spherical Harmonics?: false
    Max angular momentum: 3

  ==> DFT Potential <==

   => Composite Functional: WB97X-D <= 

    wB97X-D Hyb-GGA Exchange-Correlation Functional

    J.-D. Chai and M. Head-Gordon, Phys. Chem. Chem. Phys. 10, 6615 (2008)

    Deriv               =              1
    GGA                 =           TRUE
    Meta                =          FALSE

    Exchange Hybrid     =           TRUE
    MP2 Hybrid          =          FALSE

   => Exchange-Correlation Functionals <=

    1.0000   wB97D range-separated functional

   => Exact (HF) Exchange <=

    0.7780            HF,LR [omega = 0.2000]
    0.2220               HF 

   => Molecular Quadrature <=

    Radial Scheme          =       TREUTLER
    Pruning Scheme         =           FLAT
    Nuclear Scheme         =       TREUTLER

    BS radius alpha        =              1
    Pruning alpha          =              1
    Radial Points          =             75
    Spherical Points       =            302
    Total Points           =         308107
    Total Blocks           =           2373
    Max Points             =            256
    Max Functions          =            118


  -Total Gradient:
     Atom            X                  Y                   Z
    ------   -----------------  -----------------  -----------------
       1       -0.027186229986    -0.012513665935    -0.003559921365
       2        0.014993036604     0.009518073038     0.002692131514
       3        0.019810340202    -0.013516481326    -0.001457217431
       4        0.010298407225     0.016240020302     0.003579166860
       5       -0.002614722308    -0.004041800249    -0.000297548012
       6       -0.003719038350     0.004693597606     0.000074256654
       7       -0.003394928085    -0.000856004652    -0.000426922046
       8       -0.004291451978     0.001006005122    -0.000243383229
       9       -0.004321643681    -0.001478156899    -0.000312524034
      10       -0.003383571396    -0.009904329925    -0.002545275864
      11       -0.006657801739     0.008457332044     0.001669673416
      12       -0.011052965561    -0.001584361457    -0.000905088735
      13        0.012092203990     0.004302448343    -0.013057310433
      14        0.009452069183    -0.000299677821     0.014783811988


*** tstop() called on daniele-Precision-5750 at Mon May 24 20:59:39 2021
Module time:
	user time   =      14.36 seconds =       0.24 minutes
	system time =       0.18 seconds =       0.00 minutes
	total time  =          1 seconds =       0.02 minutes
Total time:
	user time   =      52.93 seconds =       0.88 minutes
	system time =       1.35 seconds =       0.02 minutes
	total time  =          7 seconds =       0.12 minutes

			-----------------------------------------
			 OPTKING 2.0: for geometry optimizations 
			  - R.A. King,  Bethel University        
			-----------------------------------------
	At level 1: Red. Int., RFO, no backsteps, dynamic trust

	Internal coordinates to be generated automatically.
	Detected frag 1 with atoms:  1 2 3 4 5 6 7 8 9 10 11 12 13 14
	---Fragment 1 Bond Connectivity---
	 1 : 2 13 14
	 2 : 1 3 4
	 3 : 2 5 8
	 4 : 2 6 9
	 5 : 3 7 10
	 6 : 4 7 11
	 7 : 5 6 12
	 8 : 3
	 9 : 4
	 10 : 5
	 11 : 6
	 12 : 7
	 13 : 1
	 14 : 1

	Assuming in current code that numbering for constraints corresponds to unified fragment.
	Frozen dihedral atom list: 
	     3     2     1    13
	---Fragment 1 Geometry and Gradient---
	 N           4.3849538196        0.6652904866        0.4080670366
	 C           1.7663659968        0.2707118922        0.1638085966
	 C           0.8069614915       -2.1448664325       -0.4603679427
	 C           0.0589511993        2.2903037764        0.5372090303
	 C          -1.8171688981       -2.5304234744       -0.7009395271
	 C          -2.5641530690        1.8987185082        0.2965769747
	 C          -3.5068807412       -0.5111830792       -0.3211915033
	 H           2.0813379885       -3.7142839797       -0.7547910525
	 H           0.7581196301        4.1503177380        1.0110276207
	 H          -2.5409925856       -4.4228424596       -1.1862854468
	 H          -3.8752393857        3.4899094798        0.5950025244
	 H          -5.5601210889       -0.8155196923       -0.5059311293
	 H           5.5321649764        0.4723513389       -1.1433981124
	 H           5.2600330760        0.2494430246        2.0882225348
	            -0.0271862300       -0.0125136659       -0.0035599214
	             0.0149930366        0.0095180730        0.0026921315
	             0.0198103402       -0.0135164813       -0.0014572174
	             0.0102984072        0.0162400203        0.0035791669
	            -0.0026147223       -0.0040418002       -0.0002975480
	            -0.0037190383        0.0046935976        0.0000742567
	            -0.0033949281       -0.0008560047       -0.0004269220
	            -0.0042914520        0.0010060051       -0.0002433832
	            -0.0043216437       -0.0014781569       -0.0003125240
	            -0.0033835714       -0.0099043299       -0.0025452759
	            -0.0066578017        0.0084573320        0.0016696734
	            -0.0110529656       -0.0015843615       -0.0009050887
	             0.0120922040        0.0043024483       -0.0130573104
	             0.0094520692       -0.0002996778        0.0147838120

	Previous optimization step data not found.  Starting new optimization.

	---Fragment 1 Intrafragment Coordinates---
	 - Coordinate -           - BOHR/RAD -       - ANG/DEG -
	 R(1,2)           =         2.659390	       1.407289
	 R(1,13)          =         1.939166	       1.026162
	 R(1,14)          =         1.939488	       1.026333
	 R(2,3)           =         2.673027	       1.414505
	 R(2,4)           =         2.670851	       1.413353
	 R(3,5)           =         2.663192	       1.409300
	 R(3,8)           =         2.042986	       1.081102
	 R(4,6)           =         2.663066	       1.409234
	 R(4,9)           =         2.042790	       1.080998
	 R(5,7)           =         2.660200	       1.407717
	 R(5,10)          =         2.083442	       1.102510
	 R(6,7)           =         2.660451	       1.407850
	 R(6,11)          =         2.083241	       1.102404
	 R(7,12)          =         2.083877	       1.102740
	 B(1,2,3)         =         2.104752	     120.593428
	 B(1,2,4)         =         2.099524	     120.293883
	 B(2,1,13)        =         2.087799	     119.622080
	 B(2,1,14)        =         2.085207	     119.473576
	 B(2,3,5)         =         2.100849	     120.369777
	 B(2,3,8)         =         2.098990	     120.263274
	 B(2,4,6)         =         2.101179	     120.388707
	 B(2,4,9)         =         2.096858	     120.141107
	 B(3,2,4)         =         2.078908	     119.112639
	 B(3,5,7)         =         2.097956	     120.204009
	 B(3,5,10)        =         2.088474	     119.660766
	 B(4,6,7)         =         2.098104	     120.212501
	 B(4,6,11)        =         2.088227	     119.646616
	 B(5,3,8)         =         2.083345	     119.366888
	 B(5,7,6)         =         2.089371	     119.712145
	 B(5,7,12)        =         2.097092	     120.154497
	 B(6,4,9)         =         2.085148	     119.470184
	 B(6,7,12)        =         2.096723	     120.133353
	 B(7,5,10)        =         2.096755	     120.135192
	 B(7,6,11)        =         2.096854	     120.140883
	 B(13,1,14)       =         1.987591	     113.880600
	 D(1,2,3,5)       =         3.140796	     179.954363
	 D(1,2,3,8)       =         0.000781	       0.044731
	 D(1,2,4,6)       =        -3.140243	    -179.922696
	 D(1,2,4,9)       =         0.001043	       0.059763
	 D(2,3,5,7)       =        -0.000046	      -0.002658
	 D(2,3,5,10)      =        -3.140485	    -179.936560
	 D(2,4,6,7)       =        -0.001055	      -0.060426
	 D(2,4,6,11)      =         3.140364	     179.929618
	*D(3,2,1,13)      =         1.134887	      65.024218
	 D(3,2,1,14)      =        -1.463916	     -83.876219
	 D(3,2,4,6)       =         0.002760	       0.158150
	 D(3,2,4,9)       =        -3.139139	    -179.859391
	 D(3,5,7,6)       =         0.001778	       0.101896
	 D(3,5,7,12)      =        -3.139370	    -179.872635
	 D(4,2,1,13)      =        -2.005274	    -114.893728
	 D(4,2,1,14)      =         1.679109	      96.205835
	 D(4,2,3,5)       =        -0.002212	      -0.126732
	 D(4,2,3,8)       =         3.140958	     179.963637
	 D(4,6,7,5)       =        -0.001231	      -0.070526
	 D(4,6,7,12)      =         3.139917	     179.904010
	 D(5,7,6,11)      =         3.140536	     179.939479
	 D(6,7,5,10)      =        -3.140973	    -179.964518
	 D(7,5,3,8)       =         3.139983	     179.907780
	 D(7,6,4,9)       =         3.140842	     179.956998
	 D(8,3,5,10)      =        -0.000456	      -0.026122
	 D(9,4,6,11)      =        -0.000924	      -0.052958
	 D(10,5,7,12)     =         0.001064	       0.060951
	 D(11,6,7,12)     =        -0.001501	      -0.085984

	Current energy   :      -287.4868284083

	Generating empirical Hessian (Schlegel '84) for each fragment.
	Taking RFO optimization step.
	Going to follow RFO solution 1.
	Using RFO vector 1.
	Norm of target step-size    0.25106
	Projected energy change by RFO approximation:        -0.0015310215

	Back-transformation to cartesian coordinates...
	Could not converge backtransformation.
	Using first guess instead.

	Back-transformation to cartesian coordinates to adjust frozen coordinates...
	Successfully converged to displaced geometry.

	--- Internal Coordinate Step in ANG or DEG, aJ/ANG or AJ/DEG ---
	 ---------------------------------------------------------------------------
	   Coordinate                Previous        Force       Change         New 
	   ----------                --------       ------       ------       ------
	    1 R(1,2)          =      1.407289     0.057595     0.008707     1.415995
	    2 R(1,13)         =      1.026162    -0.141432    -0.020194     1.005968
	    3 R(1,14)         =      1.026333    -0.141181    -0.014654     1.011679
	    4 R(2,3)          =      1.414505    -0.113482    -0.016286     1.398219
	    5 R(2,4)          =      1.413353    -0.134606    -0.019464     1.393890
	    6 R(3,5)          =      1.409300    -0.130081    -0.018574     1.390726
	    7 R(3,8)          =      1.081102     0.028119     0.005186     1.086288
	    8 R(4,6)          =      1.409234    -0.125884    -0.017975     1.391259
	    9 R(4,9)          =      1.080998     0.023902     0.004360     1.085358
	   10 R(5,7)          =      1.407717    -0.127513    -0.018127     1.389590
	   11 R(5,10)         =      1.102510    -0.088718    -0.016646     1.085864
	   12 R(6,7)          =      1.407850    -0.127756    -0.018203     1.389647
	   13 R(6,11)         =      1.102404    -0.089697    -0.016842     1.085561
	   14 R(7,12)         =      1.102740    -0.092307    -0.017360     1.085381
	   15 B(1,2,3)        =    120.593428     0.000458     1.305467   121.898896
	   16 B(1,2,4)        =    120.293883    -0.000276    -0.807566   119.486316
	   17 B(2,1,13)       =    119.622080    -0.000270    -2.375940   117.246140
	   18 B(2,1,14)       =    119.473576    -0.000155    -2.168057   117.305520
	   19 B(2,3,5)        =    120.369777     0.000139     0.454135   120.823912
	   20 B(2,3,8)        =    120.263274    -0.000286    -1.190059   119.073215
	   21 B(2,4,6)        =    120.388707     0.000087     0.271288   120.659994
	   22 B(2,4,9)        =    120.141107    -0.000319    -1.374424   118.766683
	   23 B(3,2,4)        =    119.112639    -0.000181    -0.566869   118.545770
	   24 B(3,5,7)        =    120.204009    -0.000038    -0.127493   120.076516
	   25 B(3,5,10)       =    119.660766     0.000050     0.201521   119.862287
	   26 B(4,6,7)        =    120.212501     0.000041     0.113988   120.326489
	   27 B(4,6,11)       =    119.646616    -0.000001     0.031064   119.677680
	   28 B(5,3,8)        =    119.366888     0.000147     0.734542   120.101431
	   29 B(5,7,6)        =    119.712145    -0.000047    -0.168978   119.543167
	   30 B(5,7,12)       =    120.154497     0.000019     0.063033   120.217530
	   31 B(6,4,9)        =    119.470184     0.000232     1.102997   120.573181
	   32 B(6,7,12)       =    120.133353     0.000028     0.104957   120.238309
	   33 B(7,5,10)       =    120.135192    -0.000012    -0.078449   120.056744
	   34 B(7,6,11)       =    120.140883    -0.000040    -0.146615   119.994268
	   35 B(13,1,14)      =    113.880600     0.000247    -0.530915   113.349685
	   36 D(1,2,3,5)      =    179.954363    -0.000009    -1.129886   178.824477
	   37 D(1,2,3,8)      =      0.044731    -0.000013    -1.656834    -1.612103
	   38 D(1,2,4,6)      =   -179.922696     0.000014     1.832235  -178.090460
	   39 D(1,2,4,9)      =      0.059763     0.000016     1.986185     2.045948
	   40 D(2,3,5,7)      =     -0.002658    -0.000011    -1.415763    -1.418421
	   41 D(2,3,5,10)     =   -179.936560    -0.000005    -0.714710  -180.651270
	   42 D(2,4,6,7)      =     -0.060426    -0.000001    -0.139173    -0.199599
	   43 D(2,4,6,11)     =    179.929618     0.000003     0.325591   180.255209
	   44 *D(3,2,1,13)    =     65.024218    -0.000000     0.000000    65.024218
	   45 D(3,2,1,14)     =    -83.876219     0.000066     8.765495   -75.110725
	   46 D(3,2,4,6)      =      0.158150    -0.000010    -1.211672    -1.053522
	   47 D(3,2,4,9)      =   -179.859391    -0.000008    -1.057722  -180.917113
	   48 D(3,5,7,6)      =      0.101896     0.000000     0.030577     0.132473
	   49 D(3,5,7,12)     =   -179.872635     0.000003     0.366882  -179.505753
	   50 D(4,2,1,13)     =   -114.893728    -0.000024    -3.148010  -118.041738
	   51 D(4,2,1,14)     =     96.205835     0.000042     5.617485   101.823320
	   52 D(4,2,3,5)      =     -0.126732     0.000015     1.989348     1.862616
	   53 D(4,2,3,8)      =    179.963637     0.000011     1.462399   181.426036
	   54 D(4,6,7,5)      =     -0.070526     0.000006     0.740420     0.669894
	   55 D(4,6,7,12)     =    179.904010     0.000003     0.404034   180.308044
	   56 D(5,7,6,11)     =    179.939479     0.000002     0.274163   180.213642
	   57 D(6,7,5,10)     =   -179.964518    -0.000005    -0.671662  -180.636181
	   58 D(7,5,3,8)      =    179.907780    -0.000007    -0.885150   179.022630
	   59 D(7,6,4,9)      =    179.956998    -0.000002    -0.295478   179.661520
	   60 D(8,3,5,10)     =     -0.026122    -0.000002    -0.184097    -0.210218
	   61 D(9,4,6,11)     =     -0.052958     0.000001     0.169286     0.116328
	   62 D(10,5,7,12)    =      0.060951    -0.000003    -0.335358    -0.274407
	   63 D(11,6,7,12)    =     -0.085984    -0.000000    -0.062223    -0.148208
	 ---------------------------------------------------------------------------
	Successfully symmetrized geometry.

  ==> Convergence Check <==

  Measures of convergence in internal coordinates in au.
  Criteria marked as inactive (o), active & met (*), and active & unmet ( ).
  --------------------------------------------------------------------------------------------- ~
   Step     Total Energy     Delta E     MAX Force     RMS Force      MAX Disp      RMS Disp    ~
  --------------------------------------------------------------------------------------------- ~
    Convergence Criteria             o    2.50e-03 *    1.70e-03 *    1.00e-02 *    6.70e-03 *  ~
  --------------------------------------------------------------------------------------------- ~
      1    -287.48682841   -2.87e+02 o    1.72e-02      6.42e-03      1.53e-01      3.14e-02    ~
  ---------------------------------------------------------------------------------------------

	Writing optimization data to binary file.
	Structure for next step:
	Cartesian Geometry (in Angstrom)
	    N     2.3102597618   0.3852034689   0.2229795663
	    C     0.9226611830   0.1533369827   0.0621966667
	    C     0.4154120587  -1.1143556497  -0.2389183456
	    C     0.0238863712   1.1984249764   0.2693776074
	    C    -0.9536690698  -1.3218349491  -0.3681037078
	    C    -1.3467833791   0.9882209027   0.1567714561
	    C    -1.8393191236  -0.2697416859  -0.1688929397
	    H     1.1071869260  -1.9401020171  -0.3789593006
	    H     0.4131784457   2.1805450675   0.5181619016
	    H    -1.3299602035  -2.3106039383  -0.6127270547
	    H    -2.0322569416   1.8145174221   0.3174058439
	    H    -2.9086789920  -0.4309503235  -0.2612640280
	    H     2.8951662414   0.2580167728  -0.5855249335
	    H     2.7379675570   0.0642608677   1.0817901350
			--------------------------
			 OPTKING Finished Execution 
			--------------------------

    Structure for next step:
    Molecular point group: c1
    Full point group: C1

    Geometry (in Angstrom), charge = 0, multiplicity = 1:

    N            2.311264475743     0.378374678655     0.225654590995
    C            0.923665891442     0.146508191555     0.064871690795
    C            0.416416765166    -1.121184445817    -0.236243322703
    C            0.024891076094     1.191596189342     0.272052632278
    C           -0.952664368689    -1.328663746097    -0.365428685393
    C           -1.345778679570     0.981392114817     0.159446480561
    C           -1.838314425952    -0.276570478775    -0.166217916503
    H            1.108191635164    -1.946930816522    -0.376284278208
    H            0.414183152133     2.173716284316     0.520836927512
    H           -1.328955503840    -2.317432739143    -0.610052033290
    H           -2.031252244785     1.807688637455     0.320080868947
    H           -2.907674298545    -0.437779116943    -0.258589005224
    H            2.896170957629     0.251187982020    -0.582849911998
    H            2.738972272561     0.057432076130     1.084465163071

gradient() will perform analytic gradient computation.

*** tstart() called on daniele-Precision-5750
*** at Mon May 24 20:59:39 2021

   => Loading Basis Set <=

    Name: 6-31G*
    Role: ORBITAL
    Keyword: BASIS
    atoms 1    entry N          line   128 file /home/daniele/anaconda3/envs/poltype/share/psi4/basis/6-31gs.gbs 
    atoms 2-7  entry C          line   111 file /home/daniele/anaconda3/envs/poltype/share/psi4/basis/6-31gs.gbs 
    atoms 8-14 entry H          line    44 file /home/daniele/anaconda3/envs/poltype/share/psi4/basis/6-31gs.gbs 


         ---------------------------------------------------------
                                   SCF
               by Justin Turney, Rob Parrish, Andy Simmonett
                          and Daniel G. A. Smith
                              RKS Reference
                        8 Threads,    667 MiB Core
         ---------------------------------------------------------

  ==> Geometry <==

    Molecular point group: c1
    Full point group: C1

    Geometry (in Angstrom), charge = 0, multiplicity = 1:

       Center              X                  Y                   Z               Mass       
    ------------   -----------------  -----------------  -----------------  -----------------
         N            2.311264475743     0.378374678655     0.225654590995    14.003074004430
         C            0.923665891442     0.146508191555     0.064871690795    12.000000000000
         C            0.416416765166    -1.121184445817    -0.236243322703    12.000000000000
         C            0.024891076094     1.191596189342     0.272052632278    12.000000000000
         C           -0.952664368689    -1.328663746097    -0.365428685393    12.000000000000
         C           -1.345778679570     0.981392114817     0.159446480561    12.000000000000
         C           -1.838314425952    -0.276570478775    -0.166217916503    12.000000000000
         H            1.108191635164    -1.946930816522    -0.376284278208     1.007825032230
         H            0.414183152133     2.173716284316     0.520836927512     1.007825032230
         H           -1.328955503840    -2.317432739143    -0.610052033290     1.007825032230
         H           -2.031252244785     1.807688637455     0.320080868947     1.007825032230
         H           -2.907674298545    -0.437779116943    -0.258589005224     1.007825032230
         H            2.896170957629     0.251187982020    -0.582849911998     1.007825032230
         H            2.738972272561     0.057432076130     1.084465163071     1.007825032230

  Running in c1 symmetry.

  Rotational constants: A =      0.18894  B =      0.08556  C =      0.05948 [cm^-1]
  Rotational constants: A =   5664.32257  B =   2564.88288  C =   1783.21574 [MHz]
  Nuclear repulsion =  271.226092391670875

  Charge       = 0
  Multiplicity = 1
  Electrons    = 50
  Nalpha       = 25
  Nbeta        = 25

  ==> Algorithm <==

  SCF Algorithm Type is DF.
  DIIS enabled.
  MOM disabled.
  Fractional occupation disabled.
  Guess Type is READ.
  Energy threshold   = 1.00e-08
  Density threshold  = 1.00e-08
  Integral threshold = 0.00e+00

  ==> Primary Basis <==

  Basis Set: 6-31G*
    Blend: 6-31G*
    Number of shells: 56
    Number of basis function: 119
    Number of Cartesian functions: 119
    Spherical Harmonics?: false
    Max angular momentum: 2

  ==> DFT Potential <==

   => Composite Functional: WB97X-D <= 

    wB97X-D Hyb-GGA Exchange-Correlation Functional

    J.-D. Chai and M. Head-Gordon, Phys. Chem. Chem. Phys. 10, 6615 (2008)

    Deriv               =              1
    GGA                 =           TRUE
    Meta                =          FALSE

    Exchange Hybrid     =           TRUE
    MP2 Hybrid          =          FALSE

   => Exchange-Correlation Functionals <=

    1.0000   wB97D range-separated functional

   => Exact (HF) Exchange <=

    0.7780            HF,LR [omega = 0.2000]
    0.2220               HF 

   => Molecular Quadrature <=

    Radial Scheme          =       TREUTLER
    Pruning Scheme         =           FLAT
    Nuclear Scheme         =       TREUTLER

    BS radius alpha        =              1
    Pruning alpha          =              1
    Radial Points          =             75
    Spherical Points       =            302
    Total Points           =         308052
    Total Blocks           =           2367
    Max Points             =            256
    Max Functions          =            118

   => WB97X-D: Empirical Dispersion <=

    Chai and Head-Gordon Dispersion Correction
    Chai, J.-D.; Head-Gordon, M. (2010), J. Chem. Phys., 132: 6615-6620

        s6 =       1.000000

   => Loading Basis Set <=

    Name: (6-31G* AUX)
    Role: JKFIT
    Keyword: DF_BASIS_SCF
    atoms 1    entry N          line   171 file /home/daniele/anaconda3/envs/poltype/share/psi4/basis/cc-pvdz-jkfit.gbs 
    atoms 2-7  entry C          line   121 file /home/daniele/anaconda3/envs/poltype/share/psi4/basis/cc-pvdz-jkfit.gbs 
    atoms 8-14 entry H          line    51 file /home/daniele/anaconda3/envs/poltype/share/psi4/basis/cc-pvdz-jkfit.gbs 

   => Loading Basis Set <=

    Name: 6-31G*
    Role: ORBITAL
    Keyword: BASIS
    atoms 1    entry N          line   128 file /home/daniele/anaconda3/envs/poltype/share/psi4/basis/6-31gs.gbs 
    atoms 2-7  entry C          line   111 file /home/daniele/anaconda3/envs/poltype/share/psi4/basis/6-31gs.gbs 
    atoms 8-14 entry H          line    44 file /home/daniele/anaconda3/envs/poltype/share/psi4/basis/6-31gs.gbs 

  Reading orbitals from file 180, no projection.

  ==> Pre-Iterations <==

   -------------------------------------------------------
    Irrep   Nso     Nmo     Nalpha   Nbeta   Ndocc  Nsocc
   -------------------------------------------------------
     A        119     119       0       0       0       0
   -------------------------------------------------------
    Total     119     119      25      25      25       0
   -------------------------------------------------------

  ==> Integral Setup <==

  ==> DiskDFJK: Density-Fitted J/K Matrices <==

    J tasked:                  Yes
    K tasked:                  Yes
    wK tasked:                 Yes
    Omega:               2.000E-01
    OpenMP threads:              8
    Integrals threads:           8
    Memory [MiB]:               53
    Algorithm:                Disk
    Integral Cache:           NONE
    Schwarz Cutoff:          1E-12
    Fitting Condition:       1E-10

   => Auxiliary Basis Set <=

  Basis Set: (6-31G* AUX)
    Blend: CC-PVDZ-JKFIT
    Number of shells: 231
    Number of basis function: 742
    Number of Cartesian functions: 742
    Spherical Harmonics?: false
    Max angular momentum: 3

  Cached 100.0% of DFT collocation blocks in 0.812 [GiB].

  Minimum eigenvalue in the overlap matrix is 4.4147405224E-04.
  Using Symmetric Orthogonalization.

  SCF Guess: Orbitals guess was supplied from a previous computation.

  ==> Iterations <==

                           Total Energy        Delta E     RMS |[F,P]|

   @DF-RKS iter   0:  -287.57048477795229   -2.87570e+02   9.65064e-04 
   @DF-RKS iter   1:  -287.49047820574913    8.00066e-02   2.48855e-04 DIIS
   @DF-RKS iter   2:  -287.49076435482232   -2.86149e-04   1.92113e-04 DIIS
   @DF-RKS iter   3:  -287.49102204572768   -2.57691e-04   3.30439e-05 DIIS
   @DF-RKS iter   4:  -287.49103178784617   -9.74212e-06   1.73751e-05 DIIS
   @DF-RKS iter   5:  -287.49103507782274   -3.28998e-06   3.42438e-06 DIIS
   @DF-RKS iter   6:  -287.49103539851444   -3.20692e-07   1.47961e-06 DIIS
   @DF-RKS iter   7:  -287.49103544036808   -4.18536e-08   6.55672e-07 DIIS
   @DF-RKS iter   8:  -287.49103544723323   -6.86515e-09   1.10564e-07 DIIS
   @DF-RKS iter   9:  -287.49103544761988   -3.86649e-10   4.10311e-08 DIIS
   @DF-RKS iter  10:  -287.49103544764967   -2.97860e-11   1.93197e-08 DIIS
   @DF-RKS iter  11:  -287.49103544765597   -6.30962e-12   4.01597e-09 DIIS
  Energy and wave function converged.


  ==> Post-Iterations <==

    Orbital Energies [Eh]
    ---------------------

    Doubly Occupied:                                                      

       1A    -14.426506     2A    -10.324407     3A    -10.295449  
       4A    -10.294510     5A    -10.293943     6A    -10.291771  
       7A    -10.288740     8A     -0.992066     9A     -0.929545  
      10A     -0.836650    11A     -0.816108    12A     -0.692314  
      13A     -0.680582    14A     -0.605666    15A     -0.578166  
      16A     -0.553103    17A     -0.531759    18A     -0.508438  
      19A     -0.496431    20A     -0.443109    21A     -0.431071  
      22A     -0.419871    23A     -0.320006    24A     -0.319044  
      25A     -0.306210  

    Virtual:                                                              

      26A      0.075714    27A      0.079258    28A      0.180257  
      29A      0.187643    30A      0.232310    31A      0.236361  
      32A      0.250287    33A      0.277333    34A      0.283249  
      35A      0.287569    36A      0.351868    37A      0.390680  
      38A      0.395424    39A      0.433128    40A      0.447685  
      41A      0.575329    42A      0.619203    43A      0.631300  
      44A      0.643392    45A      0.651688    46A      0.690891  
      47A      0.691885    48A      0.694610    49A      0.699599  
      50A      0.712358    51A      0.715340    52A      0.750783  
      53A      0.760505    54A      0.772059    55A      0.826191  
      56A      0.854690    57A      0.896513    58A      0.937428  
      59A      0.943446    60A      0.946772    61A      0.958184  
      62A      0.969420    63A      1.002427    64A      1.026408  
      65A      1.035898    66A      1.045163    67A      1.053454  
      68A      1.106237    69A      1.164071    70A      1.204445  
      71A      1.218855    72A      1.283061    73A      1.301075  
      74A      1.345525    75A      1.419266    76A      1.503330  
      77A      1.540698    78A      1.554353    79A      1.572667  
      80A      1.582611    81A      1.598852    82A      1.608327  
      83A      1.880742    84A      1.892626    85A      1.917180  
      86A      1.969176    87A      1.996995    88A      2.014141  
      89A      2.053238    90A      2.079850    91A      2.164092  
      92A      2.188583    93A      2.220606    94A      2.228210  
      95A      2.256885    96A      2.301667    97A      2.363447  
      98A      2.390169    99A      2.406760   100A      2.434064  
     101A      2.565182   102A      2.662480   103A      2.667882  
     104A      2.688652   105A      2.770857   106A      2.822225  
     107A      2.832158   108A      2.845988   109A      2.908235  
     110A      2.982126   111A      3.186367   112A      3.528447  
     113A      3.950703   114A      4.201047   115A      4.225646  
     116A      4.241077   117A      4.438878   118A      4.466524  
     119A      4.801492  

    Final Occupation by Irrep:
              A 
    DOCC [    25 ]

  @DF-RKS Final Energy:  -287.49103544765597

   => Energetics <=

    Nuclear Repulsion Energy =            271.2260923916708748
    One-Electron Energy =                -924.5128900809978632
    Two-Electron Energy =                 394.6575092698363960
    DFT Exchange-Correlation Energy =     -28.8561143386076999
    Empirical Dispersion Energy =          -0.0056326895577602
    VV10 Nonlocal Energy =                  0.0000000000000000
    Total Energy =                       -287.4910354476560315

Computation Completed


Properties will be evaluated at   0.000000,   0.000000,   0.000000 [a0]

Properties computed using the SCF density matrix

  Nuclear Dipole Moment: [e a0]
     X:     0.8273      Y:    -0.3874      Z:     0.0908

  Electronic Dipole Moment: [e a0]
     X:    -0.6160      Y:     0.0457      Z:    -0.0929

  Dipole Moment: [e a0]
     X:     0.2113      Y:    -0.3417      Z:    -0.0021     Total:     0.4018

  Dipole Moment: [D]
     X:     0.5371      Y:    -0.8686      Z:    -0.0053     Total:     1.0213


*** tstop() called on daniele-Precision-5750 at Mon May 24 20:59:44 2021
Module time:
	user time   =      32.70 seconds =       0.55 minutes
	system time =       0.64 seconds =       0.01 minutes
	total time  =          5 seconds =       0.08 minutes
Total time:
	user time   =      86.01 seconds =       1.43 minutes
	system time =       2.01 seconds =       0.03 minutes
	total time  =         12 seconds =       0.20 minutes

*** tstart() called on daniele-Precision-5750
*** at Mon May 24 20:59:44 2021


         ------------------------------------------------------------
                                   SCF GRAD                          
                          Rob Parrish, Justin Turney,                
                       Andy Simmonett, and Alex Sokolov              
         ------------------------------------------------------------

  ==> Geometry <==

    Molecular point group: c1
    Full point group: C1

    Geometry (in Angstrom), charge = 0, multiplicity = 1:

       Center              X                  Y                   Z               Mass       
    ------------   -----------------  -----------------  -----------------  -----------------
         N            2.311264475743     0.378374678655     0.225654590995    14.003074004430
         C            0.923665891442     0.146508191555     0.064871690795    12.000000000000
         C            0.416416765166    -1.121184445817    -0.236243322703    12.000000000000
         C            0.024891076094     1.191596189342     0.272052632278    12.000000000000
         C           -0.952664368689    -1.328663746097    -0.365428685393    12.000000000000
         C           -1.345778679570     0.981392114817     0.159446480561    12.000000000000
         C           -1.838314425952    -0.276570478775    -0.166217916503    12.000000000000
         H            1.108191635164    -1.946930816522    -0.376284278208     1.007825032230
         H            0.414183152133     2.173716284316     0.520836927512     1.007825032230
         H           -1.328955503840    -2.317432739143    -0.610052033290     1.007825032230
         H           -2.031252244785     1.807688637455     0.320080868947     1.007825032230
         H           -2.907674298545    -0.437779116943    -0.258589005224     1.007825032230
         H            2.896170957629     0.251187982020    -0.582849911998     1.007825032230
         H            2.738972272561     0.057432076130     1.084465163071     1.007825032230

  Nuclear repulsion =  271.226092391670875

  ==> Basis Set <==

  Basis Set: 6-31G*
    Blend: 6-31G*
    Number of shells: 56
    Number of basis function: 119
    Number of Cartesian functions: 119
    Spherical Harmonics?: false
    Max angular momentum: 2

  ==> DFJKGrad: Density-Fitted SCF Gradients <==

    Gradient:                    1
    J tasked:                  Yes
    K tasked:                  Yes
    wK tasked:                 Yes
    Omega:               2.000E-01
    OpenMP threads:              8
    Integrals threads:           8
    Memory [MiB]:              500
    Schwarz Cutoff:          0E+00
    Fitting Condition:       1E-10

   => Auxiliary Basis Set <=

  Basis Set: (6-31G* AUX)
    Blend: CC-PVDZ-JKFIT
    Number of shells: 231
    Number of basis function: 742
    Number of Cartesian functions: 742
    Spherical Harmonics?: false
    Max angular momentum: 3

  ==> DFT Potential <==

   => Composite Functional: WB97X-D <= 

    wB97X-D Hyb-GGA Exchange-Correlation Functional

    J.-D. Chai and M. Head-Gordon, Phys. Chem. Chem. Phys. 10, 6615 (2008)

    Deriv               =              1
    GGA                 =           TRUE
    Meta                =          FALSE

    Exchange Hybrid     =           TRUE
    MP2 Hybrid          =          FALSE

   => Exchange-Correlation Functionals <=

    1.0000   wB97D range-separated functional

   => Exact (HF) Exchange <=

    0.7780            HF,LR [omega = 0.2000]
    0.2220               HF 

   => Molecular Quadrature <=

    Radial Scheme          =       TREUTLER
    Pruning Scheme         =           FLAT
    Nuclear Scheme         =       TREUTLER

    BS radius alpha        =              1
    Pruning alpha          =              1
    Radial Points          =             75
    Spherical Points       =            302
    Total Points           =         308052
    Total Blocks           =           2367
    Max Points             =            256
    Max Functions          =            118


  -Total Gradient:
     Atom            X                  Y                   Z
    ------   -----------------  -----------------  -----------------
       1       -0.006278985827    -0.015450872888    -0.004216899356
       2        0.002833196509     0.007738338603    -0.004546757517
       3        0.000416387903     0.000212582199     0.003012013874
       4        0.000622594799    -0.002361242999     0.000382594218
       5       -0.000778194593     0.002286238799     0.000088182690
       6        0.000561741588    -0.001832714950     0.000264672685
       7        0.001520138566    -0.000281453850    -0.000171490443
       8       -0.000711844930     0.000136893445     0.000101416509
       9       -0.001035955837     0.000231093051     0.000029677755
      10        0.000034292861     0.000429065573     0.000108737494
      11        0.000378835819    -0.000399816872    -0.000220327945
      12        0.000491796357     0.000057465525     0.000094811563
      13       -0.000463541075     0.006148970798     0.001370189933
      14        0.002368729215     0.003101409026     0.003676959609


*** tstop() called on daniele-Precision-5750 at Mon May 24 20:59:46 2021
Module time:
	user time   =      14.13 seconds =       0.24 minutes
	system time =       0.18 seconds =       0.00 minutes
	total time  =          2 seconds =       0.03 minutes
Total time:
	user time   =     100.15 seconds =       1.67 minutes
	system time =       2.19 seconds =       0.04 minutes
	total time  =         14 seconds =       0.23 minutes

			-----------------------------------------
			 OPTKING 2.0: for geometry optimizations 
			  - R.A. King,  Bethel University        
			-----------------------------------------
	At level 1: Red. Int., RFO, no backsteps, dynamic trust

	Previous internal coordinate definitions found.
	---Fragment 1 Geometry and Gradient---
	 N           4.3676568627        0.7150245155        0.4264253759
	 C           1.7454755663        0.2768603572        0.1225897289
	 C           0.7869136402       -2.1187315387       -0.4464351789
	 C           0.0470373168        2.2517904500        0.5141049667
	 C          -1.8002747463       -2.5108105929       -0.6905601338
	 C          -2.5431531299        1.8545623187        0.3013101799
	 C          -3.4739107975       -0.5226424593       -0.3141063393
	 H           2.0941786850       -3.6791660284       -0.7110742311
	 H           0.7826927233        4.1077284518        0.9842391490
	 H          -2.5113619352       -4.3793131911       -1.1528312652
	 H          -3.8385104344        3.4160364449        0.6048651803
	 H          -5.4947080863       -0.8272826345       -0.4886623989
	 H           5.4729699224        0.4746764920       -1.1014267059
	 H           5.1759074604        0.1085308947        2.0493421508
	            -0.0062789858       -0.0154508729       -0.0042168994
	             0.0028331965        0.0077383386       -0.0045467575
	             0.0004163879        0.0002125822        0.0030120139
	             0.0006225948       -0.0023612430        0.0003825942
	            -0.0007781946        0.0022862388        0.0000881827
	             0.0005617416       -0.0018327149        0.0002646727
	             0.0015201386       -0.0002814538       -0.0001714904
	            -0.0007118449        0.0001368934        0.0001014165
	            -0.0010359558        0.0002310931        0.0000296778
	             0.0000342929        0.0004290656        0.0001087375
	             0.0003788358       -0.0003998169       -0.0002203279
	             0.0004917964        0.0000574655        0.0000948116
	            -0.0004635411        0.0061489708        0.0013701899
	             0.0023687292        0.0031014090        0.0036769596

	---Fragment 1 Intrafragment Coordinates---
	 - Coordinate -           - BOHR/RAD -       - ANG/DEG -
	 R(1,2)           =         2.675844	       1.415995
	 R(1,13)          =         1.901004	       1.005968
	 R(1,14)          =         1.911796	       1.011679
	 R(2,3)           =         2.642251	       1.398219
	 R(2,4)           =         2.634070	       1.393890
	 R(3,5)           =         2.628092	       1.390726
	 R(3,8)           =         2.052786	       1.086288
	 R(4,6)           =         2.629098	       1.391259
	 R(4,9)           =         2.051029	       1.085358
	 R(5,7)           =         2.625945	       1.389590
	 R(5,10)          =         2.051985	       1.085864
	 R(6,7)           =         2.626052	       1.389647
	 R(6,11)          =         2.051414	       1.085561
	 R(7,12)          =         2.051072	       1.085381
	 B(1,2,3)         =         2.127537	     121.898896
	 B(1,2,4)         =         2.085430	     119.486316
	 B(2,1,13)        =         2.046331	     117.246140
	 B(2,1,14)        =         2.047368	     117.305520
	 B(2,3,5)         =         2.108775	     120.823912
	 B(2,3,8)         =         2.078220	     119.073215
	 B(2,4,6)         =         2.105914	     120.659994
	 B(2,4,9)         =         2.072870	     118.766683
	 B(3,2,4)         =         2.069014	     118.545770
	 B(3,5,7)         =         2.095731	     120.076516
	 B(3,5,10)        =         2.091992	     119.862287
	 B(4,6,7)         =         2.100093	     120.326489
	 B(4,6,11)        =         2.088770	     119.677680
	 B(5,3,8)         =         2.096165	     120.101431
	 B(5,7,6)         =         2.086422	     119.543167
	 B(5,7,12)        =         2.098192	     120.217530
	 B(6,4,9)         =         2.104399	     120.573181
	 B(6,7,12)        =         2.098554	     120.238309
	 B(7,5,10)        =         2.095385	     120.056744
	 B(7,6,11)        =         2.094295	     119.994268
	 B(13,1,14)       =         1.978325	     113.349685
	 D(1,2,3,5)       =         3.121076	     178.824477
	 D(1,2,3,8)       =        -0.028137	      -1.612103
	 D(1,2,4,6)       =        -3.108265	    -178.090460
	 D(1,2,4,9)       =         0.035709	       2.045948
	 D(2,3,5,7)       =        -0.024756	      -1.418421
	 D(2,3,5,10)      =         3.130226	     179.348730
	 D(2,4,6,7)       =        -0.003484	      -0.199599
	 D(2,4,6,11)      =        -3.137138	    -179.744791
	*D(3,2,1,13)      =         1.134887	      65.024218
	 D(3,2,1,14)      =        -1.310929	     -75.110725
	 D(3,2,4,6)       =        -0.018387	      -1.053522
	 D(3,2,4,9)       =         3.125586	     179.082887
	 D(3,5,7,6)       =         0.002312	       0.132473
	 D(3,5,7,12)      =        -3.132966	    -179.505753
	 D(4,2,1,13)      =        -2.060217	    -118.041738
	 D(4,2,1,14)      =         1.777152	     101.823320
	 D(4,2,3,5)       =         0.032509	       1.862616
	 D(4,2,3,8)       =        -3.116704	    -178.573964
	 D(4,6,7,5)       =         0.011692	       0.669894
	 D(4,6,7,12)      =        -3.136216	    -179.691956
	 D(5,7,6,11)      =        -3.137864	    -179.786358
	 D(6,7,5,10)      =         3.130489	     179.363819
	 D(7,5,3,8)       =         3.124534	     179.022630
	 D(7,6,4,9)       =         3.135685	     179.661520
	 D(8,3,5,10)      =        -0.003669	      -0.210218
	 D(9,4,6,11)      =         0.002030	       0.116328
	 D(10,5,7,12)     =        -0.004789	      -0.274407
	 D(11,6,7,12)     =        -0.002587	      -0.148208

	Current energy   :      -287.4910354477

	Energy change for the previous step:
		Projected    :        -0.0015310215
		Actual       :        -0.0042070394
	Energy ratio indicates good step: Trust radius increased to 1.000e+00.


	Performing BFGS update.
	Previous computed or guess Hessian on step 1.
	Steps to be used in Hessian update: 1
	Taking RFO optimization step.
	Going to follow RFO solution 1.
	Using RFO vector 1.
	Norm of target step-size    0.37797
	Projected energy change by RFO approximation:        -0.0022576382

	Back-transformation to cartesian coordinates...
	Could not converge backtransformation.
	Using first guess instead.

	Back-transformation to cartesian coordinates to adjust frozen coordinates...
	Successfully converged to displaced geometry.

	--- Internal Coordinate Step in ANG or DEG, aJ/ANG or AJ/DEG ---
	 ---------------------------------------------------------------------------
	   Coordinate                Previous        Force       Change         New 
	   ----------                --------       ------       ------       ------
	    1 R(1,2)          =      1.415995     0.042818    25.027297    26.443292
	    2 R(1,13)         =      1.005968     0.017735     5.516200     6.522168
	    3 R(1,14)         =      1.011679    -0.025904    18.983345    19.995023
	    4 R(2,3)          =      1.398219     0.010666    23.106314    24.504533
	    5 R(2,4)          =      1.393890     0.016142    21.377109    22.770999
	    6 R(3,5)          =      1.390726     0.007661    24.689713    26.080440
	    7 R(3,8)          =      1.086288     0.004671    17.021198    18.107485
	    8 R(4,6)          =      1.391259     0.010807    24.705176    26.096435
	    9 R(4,9)          =      1.085358     0.001287    17.725159    18.810517
	   10 R(5,7)          =      1.389590     0.025416    21.566881    22.956471
	   11 R(5,10)         =      1.085864     0.003514    17.712393    18.798257
	   12 R(6,7)          =      1.389647     0.019173    22.562682    23.952329
	   13 R(6,11)         =      1.085561     0.004775    16.653491    17.739052
	   14 R(7,12)         =      1.085381     0.004152    19.247433    20.332814
	   15 B(1,2,3)        =    121.898896     0.000099    12.450455   134.349351
	   16 B(1,2,4)        =    119.486316    -0.000139     0.851988   120.338305
	   17 B(2,1,13)       =    117.246140    -0.000176   -22.069776    95.176363
	   18 B(2,1,14)       =    117.305520    -0.000195   -14.513593   102.791926
	   19 B(2,3,5)        =    120.823912    -0.000004    13.986498   134.810410
	   20 B(2,3,8)        =    119.073215    -0.000032   -12.325662   106.747552
	   21 B(2,4,6)        =    120.659994     0.000011    -0.778667   119.881327
	   22 B(2,4,9)        =    118.766683    -0.000087   -14.504178   104.262505
	   23 B(3,2,4)        =    118.545770     0.000039   -13.238626   105.307144
	   24 B(3,5,7)        =    120.076516    -0.000021    -1.501293   118.575223
	   25 B(3,5,10)       =    119.862287     0.000002    14.213454   134.075741
	   26 B(4,6,7)        =    120.326489    -0.000047    14.516736   134.843225
	   27 B(4,6,11)       =    119.677680     0.000024    -1.288798   118.388882
	   28 B(5,3,8)        =    120.101431     0.000036    -1.673308   118.428123
	   29 B(5,7,6)        =    119.543167     0.000023   -12.988607   106.554560
	   30 B(5,7,12)       =    120.217530    -0.000010    -1.586900   118.630630
	   31 B(6,4,9)        =    120.573181     0.000077    15.271379   135.844560
	   32 B(6,7,12)       =    120.238309    -0.000012    14.560452   134.798762
	   33 B(7,5,10)       =    120.056744     0.000019   -12.714229   107.342514
	   34 B(7,6,11)       =    119.994268     0.000023   -13.238502   106.755766
	   35 B(13,1,14)      =    113.349685     0.000129   -41.100719    72.248966
	   36 D(1,2,3,5)      =    178.824477    -0.000006     0.338116   179.162593
	   37 D(1,2,3,8)      =     -1.612103    -0.000004     2.211418     0.599315
	   38 D(1,2,4,6)      =   -178.090460     0.000001    -1.220799  -179.311259
	   39 D(1,2,4,9)      =      2.045948     0.000003    -2.407228    -0.361280
	   40 D(2,3,5,7)      =     -1.418421     0.000002     2.956614     1.538192
	   41 D(2,3,5,10)     =    179.348730     0.000001     1.126095   180.474825
	   42 D(2,4,6,7)      =     -0.199599     0.000004    -1.351479    -1.551079
	   43 D(2,4,6,11)     =   -179.744791     0.000000    -0.345702  -180.090492
	   44 *D(3,2,1,13)    =     65.024218    -0.000000     0.000000    65.024218
	   45 D(3,2,1,14)     =    -75.110725     0.000067    67.193741    -7.916984
	   46 D(3,2,4,6)      =     -1.053522    -0.000003     2.457755     1.404234
	   47 D(3,2,4,9)      =    179.082887    -0.000001     1.271326   180.354213
	   48 D(3,5,7,6)      =      0.132473    -0.000001    -1.005355    -0.872881
	   49 D(3,5,7,12)     =   -179.505753    -0.000001    -0.121803  -179.627557
	   50 D(4,2,1,13)     =   -118.041738    -0.000004     4.031043  -114.010695
	   51 D(4,2,1,14)     =    101.823320     0.000063    71.224784   173.048103
	   52 D(4,2,3,5)      =      1.862616    -0.000000    -3.563576    -1.700960
	   53 D(4,2,3,8)      =   -178.573964     0.000001    -1.690274  -180.264238
	   54 D(4,6,7,5)      =      0.669894    -0.000002     0.426554     1.096448
	   55 D(4,6,7,12)     =   -179.691956    -0.000002    -0.752073  -180.444029
	   56 D(5,7,6,11)     =   -179.786358     0.000002    -0.459083  -180.245441
	   57 D(6,7,5,10)     =    179.363819     0.000000     0.563607   179.927427
	   58 D(7,5,3,8)      =    179.022630     0.000001     0.951104   179.973734
	   59 D(7,6,4,9)      =    179.661520     0.000002     0.248353   179.909873
	   60 D(8,3,5,10)     =     -0.210218    -0.000001    -0.879414    -1.089633
	   61 D(9,4,6,11)     =      0.116328    -0.000001     1.254131     1.370459
	   62 D(10,5,7,12)    =     -0.274407     0.000000     1.447159     1.172751
	   63 D(11,6,7,12)    =     -0.148208     0.000002    -1.637710    -1.785918
	 ---------------------------------------------------------------------------
	Successfully symmetrized geometry.
	The BAD_STEP_EXCEPTion handler:
	Step is far too large.

	Dynamic level is 1.
	Consecutive backsteps is 0.
	The INTCO_EXCEPTion handler:
	Too many bad steps.
	Dynamic level is 1.
	exc.g_really_quit() is 0.
	Raising dynamic level to 2. ~
	Removing binary optimization data file.

    Structure for next step:
    Molecular point group: c1
    Full point group: C1

    Geometry (in Angstrom), charge = 0, multiplicity = 1:

    N            2.311264475743     0.378374678655     0.225654590995
    C            0.923665891442     0.146508191555     0.064871690795
    C            0.416416765166    -1.121184445817    -0.236243322703
    C            0.024891076094     1.191596189342     0.272052632278
    C           -0.952664368689    -1.328663746097    -0.365428685393
    C           -1.345778679570     0.981392114817     0.159446480561
    C           -1.838314425952    -0.276570478775    -0.166217916503
    H            1.108191635164    -1.946930816522    -0.376284278208
    H            0.414183152133     2.173716284316     0.520836927512
    H           -1.328955503840    -2.317432739143    -0.610052033290
    H           -2.031252244785     1.807688637455     0.320080868947
    H           -2.907674298545    -0.437779116943    -0.258589005224
    H            2.896170957629     0.251187982020    -0.582849911998
    H            2.738972272561     0.057432076130     1.084465163071

gradient() will perform analytic gradient computation.

*** tstart() called on daniele-Precision-5750
*** at Mon May 24 20:59:46 2021

   => Loading Basis Set <=

    Name: 6-31G*
    Role: ORBITAL
    Keyword: BASIS
    atoms 1    entry N          line   128 file /home/daniele/anaconda3/envs/poltype/share/psi4/basis/6-31gs.gbs 
    atoms 2-7  entry C          line   111 file /home/daniele/anaconda3/envs/poltype/share/psi4/basis/6-31gs.gbs 
    atoms 8-14 entry H          line    44 file /home/daniele/anaconda3/envs/poltype/share/psi4/basis/6-31gs.gbs 


         ---------------------------------------------------------
                                   SCF
               by Justin Turney, Rob Parrish, Andy Simmonett
                          and Daniel G. A. Smith
                              RKS Reference
                        8 Threads,    667 MiB Core
         ---------------------------------------------------------

  ==> Geometry <==

    Molecular point group: c1
    Full point group: C1

    Geometry (in Angstrom), charge = 0, multiplicity = 1:

       Center              X                  Y                   Z               Mass       
    ------------   -----------------  -----------------  -----------------  -----------------
         N            2.311264475743     0.378374678655     0.225654590995    14.003074004430
         C            0.923665891442     0.146508191555     0.064871690795    12.000000000000
         C            0.416416765166    -1.121184445817    -0.236243322703    12.000000000000
         C            0.024891076094     1.191596189342     0.272052632278    12.000000000000
         C           -0.952664368689    -1.328663746097    -0.365428685393    12.000000000000
         C           -1.345778679570     0.981392114817     0.159446480561    12.000000000000
         C           -1.838314425952    -0.276570478775    -0.166217916503    12.000000000000
         H            1.108191635164    -1.946930816522    -0.376284278208     1.007825032230
         H            0.414183152133     2.173716284316     0.520836927512     1.007825032230
         H           -1.328955503840    -2.317432739143    -0.610052033290     1.007825032230
         H           -2.031252244785     1.807688637455     0.320080868947     1.007825032230
         H           -2.907674298545    -0.437779116943    -0.258589005224     1.007825032230
         H            2.896170957629     0.251187982020    -0.582849911998     1.007825032230
         H            2.738972272561     0.057432076130     1.084465163071     1.007825032230

  Running in c1 symmetry.

  Rotational constants: A =      0.18894  B =      0.08556  C =      0.05948 [cm^-1]
  Rotational constants: A =   5664.32257  B =   2564.88288  C =   1783.21574 [MHz]
  Nuclear repulsion =  271.226092391670875

  Charge       = 0
  Multiplicity = 1
  Electrons    = 50
  Nalpha       = 25
  Nbeta        = 25

  ==> Algorithm <==

  SCF Algorithm Type is DF.
  DIIS enabled.
  MOM disabled.
  Fractional occupation disabled.
  Guess Type is READ.
  Energy threshold   = 1.00e-08
  Density threshold  = 1.00e-08
  Integral threshold = 0.00e+00

  ==> Primary Basis <==

  Basis Set: 6-31G*
    Blend: 6-31G*
    Number of shells: 56
    Number of basis function: 119
    Number of Cartesian functions: 119
    Spherical Harmonics?: false
    Max angular momentum: 2

  ==> DFT Potential <==

   => Composite Functional: WB97X-D <= 

    wB97X-D Hyb-GGA Exchange-Correlation Functional

    J.-D. Chai and M. Head-Gordon, Phys. Chem. Chem. Phys. 10, 6615 (2008)

    Deriv               =              1
    GGA                 =           TRUE
    Meta                =          FALSE

    Exchange Hybrid     =           TRUE
    MP2 Hybrid          =          FALSE

   => Exchange-Correlation Functionals <=

    1.0000   wB97D range-separated functional

   => Exact (HF) Exchange <=

    0.7780            HF,LR [omega = 0.2000]
    0.2220               HF 

   => Molecular Quadrature <=

    Radial Scheme          =       TREUTLER
    Pruning Scheme         =           FLAT
    Nuclear Scheme         =       TREUTLER

    BS radius alpha        =              1
    Pruning alpha          =              1
    Radial Points          =             75
    Spherical Points       =            302
    Total Points           =         308052
    Total Blocks           =           2367
    Max Points             =            256
    Max Functions          =            118

   => WB97X-D: Empirical Dispersion <=

    Chai and Head-Gordon Dispersion Correction
    Chai, J.-D.; Head-Gordon, M. (2010), J. Chem. Phys., 132: 6615-6620

        s6 =       1.000000

   => Loading Basis Set <=

    Name: (6-31G* AUX)
    Role: JKFIT
    Keyword: DF_BASIS_SCF
    atoms 1    entry N          line   171 file /home/daniele/anaconda3/envs/poltype/share/psi4/basis/cc-pvdz-jkfit.gbs 
    atoms 2-7  entry C          line   121 file /home/daniele/anaconda3/envs/poltype/share/psi4/basis/cc-pvdz-jkfit.gbs 
    atoms 8-14 entry H          line    51 file /home/daniele/anaconda3/envs/poltype/share/psi4/basis/cc-pvdz-jkfit.gbs 

   => Loading Basis Set <=

    Name: 6-31G*
    Role: ORBITAL
    Keyword: BASIS
    atoms 1    entry N          line   128 file /home/daniele/anaconda3/envs/poltype/share/psi4/basis/6-31gs.gbs 
    atoms 2-7  entry C          line   111 file /home/daniele/anaconda3/envs/poltype/share/psi4/basis/6-31gs.gbs 
    atoms 8-14 entry H          line    44 file /home/daniele/anaconda3/envs/poltype/share/psi4/basis/6-31gs.gbs 

  Reading orbitals from file 180, no projection.

  ==> Pre-Iterations <==

   -------------------------------------------------------
    Irrep   Nso     Nmo     Nalpha   Nbeta   Ndocc  Nsocc
   -------------------------------------------------------
     A        119     119       0       0       0       0
   -------------------------------------------------------
    Total     119     119      25      25      25       0
   -------------------------------------------------------

  ==> Integral Setup <==

  ==> DiskDFJK: Density-Fitted J/K Matrices <==

    J tasked:                  Yes
    K tasked:                  Yes
    wK tasked:                 Yes
    Omega:               2.000E-01
    OpenMP threads:              8
    Integrals threads:           8
    Memory [MiB]:               53
    Algorithm:                Disk
    Integral Cache:           NONE
    Schwarz Cutoff:          1E-12
    Fitting Condition:       1E-10

   => Auxiliary Basis Set <=

  Basis Set: (6-31G* AUX)
    Blend: CC-PVDZ-JKFIT
    Number of shells: 231
    Number of basis function: 742
    Number of Cartesian functions: 742
    Spherical Harmonics?: false
    Max angular momentum: 3

  Cached 100.0% of DFT collocation blocks in 0.812 [GiB].

  Minimum eigenvalue in the overlap matrix is 4.4147405224E-04.
  Using Symmetric Orthogonalization.

  SCF Guess: Orbitals guess was supplied from a previous computation.

  ==> Iterations <==

                           Total Energy        Delta E     RMS |[F,P]|

   @DF-RKS iter   0:  -287.49103542469510   -2.87491e+02   1.78286e-09 
   @DF-RKS iter   1:  -287.49103542469487    2.27374e-13   1.79588e-09 DIIS
  Energy and wave function converged.


  ==> Post-Iterations <==

    Orbital Energies [Eh]
    ---------------------

    Doubly Occupied:                                                      

       1A    -14.426506     2A    -10.324407     3A    -10.295449  
       4A    -10.294510     5A    -10.293943     6A    -10.291771  
       7A    -10.288740     8A     -0.992066     9A     -0.929545  
      10A     -0.836650    11A     -0.816108    12A     -0.692314  
      13A     -0.680582    14A     -0.605666    15A     -0.578166  
      16A     -0.553103    17A     -0.531759    18A     -0.508438  
      19A     -0.496431    20A     -0.443109    21A     -0.431071  
      22A     -0.419871    23A     -0.320006    24A     -0.319044  
      25A     -0.306210  

    Virtual:                                                              

      26A      0.075714    27A      0.079258    28A      0.180257  
      29A      0.187643    30A      0.232310    31A      0.236361  
      32A      0.250287    33A      0.277333    34A      0.283249  
      35A      0.287569    36A      0.351868    37A      0.390680  
      38A      0.395424    39A      0.433128    40A      0.447685  
      41A      0.575329    42A      0.619203    43A      0.631300  
      44A      0.643392    45A      0.651688    46A      0.690891  
      47A      0.691885    48A      0.694610    49A      0.699599  
      50A      0.712358    51A      0.715340    52A      0.750783  
      53A      0.760505    54A      0.772059    55A      0.826191  
      56A      0.854690    57A      0.896513    58A      0.937428  
      59A      0.943446    60A      0.946772    61A      0.958184  
      62A      0.969420    63A      1.002427    64A      1.026408  
      65A      1.035898    66A      1.045163    67A      1.053454  
      68A      1.106237    69A      1.164071    70A      1.204445  
      71A      1.218855    72A      1.283061    73A      1.301075  
      74A      1.345525    75A      1.419266    76A      1.503330  
      77A      1.540698    78A      1.554353    79A      1.572667  
      80A      1.582611    81A      1.598852    82A      1.608327  
      83A      1.880742    84A      1.892626    85A      1.917180  
      86A      1.969176    87A      1.996995    88A      2.014141  
      89A      2.053238    90A      2.079850    91A      2.164092  
      92A      2.188583    93A      2.220606    94A      2.228210  
      95A      2.256885    96A      2.301667    97A      2.363447  
      98A      2.390169    99A      2.406760   100A      2.434064  
     101A      2.565182   102A      2.662480   103A      2.667882  
     104A      2.688652   105A      2.770857   106A      2.822225  
     107A      2.832158   108A      2.845988   109A      2.908235  
     110A      2.982126   111A      3.186367   112A      3.528447  
     113A      3.950703   114A      4.201047   115A      4.225646  
     116A      4.241077   117A      4.438878   118A      4.466524  
     119A      4.801492  

    Final Occupation by Irrep:
              A 
    DOCC [    25 ]

  @DF-RKS Final Energy:  -287.49103542469487

   => Energetics <=

    Nuclear Repulsion Energy =            271.2260923916708748
    One-Electron Energy =                -924.5128900399598706
    Two-Electron Energy =                 394.6575092075131579
    DFT Exchange-Correlation Energy =     -28.8561142943613618
    Empirical Dispersion Energy =          -0.0056326895577602
    VV10 Nonlocal Energy =                  0.0000000000000000
    Total Energy =                       -287.4910354246949282

Computation Completed


Properties will be evaluated at   0.000000,   0.000000,   0.000000 [a0]

Properties computed using the SCF density matrix

  Nuclear Dipole Moment: [e a0]
     X:     0.8273      Y:    -0.3874      Z:     0.0908

  Electronic Dipole Moment: [e a0]
     X:    -0.6160      Y:     0.0457      Z:    -0.0929

  Dipole Moment: [e a0]
     X:     0.2113      Y:    -0.3417      Z:    -0.0021     Total:     0.4018

  Dipole Moment: [D]
     X:     0.5371      Y:    -0.8686      Z:    -0.0053     Total:     1.0213


*** tstop() called on daniele-Precision-5750 at Mon May 24 20:59:47 2021
Module time:
	user time   =      14.08 seconds =       0.23 minutes
	system time =       0.27 seconds =       0.00 minutes
	total time  =          1 seconds =       0.02 minutes
Total time:
	user time   =     114.62 seconds =       1.91 minutes
	system time =       2.48 seconds =       0.04 minutes
	total time  =         15 seconds =       0.25 minutes

*** tstart() called on daniele-Precision-5750
*** at Mon May 24 20:59:47 2021


         ------------------------------------------------------------
                                   SCF GRAD                          
                          Rob Parrish, Justin Turney,                
                       Andy Simmonett, and Alex Sokolov              
         ------------------------------------------------------------

  ==> Geometry <==

    Molecular point group: c1
    Full point group: C1

    Geometry (in Angstrom), charge = 0, multiplicity = 1:

       Center              X                  Y                   Z               Mass       
    ------------   -----------------  -----------------  -----------------  -----------------
         N            2.311264475743     0.378374678655     0.225654590995    14.003074004430
         C            0.923665891442     0.146508191555     0.064871690795    12.000000000000
         C            0.416416765166    -1.121184445817    -0.236243322703    12.000000000000
         C            0.024891076094     1.191596189342     0.272052632278    12.000000000000
         C           -0.952664368689    -1.328663746097    -0.365428685393    12.000000000000
         C           -1.345778679570     0.981392114817     0.159446480561    12.000000000000
         C           -1.838314425952    -0.276570478775    -0.166217916503    12.000000000000
[...]
         C           -0.941918877423    -1.343969180307    -0.358402214929    12.000000000000
         C           -1.356241508184     0.978946189123     0.138940933387    12.000000000000
         C           -1.837436694251    -0.290545743571    -0.175127172163    12.000000000000
         H            1.129907797300    -1.943104949602    -0.361449978744     1.007825032230
         H            0.410813931549     2.175601460627     0.510569588738     1.007825032230
         H           -1.310167828640    -2.338145308010    -0.596918813616     1.007825032230
         H           -2.049459134350     1.802235102386     0.289256163801     1.007825032230
         H           -2.906077391896    -0.460328155157    -0.273246137626     1.007825032230
         H            2.853732452489     0.274243799686    -0.600050249295     1.007825032230
         H            2.714938422198    -0.125524653977     1.015648586746     1.007825032230

  Nuclear repulsion =  270.617425641124441

  ==> Basis Set <==

  Basis Set: 6-31G*
    Blend: 6-31G*
    Number of shells: 56
    Number of basis function: 119
    Number of Cartesian functions: 119
    Spherical Harmonics?: false
    Max angular momentum: 2

  ==> DFJKGrad: Density-Fitted SCF Gradients <==

    Gradient:                    1
    J tasked:                  Yes
    K tasked:                  Yes
    wK tasked:                 Yes
    Omega:               2.000E-01
    OpenMP threads:              8
    Integrals threads:           8
    Memory [MiB]:              500
    Schwarz Cutoff:          0E+00
    Fitting Condition:       1E-10

   => Auxiliary Basis Set <=

  Basis Set: (6-31G* AUX)
    Blend: CC-PVDZ-JKFIT
    Number of shells: 231
    Number of basis function: 742
    Number of Cartesian functions: 742
    Spherical Harmonics?: false
    Max angular momentum: 3

  ==> DFT Potential <==

   => Composite Functional: WB97X-D <= 

    wB97X-D Hyb-GGA Exchange-Correlation Functional

    J.-D. Chai and M. Head-Gordon, Phys. Chem. Chem. Phys. 10, 6615 (2008)

    Deriv               =              1
    GGA                 =           TRUE
    Meta                =          FALSE

    Exchange Hybrid     =           TRUE
    MP2 Hybrid          =          FALSE

   => Exchange-Correlation Functionals <=

    1.0000   wB97D range-separated functional

   => Exact (HF) Exchange <=

    0.7780            HF,LR [omega = 0.2000]
    0.2220               HF 

   => Molecular Quadrature <=

    Radial Scheme          =       TREUTLER
    Pruning Scheme         =           FLAT
    Nuclear Scheme         =       TREUTLER

    BS radius alpha        =              1
    Pruning alpha          =              1
    Radial Points          =             75
    Spherical Points       =            302
    Total Points           =         308040
    Total Blocks           =           2358
    Max Points             =            256
    Max Functions          =            118


  -Total Gradient:
     Atom            X                  Y                   Z
    ------   -----------------  -----------------  -----------------
       1       -0.001384293794    -0.005344561156    -0.005670455334
       2        0.003156946434     0.003102707870    -0.003859409428
       3       -0.001000187767    -0.001270480446     0.001317757725
       4       -0.000814423329     0.000328534965     0.001930774930
       5        0.000487934830    -0.001367584459    -0.000534769581
       6       -0.000423884145     0.001133161951     0.000420407711
       7       -0.000978662108     0.000072805546     0.000009894618
       8        0.000436812011     0.000055389543     0.000196321190
       9        0.000282667650     0.000103183920    -0.000172467305
      10       -0.000032316384    -0.000298232975    -0.000091399211
      11       -0.000194246635     0.000337673856     0.000075645647
      12       -0.000321036201    -0.000002420575    -0.000033284673
      13       -0.000438602402     0.003794322344    -0.001258587105
      14        0.001169400110    -0.000672445607     0.007660297791


*** tstop() called on daniele-Precision-5750 at Mon May 24 21:00:01 2021
Module time:
	user time   =      14.32 seconds =       0.24 minutes
	system time =       0.17 seconds =       0.00 minutes
	total time  =          1 seconds =       0.02 minutes
Total time:
	user time   =     223.22 seconds =       3.72 minutes
	system time =       4.40 seconds =       0.07 minutes
	total time  =         29 seconds =       0.48 minutes

			-----------------------------------------
			 OPTKING 2.0: for geometry optimizations 
			  - R.A. King,  Bethel University        
			-----------------------------------------
	At level 2: Red. Int., RFO, backsteps, smaller trust.

	Previous internal coordinate definitions found.
	---Fragment 1 Geometry and Gradient---
	 N           4.3782751683        0.7856158327        0.4678270946
	 C           1.7393510209        0.2850466349        0.1336854697
	 C           0.8056419658       -2.1241055274       -0.4318117929
	 C           0.0271423029        2.2587611136        0.5004419532
	 C          -1.7799687107       -2.5397336718       -0.6772820290
	 C          -2.5629250104        1.8499401890        0.2625603117
	 C          -3.4722521250       -0.5490518823       -0.3309423925
	 H           2.1352162839       -3.6719361878       -0.6830414679
	 H           0.7763258192        4.1112909187        0.9648366907
	 H          -2.4758583745       -4.4184542737       -1.1280130769
	 H          -3.8729164692        3.4057307572        0.5466149297
	 H          -5.4916903701       -0.8698941411       -0.5163603650
	 H           5.3927727705        0.5182456730       -1.1339306327
	 H           5.1304900654       -0.2372072180        1.9192976687
	            -0.0013842938       -0.0053445612       -0.0056704553
	             0.0031569464        0.0031027079       -0.0038594094
	            -0.0010001878       -0.0012704804        0.0013177577
	            -0.0008144233        0.0003285350        0.0019307749
	             0.0004879348       -0.0013675845       -0.0005347696
	            -0.0004238841        0.0011331620        0.0004204077
	            -0.0009786621        0.0000728055        0.0000098946
	             0.0004368120        0.0000553895        0.0001963212
	             0.0002826677        0.0001031839       -0.0001724673
	            -0.0000323164       -0.0002982330       -0.0000913992
	            -0.0001942466        0.0003376739        0.0000756456
	            -0.0003210362       -0.0000024206       -0.0000332847
	            -0.0004386024        0.0037943223       -0.0012585871
	             0.0011694001       -0.0006724456        0.0076602978

	---Fragment 1 Intrafragment Coordinates---
	 - Coordinate -           - BOHR/RAD -       - ANG/DEG -
	 R(1,2)           =         2.706684	       1.432316
	 R(1,13)          =         1.914764	       1.013249
	 R(1,14)          =         1.928409	       1.020470
	 R(2,3)           =         2.644922	       1.399633
	 R(2,4)           =         2.638507	       1.396238
	 R(3,5)           =         2.630282	       1.391885
	 R(3,8)           =         2.055885	       1.087928
	 R(4,6)           =         2.632902	       1.393272
	 R(4,9)           =         2.051537	       1.085627
	 R(5,7)           =         2.635638	       1.394720
	 R(5,10)          =         2.053536	       1.086685
	 R(6,7)           =         2.633303	       1.393484
	 R(6,11)          =         2.053594	       1.086715
	 R(7,12)          =         2.053156	       1.086483
	 B(1,2,3)         =         2.140080	     122.617548
	 B(1,2,4)         =         2.068244	     118.501645
	 B(2,1,13)        =         1.968683	     112.797230
	 B(2,1,14)        =         1.955336	     112.032520
	 B(2,3,5)         =         2.107037	     120.724334
	 B(2,3,8)         =         2.075547	     118.920102
	 B(2,4,6)         =         2.105590	     120.641413
	 B(2,4,9)         =         2.060049	     118.032120
	 B(3,2,4)         =         2.073727	     118.815793
	 B(3,5,7)         =         2.093887	     119.970901
	 B(3,5,10)        =         2.092280	     119.878808
	 B(4,6,7)         =         2.096152	     120.100687
	 B(4,6,11)        =         2.091386	     119.827612
	 B(5,3,8)         =         2.100597	     120.355332
	 B(5,7,6)         =         2.089764	     119.734659
	 B(5,7,12)        =         2.096287	     120.108394
	 B(6,4,9)         =         2.117535	     121.325818
	 B(6,7,12)        =         2.097127	     120.156547
	 B(7,5,10)        =         2.097002	     120.149351
	 B(7,6,11)        =         2.095642	     120.071448
	 B(13,1,14)       =         1.927198	     110.420326
	 D(1,2,3,5)       =         3.112675	     178.343158
	 D(1,2,3,8)       =        -0.031967	      -1.831547
	 D(1,2,4,6)       =        -3.112093	    -178.309822
	 D(1,2,4,9)       =         0.034548	       1.979433
	 D(2,3,5,7)       =        -0.012567	      -0.720022
	 D(2,3,5,10)      =         3.135170	     179.632027
	 D(2,4,6,7)       =         0.007132	       0.408627
	 D(2,4,6,11)      =        -3.137650	    -179.774079
	*D(3,2,1,13)      =         1.134887	      65.024218
	 D(3,2,1,14)      =        -1.052649	     -60.312335
	 D(3,2,4,6)       =        -0.020322	      -1.164363
	 D(3,2,4,9)       =         3.126319	     179.124892
	 D(3,5,7,6)       =        -0.001018	      -0.058338
	 D(3,5,7,12)      =        -3.138600	    -179.828553
	 D(4,2,1,13)      =        -2.058533	    -117.945266
	 D(4,2,1,14)      =         2.037117	     116.718180
	 D(4,2,3,5)       =         0.023066	       1.321562
	 D(4,2,3,8)       =        -3.121576	    -178.853143
	 D(4,6,7,5)       =         0.003723	       0.213313
	 D(4,6,7,12)      =         3.141303	     179.983416
	 D(5,7,6,11)      =        -3.134673	    -179.603533
	 D(6,7,5,10)      =         3.134413	     179.588652
	 D(7,5,3,8)       =         3.132119	     179.457191
	 D(7,6,4,9)       =        -3.139677	    -179.890265
	 D(8,3,5,10)      =        -0.003329	      -0.190760
	 D(9,4,6,11)      =        -0.001274	      -0.072970
	 D(10,5,7,12)     =        -0.003169	      -0.181564
	 D(11,6,7,12)     =         0.002907	       0.166570

	Current energy   :      -287.4933663433

	Energy change for the previous step:
		Projected    :        -0.0007136816
		Actual       :        -0.0010613211

	Performing BFGS update.
	Previous computed or guess Hessian on step 1.
	Steps to be used in Hessian update: 2 1
	Taking RFO optimization step.
	Going to follow RFO solution 1.
	Using RFO vector 1.

	Determining step-restricting scale parameter for RS-RFO.
	Maximum step size allowed    0.20000

	 Iter      |step|        alpha        rfo_root  
	------------------------------------------------
	    0     0.70228       1.00000           1
	    1     0.45719       3.08423           1
	    2     0.31502       7.27129           1
	    3     0.23954      13.14131           1
	    4     0.20763      17.73008           1
	    5     0.20039      19.08289           1
	    6     0.20000      19.15971           1
	------------------------------------------------
	Norm of target step-size    0.20000
	Projected energy change by RFO approximation:        -0.0007589857

	Back-transformation to cartesian coordinates...
	Could not converge backtransformation.
	Using first guess instead.

	Back-transformation to cartesian coordinates to adjust frozen coordinates...
	Successfully converged to displaced geometry.

	--- Internal Coordinate Step in ANG or DEG, aJ/ANG or AJ/DEG ---
	 ---------------------------------------------------------------------------
	   Coordinate                Previous        Force       Change         New 
	   ----------                --------       ------       ------       ------
	    1 R(1,2)          =      1.432316     0.007760     0.001474     1.433790
	    2 R(1,13)         =      1.013249    -0.002367     0.000528     1.013778
	    3 R(1,14)         =      1.020470    -0.054175     0.000162     1.020632
	    4 R(2,3)          =      1.399633    -0.011265     0.000728     1.400361
	    5 R(2,4)          =      1.396238    -0.012612     0.001648     1.397886
	    6 R(3,5)          =      1.391885    -0.004751     0.000942     1.392827
	    7 R(3,8)          =      1.087928    -0.001808     0.000301     1.088228
	    8 R(4,6)          =      1.393272    -0.007184     0.000925     1.394197
	    9 R(4,9)          =      1.085627    -0.001308     0.000111     1.085738
	   10 R(5,7)          =      1.394720    -0.015078     0.001938     1.396658
	   11 R(5,10)         =      1.086685    -0.002492     0.000416     1.087101
	   12 R(6,7)          =      1.393484    -0.012350     0.001464     1.394948
	   13 R(6,11)         =      1.086715    -0.003194     0.000571     1.087286
	   14 R(7,12)         =      1.086483    -0.002597     0.000405     1.086889
	   15 B(1,2,3)        =    122.617548    -0.000007     0.032500   122.650048
	   16 B(1,2,4)        =    118.501645    -0.000013    -0.070358   118.431286
	   17 B(2,1,13)       =    112.797230    -0.000076    -2.327589   110.469641
	   18 B(2,1,14)       =    112.032520     0.000004    -2.227372   109.805148
	   19 B(2,3,5)        =    120.724334    -0.000026    -0.058383   120.665951
	   20 B(2,3,8)        =    118.920102     0.000046    -0.004431   118.915671
	   21 B(2,4,6)        =    120.641413    -0.000021     0.016720   120.658132
	   22 B(2,4,9)        =    118.032120     0.000028    -0.123533   117.908588
	   23 B(3,2,4)        =    118.815793     0.000021     0.070677   118.886470
	   24 B(3,5,7)        =    119.970901     0.000017     0.012085   119.982986
	   25 B(3,5,10)       =    119.878808    -0.000002    -0.037276   119.841532
	   26 B(4,6,7)        =    120.100687     0.000019    -0.075551   120.025136
	   27 B(4,6,11)       =    119.827612    -0.000005     0.032108   119.859719
	   28 B(5,3,8)        =    120.355332    -0.000019     0.063044   120.418375
	   29 B(5,7,6)        =    119.734659    -0.000010     0.041886   119.776545
	   30 B(5,7,12)       =    120.108394     0.000002    -0.006889   120.101505
	   31 B(6,4,9)        =    121.325818    -0.000007     0.106903   121.432721
	   32 B(6,7,12)       =    120.156547     0.000008    -0.034631   120.121916
	   33 B(7,5,10)       =    120.149351    -0.000015     0.026077   120.175428
	   34 B(7,6,11)       =    120.071448    -0.000015     0.042051   120.113499
	   35 B(13,1,14)      =    110.420326    -0.000125    -2.881434   107.538892
	   36 D(1,2,3,5)      =    178.343158     0.000001     0.228290   178.571448
	   37 D(1,2,3,8)      =     -1.831547     0.000001     0.383017    -1.448531
	   38 D(1,2,4,6)      =   -178.309822    -0.000003    -0.532481  -178.842302
	   39 D(1,2,4,9)      =      1.979433    -0.000004    -0.553524     1.425909
	   40 D(2,3,5,7)      =     -0.720022     0.000003     0.512230    -0.207792
	   41 D(2,3,5,10)     =    179.632027     0.000001     0.245022   179.877048
	   42 D(2,4,6,7)      =      0.408627     0.000001     0.162804     0.571430
	   43 D(2,4,6,11)     =   -179.774079    -0.000000    -0.120566  -179.894644
	   44 *D(3,2,1,13)    =     65.024218    -0.000000     0.000000    65.024218
	   45 D(3,2,1,14)     =    -60.312335     0.000052     6.891650   -53.420685
	   46 D(3,2,4,6)      =     -1.164363     0.000001     0.313569    -0.850794
	   47 D(3,2,4,9)      =    179.124892    -0.000000     0.292526   179.417418
	   48 D(3,5,7,6)      =     -0.058338    -0.000001    -0.025268    -0.083606
	   49 D(3,5,7,12)     =   -179.828553    -0.000001    -0.188276  -180.016829
	   50 D(4,2,1,13)     =   -117.945266     0.000004     0.880814  -117.064452
	   51 D(4,2,1,14)     =    116.718180     0.000056     7.772465   124.490645
	   52 D(4,2,3,5)      =      1.321562    -0.000003    -0.652351     0.669211
	   53 D(4,2,3,8)      =   -178.853143    -0.000003    -0.497625  -179.350768
	   54 D(4,6,7,5)      =      0.213313    -0.000001    -0.309741    -0.096428
	   55 D(4,6,7,12)     =    179.983416    -0.000001    -0.146635   179.836782
	   56 D(5,7,6,11)     =   -179.603533     0.000000    -0.025627  -179.629160
	   57 D(6,7,5,10)     =    179.588652     0.000001     0.242616   179.831268
	   58 D(7,5,3,8)      =    179.457191     0.000002     0.355297   179.812488
	   59 D(7,6,4,9)      =   -179.890265     0.000002     0.183915  -179.706350
	   60 D(8,3,5,10)     =     -0.190760     0.000001     0.088088    -0.102672
	   61 D(9,4,6,11)     =     -0.072970     0.000001    -0.099455    -0.172425
	   62 D(10,5,7,12)    =     -0.181564     0.000001     0.079608    -0.101955
	   63 D(11,6,7,12)    =      0.166570     0.000000     0.137479     0.304049
	 ---------------------------------------------------------------------------
	Successfully symmetrized geometry.

  ==> Convergence Check <==

  Measures of convergence in internal coordinates in au.
  Criteria marked as inactive (o), active & met (*), and active & unmet ( ).
  ---------------------------------------------------------------------------------------------
   Step     Total Energy     Delta E     MAX Force     RMS Force      MAX Disp      RMS Disp   
  ---------------------------------------------------------------------------------------------
    Convergence Criteria             o    2.50e-03 *    1.70e-03 *    1.00e-02 *    6.70e-03 *
  ---------------------------------------------------------------------------------------------
      3    -287.49336634   -1.06e-03 o    6.58e-03      1.12e-03 *    1.36e-01      2.51e-02    ~
  ---------------------------------------------------------------------------------------------

	Writing optimization data to binary file.
	Structure for next step:
	Cartesian Geometry (in Angstrom)
	    N     2.3181525090   0.4328416646   0.2667777091
	    C     0.9219629565   0.1593932479   0.0889178076
	    C     0.4350142150  -1.1178611282  -0.2152412532
	    C     0.0108984535   1.2041384090   0.2693448143
	    C    -0.9328433852  -1.3430989263  -0.3501527666
	    C    -1.3589919125   0.9845371104   0.1316468772
	    C    -1.8339756713  -0.2901038306  -0.1774827106
	    H     1.1432341270  -1.9338016894  -0.3452651225
	    H     0.4052011948   2.1856836538   0.5141323886
	    H    -1.2960644061  -2.3396232199  -0.5884746641
	    H    -2.0559956500   1.8069390315   0.2731820145
	    H    -2.9017612417  -0.4636417662  -0.2825831251
	    H     2.8213212901   0.2872092004  -0.6011840403
	    H     2.7099375073  -0.2053763475   0.9602270353
			--------------------------
			 OPTKING Finished Execution 
			--------------------------

    Structure for next step:
    Molecular point group: c1
    Full point group: C1

    Geometry (in Angstrom), charge = 0, multiplicity = 1:

    N            2.316020808493     0.426852097854     0.260012152608
    C            0.919831250544     0.153403680080     0.082152250439
    C            0.432882507094    -1.123850701087    -0.222006811628
    C            0.008766743911     1.198148845223     0.262579257785
    C           -0.934975098529    -1.349088500011    -0.356918325563
    C           -1.361123627449     0.978547545821     0.124881320199
    C           -1.836107388170    -0.296093400224    -0.184248268830
    H            1.141102421907    -1.939791265470    -0.352030681384
    H            0.403069486771     2.179694093877     0.507366833113
    H           -1.298196120774    -2.345612797589    -0.595240223913
    H           -2.058127367704     1.800949470157     0.266416458008
    H           -2.903892962687    -0.469631336536    -0.289348683712
    H            2.819189591611     0.281219633051    -0.607949600161
    H            2.707805808334    -0.211365916814     0.953461481530

	Cleaning optimization helper files.

PsiException: Could not converge geometry optimization in 5 iterations.


    Psi4 stopped on: Monday, 24 May 2021 09:00PM
    Psi4 wall time for execution: 0:00:29.35

*** Psi4 exiting successfully. Buy a developer a beer!
