
    -----------------------------------------------------------------------
          Psi4: An Open-Source Ab Initio Electronic Structure Package
                               Psi4 1.3.2 release

                         Git: Rev {HEAD} ecbda83 


    R. M. Parrish, L. A. Burns, D. G. A. Smith, A. C. Simmonett,
    A. E. DePrince III, E. G. Hohenstein, U. Bozkaya, A. Yu. Sokolov,
    R. Di Remigio, R. M. Richard, J. F. Gonthier, A. M. James,
    H. R. McAlexander, A. Kumar, M. Saitow, X. Wang, B. P. Pritchard,
    P. Verma, H. F. Schaefer III, K. Patkowski, R. A. King, E. F. Valeev,
    F. A. Evangelista, J. M. Turney, T. D. Crawford, and C. D. Sherrill,
    J. Chem. Theory Comput. 13(7) pp 3185--3197 (2017).
    (doi: 10.1021/acs.jctc.7b00174)


                         Additional Contributions by
    P. Kraus, H. Kruse, M. H. Lechner, M. C. Schieber, R. A. Shaw,
    A. Alenaizan, R. Galvelis, Z. L. Glick, S. Lehtola, and J. P. Misiewicz

    -----------------------------------------------------------------------


    Psi4 started on: Monday, 24 May 2021 09:26PM

    Process ID: 80565
    Host:       daniele-Precision-5750
    PSIDATADIR: /home/daniele/anaconda3/envs/poltype/share/psi4
    Memory:     500.0 MiB
    Threads:    1
    
  ==> Input File <==

--------------------------------------------------------------------------
molecule { 
0 1
 N    2.319752    0.219206    0.381459
 C    0.921804    0.106026    0.126186
 C    0.365354   -1.168344   -0.014553
 C    0.075859    1.217824    0.081952
 C   -0.998334   -1.324128   -0.233730
 C   -1.293370    1.060286   -0.113107
 C   -1.835001   -0.210586   -0.279953
 H    1.023878   -2.028602    0.057602
 H    0.499194    2.213096    0.198490
 H   -1.414981   -2.320751   -0.348544
 H   -1.937201    1.934878   -0.140479
 H   -2.902016   -0.334394   -0.437481
 H    2.532135    0.998324    0.993308
 H    2.874307    0.289068   -0.464937
}
memory 700MB
set_num_threads(8)
psi4_io.set_default_path("/home/daniele/PSI4_sctatch/Psi4-aniline")
set freeze_core True
E, wfn = energy('wb97x-d/6-311+G*',return_wfn=True)
oeprop(wfn,"WIBERG_LOWDIN_INDICES")
clean()
--------------------------------------------------------------------------

  Memory set to 667.572 MiB by Python driver.
  Threads set to 8 by Python driver.

*** tstart() called on daniele-Precision-5750
*** at Mon May 24 21:26:34 2021

   => Loading Basis Set <=

    Name: 6-311+G*
    Role: ORBITAL
    Keyword: BASIS
    atoms 1    entry N          line   151 file /home/daniele/anaconda3/envs/poltype/share/psi4/basis/6-311pgs.gbs 
    atoms 2-7  entry C          line   130 file /home/daniele/anaconda3/envs/poltype/share/psi4/basis/6-311pgs.gbs 
    atoms 8-14 entry H          line    47 file /home/daniele/anaconda3/envs/poltype/share/psi4/basis/6-311pgs.gbs 


         ---------------------------------------------------------
                                   SCF
               by Justin Turney, Rob Parrish, Andy Simmonett
                          and Daniel G. A. Smith
                              RKS Reference
                        8 Threads,    667 MiB Core
         ---------------------------------------------------------

  ==> Geometry <==

    Molecular point group: c1
    Full point group: C1

    Geometry (in Angstrom), charge = 0, multiplicity = 1:

       Center              X                  Y                   Z               Mass       
    ------------   -----------------  -----------------  -----------------  -----------------
         N            2.319751964566     0.219206061434     0.381459149034    14.003074004430
         C            0.921803964566     0.106026061434     0.126186149034    12.000000000000
         C            0.365353964566    -1.168343938566    -0.014552850966    12.000000000000
         C            0.075858964566     1.217824061434     0.081952149034    12.000000000000
         C           -0.998334035434    -1.324127938566    -0.233729850966    12.000000000000
         C           -1.293370035434     1.060286061434    -0.113106850966    12.000000000000
         C           -1.835001035434    -0.210585938566    -0.279952850966    12.000000000000
         H            1.023877964566    -2.028601938566     0.057602149034     1.007825032230
         H            0.499193964566     2.213096061434     0.198490149034     1.007825032230
         H           -1.414981035434    -2.320750938566    -0.348543850966     1.007825032230
         H           -1.937201035434     1.934878061434    -0.140478850966     1.007825032230
         H           -2.902016035434    -0.334393938566    -0.437480850966     1.007825032230
         H            2.532134964566     0.998324061434     0.993308149034     1.007825032230
         H            2.874306964566     0.289068061434    -0.464936850966     1.007825032230

  Running in c1 symmetry.

  Rotational constants: A =      0.18806  B =      0.08569  C =      0.05934 [cm^-1]
  Rotational constants: A =   5637.92292  B =   2569.06093  C =   1778.84452 [MHz]
  Nuclear repulsion =  270.995040929643835

  Charge       = 0
  Multiplicity = 1
  Electrons    = 50
  Nalpha       = 25
  Nbeta        = 25

  ==> Algorithm <==

  SCF Algorithm Type is DF.
  DIIS enabled.
  MOM disabled.
  Fractional occupation disabled.
  Guess Type is SAD.
  Energy threshold   = 1.00e-06
  Density threshold  = 1.00e-06
  Integral threshold = 0.00e+00

  ==> Primary Basis <==

  Basis Set: 6-311+G*
    Blend: 6-311+G*
    Number of shells: 91
    Number of basis function: 175
    Number of Cartesian functions: 182
    Spherical Harmonics?: true
    Max angular momentum: 2

  ==> DFT Potential <==

   => Composite Functional: WB97X-D <= 

    wB97X-D Hyb-GGA Exchange-Correlation Functional

    J.-D. Chai and M. Head-Gordon, Phys. Chem. Chem. Phys. 10, 6615 (2008)

    Deriv               =              1
    GGA                 =           TRUE
    Meta                =          FALSE

    Exchange Hybrid     =           TRUE
    MP2 Hybrid          =          FALSE

   => Exchange-Correlation Functionals <=

    1.0000   wB97D range-separated functional

   => Exact (HF) Exchange <=

    0.7780            HF,LR [omega = 0.2000]
    0.2220               HF 

   => Molecular Quadrature <=

    Radial Scheme          =       TREUTLER
    Pruning Scheme         =           FLAT
    Nuclear Scheme         =       TREUTLER

    BS radius alpha        =              1
    Pruning alpha          =              1
    Radial Points          =             75
    Spherical Points       =            302
    Total Points           =         317100
    Total Blocks           =           2438
    Max Points             =            256
    Max Functions          =            172

   => WB97X-D: Empirical Dispersion <=

    Chai and Head-Gordon Dispersion Correction
    Chai, J.-D.; Head-Gordon, M. (2010), J. Chem. Phys., 132: 6615-6620

        s6 =       1.000000

   => Loading Basis Set <=

    Name: (6-311+G* AUX)
    Role: JKFIT
    Keyword: DF_BASIS_SCF
    atoms 1    entry N          line   262 file /home/daniele/anaconda3/envs/poltype/share/psi4/basis/heavy-aug-cc-pvtz-jkfit.gbs 
    atoms 2-7  entry C          line   200 file /home/daniele/anaconda3/envs/poltype/share/psi4/basis/heavy-aug-cc-pvtz-jkfit.gbs 
    atoms 8-14 entry H          line   116 file /home/daniele/anaconda3/envs/poltype/share/psi4/basis/heavy-aug-cc-pvtz-jkfit.gbs 

  ==> Pre-Iterations <==

   -------------------------------------------------------
    Irrep   Nso     Nmo     Nalpha   Nbeta   Ndocc  Nsocc
   -------------------------------------------------------
     A        175     175       0       0       0       0
   -------------------------------------------------------
    Total     175     175      25      25      25       0
   -------------------------------------------------------

  ==> Integral Setup <==

  ==> DiskDFJK: Density-Fitted J/K Matrices <==

    J tasked:                  Yes
    K tasked:                  Yes
    wK tasked:                 Yes
    Omega:               2.000E-01
    OpenMP threads:              8
    Integrals threads:           8
    Memory [MiB]:              131
    Algorithm:                Disk
    Integral Cache:           NONE
    Schwarz Cutoff:          1E-12
    Fitting Condition:       1E-10

   => Auxiliary Basis Set <=

  Basis Set: (6-311+G* AUX)
    Blend: HEAVY-AUG-CC-PVTZ-JKFIT
    Number of shells: 280
    Number of basis function: 938
    Number of Cartesian functions: 1162
    Spherical Harmonics?: true
    Max angular momentum: 4

  Cached 33.3% of DFT collocation blocks in 0.408 [GiB].

  Minimum eigenvalue in the overlap matrix is 3.3425577614E-06.
  Using Symmetric Orthogonalization.

  SCF Guess: Superposition of Atomic Densities via on-the-fly atomic UHF.

  ==> Iterations <==

                           Total Energy        Delta E     RMS |[F,P]|

   @DF-RKS iter SAD:  -286.96920681161293   -2.86969e+02   0.00000e+00 
   @DF-RKS iter   1:  -287.16836303247959   -1.99156e-01   4.99491e-03 DIIS
   @DF-RKS iter   2:  -287.33101561879209   -1.62653e-01   4.00289e-03 DIIS
   @DF-RKS iter   3:  -287.55832711228459   -2.27311e-01   2.77973e-04 DIIS
   @DF-RKS iter   4:  -287.55922065666891   -8.93544e-04   1.66694e-04 DIIS
   @DF-RKS iter   5:  -287.55959672807666   -3.76071e-04   3.69280e-05 DIIS
   @DF-RKS iter   6:  -287.55961871241215   -2.19843e-05   7.96414e-06 DIIS
   @DF-RKS iter   7:  -287.55961981448706   -1.10207e-06   4.36500e-06 DIIS
   @DF-RKS iter   8:  -287.55962019716009   -3.82673e-07   7.36402e-07 DIIS
  Energy and wave function converged.


  ==> Post-Iterations <==

    Orbital Energies [Eh]
    ---------------------

    Doubly Occupied:                                                      

       1A    -14.424845     2A    -10.322542     3A    -10.290069  
       4A    -10.288667     5A    -10.287095     6A    -10.285928  
       7A    -10.282866     8A     -1.011451     9A     -0.942883  
      10A     -0.848179    11A     -0.827703    12A     -0.705317  
      13A     -0.690743    14A     -0.615901    15A     -0.589575  
      16A     -0.562956    17A     -0.540102    18A     -0.517984  
      19A     -0.508336    20A     -0.456624    21A     -0.442830  
      22A     -0.430318    23A     -0.361566    24A     -0.331401  
      25A     -0.307225  

    Virtual:                                                              

      26A      0.054724    27A      0.059131    28A      0.062160  
      29A      0.072909    30A      0.081004    31A      0.095160  
      32A      0.101576    33A      0.121503    34A      0.125451  
      35A      0.139729    36A      0.145498    37A      0.149640  
      38A      0.162683    39A      0.183401    40A      0.184564  
      41A      0.192679    42A      0.194840    43A      0.197120  
      44A      0.203009    45A      0.211172    46A      0.226577  
      47A      0.229693    48A      0.236400    49A      0.241517  
      50A      0.252740    51A      0.260734    52A      0.263734  
      53A      0.266119    54A      0.266834    55A      0.276251  
      56A      0.287121    57A      0.295584    58A      0.299138  
      59A      0.308401    60A      0.319356    61A      0.337174  
      62A      0.348333    63A      0.361401    64A      0.373064  
      65A      0.400521    66A      0.418495    67A      0.431033  
      68A      0.439738    69A      0.542893    70A      0.543187  
      71A      0.597582    72A      0.605262    73A      0.613382  
      74A      0.621881    75A      0.632318    76A      0.643382  
      77A      0.650498    78A      0.651921    79A      0.657386  
      80A      0.683773    81A      0.697725    82A      0.703754  
      83A      0.704703    84A      0.768280    85A      0.771760  
      86A      0.785538    87A      0.808148    88A      0.824600  
      89A      0.830535    90A      0.876877    91A      0.898082  
      92A      0.906362    93A      0.913086    94A      0.919012  
      95A      0.935164    96A      0.943871    97A      0.947707  
      98A      0.957151    99A      0.981026   100A      1.002472  
     101A      1.031466   102A      1.094834   103A      1.099280  
     104A      1.122868   105A      1.166315   106A      1.287605  
     107A      1.304425   108A      1.315881   109A      1.328525  
     110A      1.346884   111A      1.407021   112A      1.490704  
     113A      1.574237   114A      1.605447   115A      1.624961  
     116A      1.659346   117A      1.814906   118A      1.820775  
     119A      1.854035   120A      1.867565   121A      1.896713  
     122A      1.903334   123A      1.979695   124A      2.014493  
     125A      2.021986   126A      2.030775   127A      2.081577  
     128A      2.128539   129A      2.133437   130A      2.164847  
     131A      2.190294   132A      2.312303   133A      2.350048  
     134A      2.355406   135A      2.391287   136A      2.418894  
     137A      2.482876   138A      2.484912   139A      2.507421  
     140A      2.608524   141A      2.726961   142A      2.740562  
     143A      2.767488   144A      2.848619   145A      2.869243  
     146A      2.881793   147A      2.945563   148A      2.975524  
     149A      2.998675   150A      3.016064   151A      3.098568  
     152A      3.176325   153A      3.213802   154A      3.387924  
     155A      3.399503   156A      3.410890   157A      3.418700  
     158A      3.429903   159A      3.578916   160A      3.713887  
     161A      3.723519   162A      3.827301   163A      4.073541  
     164A      4.114050   165A      4.124176   166A      4.215680  
     167A      4.794069   168A      4.895193   169A     23.448878  
     170A     23.976990   171A     23.996449   172A     24.166444  
     173A     24.185419   174A     24.287557   175A     35.614129  

    Final Occupation by Irrep:
              A 
    DOCC [    25 ]

  @DF-RKS Final Energy:  -287.55962019716009

   => Energetics <=

    Nuclear Repulsion Energy =            270.9950409296438352
    One-Electron Energy =                -923.7681467261330681
    Two-Electron Energy =                 394.1046530719977454
    DFT Exchange-Correlation Energy =     -28.8855153362274280
    Empirical Dispersion Energy =          -0.0056521364411680
    VV10 Nonlocal Energy =                  0.0000000000000000
    Total Energy =                       -287.5596201971600863

Computation Completed


Properties will be evaluated at   0.000000,   0.000000,   0.000000 [a0]

Properties computed using the SCF density matrix

  Nuclear Dipole Moment: [e a0]
     X:     0.6264      Y:     0.7040      Z:    -0.1343

  Electronic Dipole Moment: [e a0]
     X:    -0.5475      Y:    -0.2623      Z:    -0.0745

  Dipole Moment: [e a0]
     X:     0.0788      Y:     0.4417      Z:    -0.2088     Total:     0.4948

  Dipole Moment: [D]
     X:     0.2003      Y:     1.1226      Z:    -0.5306     Total:     1.2578


*** tstop() called on daniele-Precision-5750 at Mon May 24 21:26:43 2021
Module time:
	user time   =      62.96 seconds =       1.05 minutes
	system time =       2.13 seconds =       0.04 minutes
	total time  =          9 seconds =       0.15 minutes
Total time:
	user time   =      62.96 seconds =       1.05 minutes
	system time =       2.13 seconds =       0.04 minutes
	total time  =          9 seconds =       0.15 minutes


Properties will be evaluated at   0.000000,   0.000000,   0.000000 [a0]
OEProp: No title given, name of density matrix used for the following properties is 'SCF density'


  Wiberg Bond Indices using Orthogonal Lowdin Orbitals:

  Irrep: 1 Size: 14 x 14

                 1                   2                   3                   4                   5

    1     0.00000000000000     1.29554915676242     0.14960302117938     0.14145401394899     0.01917316432900
    2     1.29554915676242     0.00000000000000     1.43231146475928     1.44134574058539     0.13627280930069
    3     0.14960302117938     1.43231146475928     0.00000000000000     0.13492042022758     1.53322486888229
    4     0.14145401394899     1.44134574058539     0.13492042022758     0.00000000000000     0.14589048362051
    5     0.01917316432900     0.13627280930069     1.53322486888229     0.14589048362051     0.00000000000000
    6     0.01923580374792     0.13656053395455     0.14613244787785     1.52523054554596     0.13837612333492
    7     0.01301899250798     0.14052384759192     0.13883260327462     0.13889037791094     1.51812951742489
    8     0.01836305899711     0.05686746508228     0.82113600371423     0.01024057642197     0.05786056336101
    9     0.01789084461932     0.05734055341894     0.01046937795733     0.82325210702497     0.00279044540319
   10     0.00087954739440     0.01061930280111     0.06011293937586     0.00243559206805     0.83456950624947
   11     0.00124696150658     0.01054783067260     0.00245498644450     0.06031112626136     0.01161913406809
   12     0.00029599376571     0.00289683223118     0.01134127717924     0.01152507498965     0.05910219449749
   13     0.87298602367286     0.04324981464670     0.01090700185986     0.01508472915927     0.00128182196903
   14     0.86346614701816     0.04175292619705     0.01487184287523     0.01406692426344     0.00101781923300

                 6                   7                   8                   9                  10

    1     0.01923580374792     0.01301899250798     0.01836305899711     0.01789084461932     0.00087954739440
    2     0.13656053395455     0.14052384759192     0.05686746508228     0.05734055341894     0.01061930280111
    3     0.14613244787785     0.13883260327462     0.82113600371423     0.01046937795733     0.06011293937586
    4     1.52523054554596     0.13889037791094     0.01024057642197     0.82325210702497     0.00243559206805
    5     0.13837612333492     1.51812951742489     0.05786056336101     0.00279044540319     0.83456950624947
    6     0.00000000000000     1.52675304015177     0.00273914109865     0.05808127829854     0.01157846361902
    7     1.52675304015177     0.00000000000000     0.01140019701075     0.01139953709317     0.05913381356614
    8     0.00273914109865     0.01140019701075     0.00000000000000     0.00039050638053     0.00526724736485
    9     0.05808127829854     0.01139953709317     0.00039050638053     0.00000000000000     0.00028277436140
   10     0.01157846361902     0.05913381356614     0.00526724736485     0.00028277436140     0.00000000000000
   11     0.83426267233396     0.05922478257725     0.00026661354259     0.00531497564637     0.00027964099540
   12     0.05936628295284     0.83547344835841     0.00024003379273     0.00022165691986     0.00524930696869
   13     0.00140506852580     0.00157341361666     0.00031926486884     0.00135575741860     0.00033969573344
   14     0.00098059373403     0.00440872611262     0.00015329720864     0.00007640948042     0.00012643352972

                11                  12                  13                  14

    1     0.00124696150658     0.00029599376571     0.87298602367286     0.86346614701816
    2     0.01054783067260     0.00289683223118     0.04324981464670     0.04175292619705
    3     0.00245498644450     0.01134127717924     0.01090700185986     0.01487184287523
    4     0.06031112626136     0.01152507498965     0.01508472915927     0.01406692426344
    5     0.01161913406809     0.05910219449749     0.00128182196903     0.00101781923300
    6     0.83426267233396     0.05936628295284     0.00140506852580     0.00098059373403
    7     0.05922478257725     0.83547344835841     0.00157341361666     0.00440872611262
    8     0.00026661354259     0.00024003379273     0.00031926486884     0.00015329720864
    9     0.00531497564637     0.00022165691986     0.00135575741860     0.00007640948042
   10     0.00027964099540     0.00524930696869     0.00033969573344     0.00012643352972
   11     0.00000000000000     0.00525565665859     0.00008114867270     0.00014988680694
   12     0.00525565665859     0.00000000000000     0.00002024743102     0.00003376384566
   13     0.00008114867270     0.00002024743102     0.00000000000000     0.00910884208308
   14     0.00014988680694     0.00003376384566     0.00910884208308     0.00000000000000



  Atomic Valences: 

 #  #
 Irrep: 1
      1:  3.4131627
      2:  4.8058383
      3:  4.4663183
      4:  4.4646477
      5:  4.4593085
      6:  4.4607020
      7:  4.4587623
      8:  0.9852440
      9:  0.9888662
     10:  0.9908743
     11:  0.9910154
     12:  0.9910218
     13:  0.9577128
     14:  0.9502136


    Psi4 stopped on: Monday, 24 May 2021 09:26PM
    Psi4 wall time for execution: 0:00:08.68

*** Psi4 exiting successfully. Buy a developer a beer!
