
    -----------------------------------------------------------------------
          Psi4: An Open-Source Ab Initio Electronic Structure Package
                               Psi4 1.3.2 release

                         Git: Rev {HEAD} ecbda83 


    R. M. Parrish, L. A. Burns, D. G. A. Smith, A. C. Simmonett,
    A. E. DePrince III, E. G. Hohenstein, U. Bozkaya, A. Yu. Sokolov,
    R. Di Remigio, R. M. Richard, J. F. Gonthier, A. M. James,
    H. R. McAlexander, A. Kumar, M. Saitow, X. Wang, B. P. Pritchard,
    P. Verma, H. F. Schaefer III, K. Patkowski, R. A. King, E. F. Valeev,
    F. A. Evangelista, J. M. Turney, T. D. Crawford, and C. D. Sherrill,
    J. Chem. Theory Comput. 13(7) pp 3185--3197 (2017).
    (doi: 10.1021/acs.jctc.7b00174)


                         Additional Contributions by
    P. Kraus, H. Kruse, M. H. Lechner, M. C. Schieber, R. A. Shaw,
    A. Alenaizan, R. Galvelis, Z. L. Glick, S. Lehtola, and J. P. Misiewicz

    -----------------------------------------------------------------------


    Psi4 started on: Sunday, 16 May 2021 09:40PM

    Process ID: 51404
    Host:       daniele-Precision-5750
    PSIDATADIR: /home/daniele/anaconda3/envs/poltype/share/psi4
    Memory:     500.0 MiB
    Threads:    1
    
  ==> Input File <==

--------------------------------------------------------------------------
molecule { 
0 1
C 1.255271187045 -0.608726981943 0.010578445211
C 1.155255395307 0.782551554024 -0.023146116953
C 0.100657914034 -1.392194699739 0.033736405121
C -0.100452923735 1.392244056034 -0.033737214911
C -1.155284533429 -0.782374081176 0.023141552861
C -1.255471152216 0.608460605490 -0.010572127520
H 2.233618782946 -1.082240453874 0.018791809777
H 2.055151378534 1.392142530155 -0.041171262019
H 0.179144357963 -2.475780678271 0.060006553300
H -0.179677336676 2.475822955162 -0.059996368749
H -2.054738896579 -1.392501759363 0.041170588461
H -2.233211176897 1.083028289229 -0.018812558545
}
memory 700MB
set_num_threads(8)
psi4_io.set_default_path("/home/daniele/PSI4_sctatch/Psi4-benzene_3D")
set freeze_core True
set PROPERTIES_ORIGIN ["COM"]
set cubeprop_tasks ['esp']
E, wfn = energy('mp2/6-311G**',properties=['dipole'],return_wfn=True)
cubeprop(wfn)
fchk(wfn, "benzene_3D-dma.fchk")
clean()
--------------------------------------------------------------------------

  Memory set to 667.572 MiB by Python driver.
  Threads set to 8 by Python driver.
    SCF Algorithm Type (re)set to DF.

*** tstart() called on daniele-Precision-5750
*** at Sun May 16 21:40:36 2021

   => Loading Basis Set <=

    Name: 6-311G**
    Role: ORBITAL
    Keyword: BASIS
    atoms 1-6  entry C          line   113 file /home/daniele/anaconda3/envs/poltype/share/psi4/basis/6-311gss.gbs 
    atoms 7-12 entry H          line    32 file /home/daniele/anaconda3/envs/poltype/share/psi4/basis/6-311gss.gbs 


         ---------------------------------------------------------
                                   SCF
               by Justin Turney, Rob Parrish, Andy Simmonett
                          and Daniel G. A. Smith
                              RHF Reference
                        8 Threads,    667 MiB Core
         ---------------------------------------------------------

  ==> Geometry <==

    Molecular point group: c1
    Full point group: C1

    Geometry (in Angstrom), charge = 0, multiplicity = 1:

       Center              X                  Y                   Z               Mass       
    ------------   -----------------  -----------------  -----------------  -----------------
         C            1.255271187045    -0.608726981943     0.010578445211    12.000000000000
         C            1.155255395307     0.782551554024    -0.023146116953    12.000000000000
         C            0.100657914034    -1.392194699739     0.033736405121    12.000000000000
         C           -0.100452923735     1.392244056034    -0.033737214911    12.000000000000
         C           -1.155284533429    -0.782374081176     0.023141552861    12.000000000000
         C           -1.255471152216     0.608460605490    -0.010572127520    12.000000000000
         H            2.233618782946    -1.082240453874     0.018791809777     1.007825032230
         H            2.055151378534     1.392142530155    -0.041171262019     1.007825032230
         H            0.179144357963    -2.475780678271     0.060006553300     1.007825032230
         H           -0.179677336676     2.475822955162    -0.059996368749     1.007825032230
         H           -2.054738896579    -1.392501759363     0.041170588461     1.007825032230
         H           -2.233211176897     1.083028289229    -0.018812558545     1.007825032230

  Running in c1 symmetry.

  Rotational constants: A =      0.18999  B =      0.18988  C =      0.09497 [cm^-1]
  Rotational constants: A =   5695.77027  B =   5692.45661  C =   2847.05648 [MHz]
  Nuclear repulsion =  203.310753999103383

  Charge       = 0
  Multiplicity = 1
  Electrons    = 42
  Nalpha       = 21
  Nbeta        = 21

  ==> Algorithm <==

  SCF Algorithm Type is DF.
  DIIS enabled.
  MOM disabled.
  Fractional occupation disabled.
  Guess Type is SAD.
  Energy threshold   = 1.00e-08
  Density threshold  = 1.00e-08
  Integral threshold = 0.00e+00

  ==> Primary Basis <==

  Basis Set: 6-311G**
    Blend: 6-311G**
    Number of shells: 72
    Number of basis function: 144
    Number of Cartesian functions: 150
    Spherical Harmonics?: true
    Max angular momentum: 2

   => Loading Basis Set <=

    Name: (6-311G** AUX)
    Role: JKFIT
    Keyword: DF_BASIS_SCF
    atoms 1-6  entry C          line   125 file /home/daniele/anaconda3/envs/poltype/share/psi4/basis/cc-pvtz-jkfit.gbs 
    atoms 7-12 entry H          line    51 file /home/daniele/anaconda3/envs/poltype/share/psi4/basis/cc-pvtz-jkfit.gbs 

  ==> Pre-Iterations <==

   -------------------------------------------------------
    Irrep   Nso     Nmo     Nalpha   Nbeta   Ndocc  Nsocc
   -------------------------------------------------------
     A        144     144       0       0       0       0
   -------------------------------------------------------
    Total     144     144      21      21      21       0
   -------------------------------------------------------

  ==> Integral Setup <==

  DFHelper Memory: AOs need 0.108 GiB; user supplied 0.489 GiB. Using in-core AOs.

  ==> MemDFJK: Density-Fitted J/K Matrices <==

    J tasked:                   Yes
    K tasked:                   Yes
    wK tasked:                   No
    OpenMP threads:               8
    Memory [MiB]:               500
    Algorithm:                 Core
    Schwarz Cutoff:           1E-12
    Mask sparsity (%):       1.6493
    Fitting Condition:        1E-10

   => Auxiliary Basis Set <=

  Basis Set: (6-311G** AUX)
    Blend: CC-PVTZ-JKFIT
    Number of shells: 210
    Number of basis function: 654
    Number of Cartesian functions: 786
    Spherical Harmonics?: true
    Max angular momentum: 4

  Minimum eigenvalue in the overlap matrix is 2.1499586440E-04.
  Using Symmetric Orthogonalization.

  SCF Guess: Superposition of Atomic Densities via on-the-fly atomic UHF.

  ==> Iterations <==

                           Total Energy        Delta E     RMS |[F,P]|

   @DF-RHF iter SAD:  -230.15917067705783   -2.30159e+02   0.00000e+00 
   @DF-RHF iter   1:  -230.63249095209974   -4.73320e-01   2.98280e-03 DIIS
   @DF-RHF iter   2:  -230.73404934810904   -1.01558e-01   1.29185e-03 DIIS
   @DF-RHF iter   3:  -230.75160711117726   -1.75578e-02   2.61290e-04 DIIS
   @DF-RHF iter   4:  -230.75280688161797   -1.19977e-03   2.66917e-05 DIIS
   @DF-RHF iter   5:  -230.75282242934637   -1.55477e-05   4.83142e-06 DIIS
   @DF-RHF iter   6:  -230.75282294011458   -5.10768e-07   5.78430e-07 DIIS
   @DF-RHF iter   7:  -230.75282294711917   -7.00459e-09   1.63773e-07 DIIS
   @DF-RHF iter   8:  -230.75282294743155   -3.12383e-10   4.25932e-08 DIIS
   @DF-RHF iter   9:  -230.75282294746782   -3.62661e-11   1.24956e-08 DIIS
   @DF-RHF iter  10:  -230.75282294747228   -4.46221e-12   6.31852e-09 DIIS
  Energy and wave function converged.


  ==> Post-Iterations <==

    Orbital Energies [Eh]
    ---------------------

    Doubly Occupied:                                                      

       1A    -11.235625     2A    -11.235096     3A    -11.235019  
       4A    -11.233872     5A    -11.233789     6A    -11.233229  
       7A     -1.147628     8A     -1.012430     9A     -1.012275  
      10A     -0.821520    11A     -0.821206    12A     -0.706385  
      13A     -0.641072    14A     -0.616741    15A     -0.585729  
      16A     -0.585640    17A     -0.499422    18A     -0.492902  
      19A     -0.492269    20A     -0.334612    21A     -0.334397  

    Virtual:                                                              

      22A      0.133442    23A      0.133798    24A      0.153221  
      25A      0.183914    26A      0.183923    27A      0.218672  
      28A      0.218715    29A      0.242533    30A      0.344295  
      31A      0.424377    32A      0.424506    33A      0.456756  
      34A      0.457081    35A      0.467913    36A      0.500935  
      37A      0.574338    38A      0.585789    39A      0.585930  
      40A      0.616204    41A      0.626833    42A      0.629943  
      43A      0.630083    44A      0.640020    45A      0.640349  
      46A      0.727543    47A      0.729373    48A      0.729547  
      49A      0.795558    50A      0.795743    51A      0.820067  
      52A      0.829518    53A      0.831121    54A      0.831270  
      55A      0.886510    56A      0.934495    57A      0.934509  
      58A      0.935424    59A      0.935890    60A      1.068095  
      61A      1.068259    62A      1.069033    63A      1.104914  
      64A      1.169661    65A      1.206683    66A      1.206927  
      67A      1.252383    68A      1.325303    69A      1.325583  
      70A      1.393450    71A      1.393713    72A      1.448748  
      73A      1.513126    74A      1.659669    75A      1.715241  
      76A      1.715662    77A      1.755638    78A      1.810047  
      79A      1.830688    80A      1.830800    81A      1.850403  
      82A      1.850466    83A      1.911265    84A      1.911497  
      85A      1.985641    86A      2.021885    87A      2.022264  
      88A      2.054973    89A      2.055124    90A      2.126055  
      91A      2.198119    92A      2.205120    93A      2.205397  
      94A      2.214178    95A      2.230076    96A      2.231099  
      97A      2.313282    98A      2.313864    99A      2.375113  
     100A      2.375395   101A      2.543962   102A      2.630149  
     103A      2.652442   104A      2.652786   105A      2.663776  
     106A      2.708348   107A      2.708550   108A      2.900105  
     109A      2.925323   110A      2.925504   111A      2.942562  
     112A      2.947202   113A      2.947400   114A      2.947959  
     115A      2.949037   116A      2.963685   117A      3.012444  
     118A      3.112012   119A      3.112224   120A      3.244933  
     121A      3.244977   122A      3.258148   123A      3.272210  
     124A      3.272531   125A      3.448662   126A      3.504251  
     127A      3.754213   128A      3.755428   129A      3.876795  
     130A      3.887869   131A      3.888676   132A      4.061134  
     133A      4.365995   134A      4.366301   135A      4.489370  
     136A      4.527831   137A      4.527932   138A      5.268703  
     139A     24.671868   140A     25.102055   141A     25.104007  
     142A     25.250492   143A     25.252805   144A     25.356038  

    Final Occupation by Irrep:
              A 
    DOCC [    21 ]

  @DF-RHF Final Energy:  -230.75282294747228

   => Energetics <=

    Nuclear Repulsion Energy =            203.3107539991033832
    One-Electron Energy =                -713.1054395320513777
    Two-Electron Energy =                 279.0418625854757124
    Total Energy =                       -230.7528229474722821

Computation Completed


Properties will be evaluated at   0.000000,   0.000000,   0.000000 [a0]

Properties computed using the SCF density matrix

  Nuclear Dipole Moment: [e a0]
     X:     0.0003      Y:     0.0004      Z:    -0.0000

  Electronic Dipole Moment: [e a0]
     X:    -0.0003      Y:    -0.0004      Z:     0.0000

  Dipole Moment: [e a0]
     X:    -0.0000      Y:     0.0001      Z:    -0.0000     Total:     0.0001

  Dipole Moment: [D]
     X:    -0.0000      Y:     0.0002      Z:    -0.0000     Total:     0.0002


*** tstop() called on daniele-Precision-5750 at Sun May 16 21:40:37 2021
Module time:
	user time   =       7.48 seconds =       0.12 minutes
	system time =       0.17 seconds =       0.00 minutes
	total time  =          1 seconds =       0.02 minutes
Total time:
	user time   =       7.48 seconds =       0.12 minutes
	system time =       0.17 seconds =       0.00 minutes
	total time  =          1 seconds =       0.02 minutes

*** tstart() called on daniele-Precision-5750
*** at Sun May 16 21:40:37 2021


  //>>>>>>>>>>>>>>>>>>>>>>>>>>>>>>>>>>>//
  //               DFMP2               //
  //<<<<<<<<<<<<<<<<<<<<<<<<<<<<<<<<<<<//

   => Loading Basis Set <=

    Name: (6-311G** AUX)
    Role: RIFIT
    Keyword: DF_BASIS_MP2
    atoms 1-6  entry C          line   209 file /home/daniele/anaconda3/envs/poltype/share/psi4/basis/cc-pvtz-ri.gbs 
    atoms 7-12 entry H          line    19 file /home/daniele/anaconda3/envs/poltype/share/psi4/basis/cc-pvtz-ri.gbs 

	 --------------------------------------------------------
	                          DF-MP2                         
	      2nd-Order Density-Fitted Moller-Plesset Theory     
	              RMP2 Wavefunction,   8 Threads             
	                                                         
	        Rob Parrish, Justin Turney, Andy Simmonett,      
	           Ed Hohenstein, and C. David Sherrill          
	 --------------------------------------------------------

   => Auxiliary Basis Set <=

  Basis Set: (6-311G** AUX)
    Blend: CC-PVTZ-RI
    Number of shells: 198
    Number of basis function: 666
    Number of Cartesian functions: 816
    Spherical Harmonics?: true
    Max angular momentum: 4

	 --------------------------------------------------------
	                 NBF =   144, NAUX =   666
	 --------------------------------------------------------
	   CLASS    FOCC     OCC    AOCC    AVIR     VIR    FVIR
	   PAIRS       6      21      15     123     123       0
	 --------------------------------------------------------

	-----------------------------------------------------------
	 ==================> DF-MP2 Energies <==================== 
	-----------------------------------------------------------
	 Reference Energy          =    -230.7528229474722821 [Eh]
	 Singles Energy            =      -0.0000000000000000 [Eh]
	 Same-Spin Energy          =      -0.2144622001387844 [Eh]
	 Opposite-Spin Energy      =      -0.6103696112894728 [Eh]
	 Correlation Energy        =      -0.8248318114282571 [Eh]
	 Total Energy              =    -231.5776547589005361 [Eh]
	-----------------------------------------------------------
	 ================> DF-SCS-MP2 Energies <================== 
	-----------------------------------------------------------
	 SCS Same-Spin Scale       =       0.3333333333333333 [-]
	 SCS Opposite-Spin Scale   =       1.2000000000000000 [-]
	 SCS Same-Spin Energy      =      -0.0714874000462615 [Eh]
	 SCS Opposite-Spin Energy  =      -0.7324435335473672 [Eh]
	 SCS Correlation Energy    =      -0.8039309335936287 [Eh]
	 SCS Total Energy          =    -231.5567538810659016 [Eh]
	-----------------------------------------------------------


*** tstop() called on daniele-Precision-5750 at Sun May 16 21:40:38 2021
Module time:
	user time   =       4.26 seconds =       0.07 minutes
	system time =       0.09 seconds =       0.00 minutes
	total time  =          1 seconds =       0.02 minutes
Total time:
	user time   =      11.75 seconds =       0.20 minutes
	system time =       0.26 seconds =       0.00 minutes
	total time  =          2 seconds =       0.03 minutes
  ==> One Electron Grid Properties (v2.0) <==

  ==> CubicScalarGrid <==

    Filepath     = .
    Total Points =           317856
    XYZ Blocking =               10
    X Points     =               84
    Y Points     =               88
    Z Points     =               43
    X Spacing    =        2.000E-01
    Y Spacing    =        2.000E-01
    Z Spacing    =        2.000E-01
    X Minimum    =       -8.300E+00
    Y Minimum    =       -8.700E+00
    Z Minimum    =       -4.200E+00
    X Maximum    =        8.300E+00
    Y Maximum    =        8.700E+00
    Z Maximum    =        4.200E+00

  Basis Set: 6-311G**
    Blend: 6-311G**
    Number of shells: 72
    Number of basis function: 144
    Number of Cartesian functions: 150
    Spherical Harmonics?: true
    Max angular momentum: 2


    Psi4 stopped on: Sunday, 16 May 2021 09:40PM
    Psi4 wall time for execution: 0:00:06.24

*** Psi4 exiting successfully. Buy a developer a beer!
