Generated by Psi4
        SP                        DF-MP2                      6-311G**
Number of atoms                            I               12
Charge                                     I                0
Multiplicity                               I                1
Number of electrons                        I               42
Number of alpha electrons                  I               21
Number of beta electrons                   I               21
Number of basis functions                  I              144
Number of independent functions            I              144
Atomic numbers                             I   N=          12
           6           6           6           6           6           6
           1           1           1           1           1           1
Nuclear charges                            R   N=          12
  6.00000000e+00  6.00000000e+00  6.00000000e+00  6.00000000e+00  6.00000000e+00
  6.00000000e+00  1.00000000e+00  1.00000000e+00  1.00000000e+00  1.00000000e+00
  1.00000000e+00  1.00000000e+00
Current cartesian coordinates              R   N=          36
  2.37211876e+00 -1.15032728e+00  1.99903643e-02  2.18311630e+00  1.47880812e+00
 -4.37398219e-02  1.90215890e-01 -2.63086670e+00  6.37525661e-02 -1.89828514e-01
  2.63095997e+00 -6.37540964e-02 -2.18317137e+00 -1.47847274e+00  4.37311970e-02
 -2.37249664e+00  1.14982390e+00 -1.99784256e-02  4.22092777e+00 -2.04513806e+00
  3.55113739e-02  3.88367325e+00  2.63076811e+00 -7.78024095e-02  3.38533773e-01
 -4.67854743e+00  1.13395951e-01 -3.39540957e-01  4.67862732e+00 -1.13376705e-01
 -3.88289377e+00 -2.63144695e+00  7.78011366e-02 -4.22015750e+00  2.04662685e+00
 -3.55505834e-02
Integer atomic weights                     I   N=          12
          12          12          12          12          12          12
           1           1           1           1           1           1
Real atomic weights                        R   N=          12
  1.20000000e+01  1.20000000e+01  1.20000000e+01  1.20000000e+01  1.20000000e+01
  1.20000000e+01  1.00782503e+00  1.00782503e+00  1.00782503e+00  1.00782503e+00
  1.00782503e+00  1.00782503e+00
Number of primitive shells                 I              138
Number of contracted shells                I               72
Pure/Cartesian d shells                    I                0
Pure/Cartesian f shells                    I                0
Highest angular momentum                   I                2
Largest degree of contraction              I                6
Shell types                                I   N=          72
           0           0           1           0           1           0
           1          -2           0           0           1           0
           1           0           1          -2           0           0
           1           0           1           0           1          -2
           0           0           1           0           1           0
           1          -2           0           0           1           0
           1           0           1          -2           0           0
           1           0           1           0           1          -2
           0           0           0           1           0           0
           0           1           0           0           0           1
           0           0           0           1           0           0
           0           1           0           0           0           1
Number of primitives per shell             I   N=          72
           6           3           3           1           1           1
           1           1           6           3           3           1
           1           1           1           1           6           3
           3           1           1           1           1           1
           6           3           3           1           1           1
           1           1           6           3           3           1
           1           1           1           1           6           3
           3           1           1           1           1           1
           3           1           1           1           3           1
           1           1           3           1           1           1
           3           1           1           1           3           1
           1           1           3           1           1           1
Shell to atom map                          I   N=          72
           1           1           1           1           1           1
           1           1           2           2           2           2
           2           2           2           2           3           3
           3           3           3           3           3           3
           4           4           4           4           4           4
           4           4           5           5           5           5
           5           5           5           5           6           6
           6           6           6           6           6           6
           7           7           7           7           8           8
           8           8           9           9           9           9
          10          10          10          10          11          11
          11          11          12          12          12          12
Primitive exponents                        R   N=         138
  4.56324000e+03  6.82024000e+02  1.54973000e+02  4.44553000e+01  1.30290000e+01
  1.82773000e+00  2.09642000e+01  4.80331000e+00  1.45933000e+00  2.09642000e+01
  4.80331000e+00  1.45933000e+00  4.83456000e-01  4.83456000e-01  1.45585000e-01
  1.45585000e-01  6.26000000e-01  4.56324000e+03  6.82024000e+02  1.54973000e+02
  4.44553000e+01  1.30290000e+01  1.82773000e+00  2.09642000e+01  4.80331000e+00
  1.45933000e+00  2.09642000e+01  4.80331000e+00  1.45933000e+00  4.83456000e-01
  4.83456000e-01  1.45585000e-01  1.45585000e-01  6.26000000e-01  4.56324000e+03
  6.82024000e+02  1.54973000e+02  4.44553000e+01  1.30290000e+01  1.82773000e+00
  2.09642000e+01  4.80331000e+00  1.45933000e+00  2.09642000e+01  4.80331000e+00
  1.45933000e+00  4.83456000e-01  4.83456000e-01  1.45585000e-01  1.45585000e-01
  6.26000000e-01  4.56324000e+03  6.82024000e+02  1.54973000e+02  4.44553000e+01
  1.30290000e+01  1.82773000e+00  2.09642000e+01  4.80331000e+00  1.45933000e+00
  2.09642000e+01  4.80331000e+00  1.45933000e+00  4.83456000e-01  4.83456000e-01
  1.45585000e-01  1.45585000e-01  6.26000000e-01  4.56324000e+03  6.82024000e+02
  1.54973000e+02  4.44553000e+01  1.30290000e+01  1.82773000e+00  2.09642000e+01
  4.80331000e+00  1.45933000e+00  2.09642000e+01  4.80331000e+00  1.45933000e+00
  4.83456000e-01  4.83456000e-01  1.45585000e-01  1.45585000e-01  6.26000000e-01
  4.56324000e+03  6.82024000e+02  1.54973000e+02  4.44553000e+01  1.30290000e+01
  1.82773000e+00  2.09642000e+01  4.80331000e+00  1.45933000e+00  2.09642000e+01
  4.80331000e+00  1.45933000e+00  4.83456000e-01  4.83456000e-01  1.45585000e-01
  1.45585000e-01  6.26000000e-01  3.38650000e+01  5.09479000e+00  1.15879000e+00
  3.25840000e-01  1.02741000e-01  7.50000000e-01  3.38650000e+01  5.09479000e+00
  1.15879000e+00  3.25840000e-01  1.02741000e-01  7.50000000e-01  3.38650000e+01
  5.09479000e+00  1.15879000e+00  3.25840000e-01  1.02741000e-01  7.50000000e-01
  3.38650000e+01  5.09479000e+00  1.15879000e+00  3.25840000e-01  1.02741000e-01
  7.50000000e-01  3.38650000e+01  5.09479000e+00  1.15879000e+00  3.25840000e-01
  1.02741000e-01  7.50000000e-01  3.38650000e+01  5.09479000e+00  1.15879000e+00
  3.25840000e-01  1.02741000e-01  7.50000000e-01
Contraction coefficients                   R   N=         138
  1.96665025e-03  1.52306019e-02  7.61269097e-02  2.60801033e-01  6.16462078e-01
  2.21006028e-01  1.14660081e-01  9.19999648e-01 -3.03068213e-03  4.02486927e-02
  2.37593957e-01  8.15853851e-01  1.00000000e+00  1.00000000e+00  1.00000000e+00
  1.00000000e+00  1.00000000e+00  1.96665025e-03  1.52306019e-02  7.61269097e-02
  2.60801033e-01  6.16462078e-01  2.21006028e-01  1.14660081e-01  9.19999648e-01
 -3.03068213e-03  4.02486927e-02  2.37593957e-01  8.15853851e-01  1.00000000e+00
  1.00000000e+00  1.00000000e+00  1.00000000e+00  1.00000000e+00  1.96665025e-03
  1.52306019e-02  7.61269097e-02  2.60801033e-01  6.16462078e-01  2.21006028e-01
  1.14660081e-01  9.19999648e-01 -3.03068213e-03  4.02486927e-02  2.37593957e-01
  8.15853851e-01  1.00000000e+00  1.00000000e+00  1.00000000e+00  1.00000000e+00
  1.00000000e+00  1.96665025e-03  1.52306019e-02  7.61269097e-02  2.60801033e-01
  6.16462078e-01  2.21006028e-01  1.14660081e-01  9.19999648e-01 -3.03068213e-03
  4.02486927e-02  2.37593957e-01  8.15853851e-01  1.00000000e+00  1.00000000e+00
  1.00000000e+00  1.00000000e+00  1.00000000e+00  1.96665025e-03  1.52306019e-02
  7.61269097e-02  2.60801033e-01  6.16462078e-01  2.21006028e-01  1.14660081e-01
  9.19999648e-01 -3.03068213e-03  4.02486927e-02  2.37593957e-01  8.15853851e-01
  1.00000000e+00  1.00000000e+00  1.00000000e+00  1.00000000e+00  1.00000000e+00
  1.96665025e-03  1.52306019e-02  7.61269097e-02  2.60801033e-01  6.16462078e-01
  2.21006028e-01  1.14660081e-01  9.19999648e-01 -3.03068213e-03  4.02486927e-02
  2.37593957e-01  8.15853851e-01  1.00000000e+00  1.00000000e+00  1.00000000e+00
  1.00000000e+00  1.00000000e+00  2.54938145e-02  1.90373109e-01  8.52161486e-01
  1.00000000e+00  1.00000000e+00  1.00000000e+00  2.54938145e-02  1.90373109e-01
  8.52161486e-01  1.00000000e+00  1.00000000e+00  1.00000000e+00  2.54938145e-02
  1.90373109e-01  8.52161486e-01  1.00000000e+00  1.00000000e+00  1.00000000e+00
  2.54938145e-02  1.90373109e-01  8.52161486e-01  1.00000000e+00  1.00000000e+00
  1.00000000e+00  2.54938145e-02  1.90373109e-01  8.52161486e-01  1.00000000e+00
  1.00000000e+00  1.00000000e+00  2.54938145e-02  1.90373109e-01  8.52161486e-01
  1.00000000e+00  1.00000000e+00  1.00000000e+00
Coordinates of each shell                  R   N=         216
  2.37211876e+00 -1.15032728e+00  1.99903643e-02  2.37211876e+00 -1.15032728e+00
  1.99903643e-02  2.37211876e+00 -1.15032728e+00  1.99903643e-02  2.37211876e+00
 -1.15032728e+00  1.99903643e-02  2.37211876e+00 -1.15032728e+00  1.99903643e-02
  2.37211876e+00 -1.15032728e+00  1.99903643e-02  2.37211876e+00 -1.15032728e+00
  1.99903643e-02  2.37211876e+00 -1.15032728e+00  1.99903643e-02  2.18311630e+00
  1.47880812e+00 -4.37398219e-02  2.18311630e+00  1.47880812e+00 -4.37398219e-02
  2.18311630e+00  1.47880812e+00 -4.37398219e-02  2.18311630e+00  1.47880812e+00
 -4.37398219e-02  2.18311630e+00  1.47880812e+00 -4.37398219e-02  2.18311630e+00
  1.47880812e+00 -4.37398219e-02  2.18311630e+00  1.47880812e+00 -4.37398219e-02
  2.18311630e+00  1.47880812e+00 -4.37398219e-02  1.90215890e-01 -2.63086670e+00
  6.37525661e-02  1.90215890e-01 -2.63086670e+00  6.37525661e-02  1.90215890e-01
 -2.63086670e+00  6.37525661e-02  1.90215890e-01 -2.63086670e+00  6.37525661e-02
  1.90215890e-01 -2.63086670e+00  6.37525661e-02  1.90215890e-01 -2.63086670e+00
  6.37525661e-02  1.90215890e-01 -2.63086670e+00  6.37525661e-02  1.90215890e-01
 -2.63086670e+00  6.37525661e-02 -1.89828514e-01  2.63095997e+00 -6.37540964e-02
 -1.89828514e-01  2.63095997e+00 -6.37540964e-02 -1.89828514e-01  2.63095997e+00
 -6.37540964e-02 -1.89828514e-01  2.63095997e+00 -6.37540964e-02 -1.89828514e-01
  2.63095997e+00 -6.37540964e-02 -1.89828514e-01  2.63095997e+00 -6.37540964e-02
 -1.89828514e-01  2.63095997e+00 -6.37540964e-02 -1.89828514e-01  2.63095997e+00
 -6.37540964e-02 -2.18317137e+00 -1.47847274e+00  4.37311970e-02 -2.18317137e+00
 -1.47847274e+00  4.37311970e-02 -2.18317137e+00 -1.47847274e+00  4.37311970e-02
 -2.18317137e+00 -1.47847274e+00  4.37311970e-02 -2.18317137e+00 -1.47847274e+00
  4.37311970e-02 -2.18317137e+00 -1.47847274e+00  4.37311970e-02 -2.18317137e+00
 -1.47847274e+00  4.37311970e-02 -2.18317137e+00 -1.47847274e+00  4.37311970e-02
 -2.37249664e+00  1.14982390e+00 -1.99784256e-02 -2.37249664e+00  1.14982390e+00
 -1.99784256e-02 -2.37249664e+00  1.14982390e+00 -1.99784256e-02 -2.37249664e+00
  1.14982390e+00 -1.99784256e-02 -2.37249664e+00  1.14982390e+00 -1.99784256e-02
 -2.37249664e+00  1.14982390e+00 -1.99784256e-02 -2.37249664e+00  1.14982390e+00
 -1.99784256e-02 -2.37249664e+00  1.14982390e+00 -1.99784256e-02  4.22092777e+00
 -2.04513806e+00  3.55113739e-02  4.22092777e+00 -2.04513806e+00  3.55113739e-02
  4.22092777e+00 -2.04513806e+00  3.55113739e-02  4.22092777e+00 -2.04513806e+00
  3.55113739e-02  3.88367325e+00  2.63076811e+00 -7.78024095e-02  3.88367325e+00
  2.63076811e+00 -7.78024095e-02  3.88367325e+00  2.63076811e+00 -7.78024095e-02
  3.88367325e+00  2.63076811e+00 -7.78024095e-02  3.38533773e-01 -4.67854743e+00
  1.13395951e-01  3.38533773e-01 -4.67854743e+00  1.13395951e-01  3.38533773e-01
 -4.67854743e+00  1.13395951e-01  3.38533773e-01 -4.67854743e+00  1.13395951e-01
 -3.39540957e-01  4.67862732e+00 -1.13376705e-01 -3.39540957e-01  4.67862732e+00
 -1.13376705e-01 -3.39540957e-01  4.67862732e+00 -1.13376705e-01 -3.39540957e-01
  4.67862732e+00 -1.13376705e-01 -3.88289377e+00 -2.63144695e+00  7.78011366e-02
 -3.88289377e+00 -2.63144695e+00  7.78011366e-02 -3.88289377e+00 -2.63144695e+00
  7.78011366e-02 -3.88289377e+00 -2.63144695e+00  7.78011366e-02 -4.22015750e+00
  2.04662685e+00 -3.55505834e-02 -4.22015750e+00  2.04662685e+00 -3.55505834e-02
 -4.22015750e+00  2.04662685e+00 -3.55505834e-02 -4.22015750e+00  2.04662685e+00
 -3.55505834e-02
Total Energy                               R     -2.315776547589005e+02
Alpha Orbital Energies                     R   N=         144
 -1.12356254e+01 -1.12350957e+01 -1.12350187e+01 -1.12338721e+01 -1.12337887e+01
 -1.12332290e+01 -1.14762819e+00 -1.01243034e+00 -1.01227514e+00 -8.21520092e-01
 -8.21206137e-01 -7.06384995e-01 -6.41072334e-01 -6.16741035e-01 -5.85728655e-01
 -5.85640297e-01 -4.99422006e-01 -4.92901807e-01 -4.92268852e-01 -3.34611522e-01
 -3.34396738e-01  1.33441564e-01  1.33797872e-01  1.53221112e-01  1.83913701e-01
  1.83922613e-01  2.18671522e-01  2.18715167e-01  2.42532778e-01  3.44295391e-01
  4.24377202e-01  4.24505594e-01  4.56756413e-01  4.57081416e-01  4.67912630e-01
  5.00935454e-01  5.74338349e-01  5.85788948e-01  5.85930301e-01  6.16203504e-01
  6.26833145e-01  6.29943323e-01  6.30082678e-01  6.40019813e-01  6.40349104e-01
  7.27542718e-01  7.29373405e-01  7.29547117e-01  7.95557544e-01  7.95743459e-01
  8.20067498e-01  8.29517658e-01  8.31120797e-01  8.31269694e-01  8.86509982e-01
  9.34494906e-01  9.34509241e-01  9.35423643e-01  9.35889784e-01  1.06809503e+00
  1.06825938e+00  1.06903313e+00  1.10491405e+00  1.16966140e+00  1.20668295e+00
  1.20692700e+00  1.25238257e+00  1.32530258e+00  1.32558324e+00  1.39344995e+00
  1.39371255e+00  1.44874759e+00  1.51312615e+00  1.65966875e+00  1.71524085e+00
  1.71566172e+00  1.75563759e+00  1.81004665e+00  1.83068808e+00  1.83079952e+00
  1.85040253e+00  1.85046564e+00  1.91126547e+00  1.91149718e+00  1.98564052e+00
  2.02188477e+00  2.02226382e+00  2.05497280e+00  2.05512378e+00  2.12605465e+00
  2.19811861e+00  2.20512032e+00  2.20539658e+00  2.21417827e+00  2.23007625e+00
  2.23109857e+00  2.31328165e+00  2.31386425e+00  2.37511323e+00  2.37539534e+00
  2.54396242e+00  2.63014939e+00  2.65244183e+00  2.65278592e+00  2.66377570e+00
  2.70834772e+00  2.70855043e+00  2.90010485e+00  2.92532273e+00  2.92550362e+00
  2.94256210e+00  2.94720227e+00  2.94739981e+00  2.94795922e+00  2.94903704e+00
  2.96368462e+00  3.01244369e+00  3.11201186e+00  3.11222403e+00  3.24493324e+00
  3.24497681e+00  3.25814755e+00  3.27221005e+00  3.27253139e+00  3.44866218e+00
  3.50425064e+00  3.75421320e+00  3.75542755e+00  3.87679519e+00  3.88786869e+00
  3.88867609e+00  4.06113369e+00  4.36599547e+00  4.36630066e+00  4.48937003e+00
  4.52783078e+00  4.52793173e+00  5.26870309e+00  2.46718678e+01  2.51020549e+01
  2.51040073e+01  2.52504924e+01  2.52528047e+01  2.53560382e+01
Alpha MO coefficients                      R   N=       20736
  2.21023396e-01  1.83010328e-01 -3.27810134e-05  1.61536999e-05 -2.85220287e-07
  1.87423357e-03 -1.25989380e-04  6.00527033e-05 -1.03672002e-06 -1.23681585e-04
  7.47861931e-07 -4.40454927e-06  1.11593244e-07 -1.11632807e-04 -1.66098575e-06
 -5.78820646e-06 -3.64820228e-05  4.56935102e-05  2.33146483e-01  1.93051253e-01
 -3.14368667e-05 -1.23014791e-05  4.12383575e-07  1.96252172e-03 -1.22248366e-04
 -7.83389844e-05  2.34033291e-06 -1.24514758e-04  1.01101412e-05  3.91951187e-06
 -1.37002813e-07 -1.21029222e-04  7.44711284e-07 -5.44755857e-06 -2.07779231e-05
 -5.70232200e-05  2.34070746e-01  1.93818561e-01 -3.46677694e-06  2.87230021e-05
 -6.88258943e-07  1.96083340e-03 -1.12900340e-05  1.43713940e-04 -3.47874023e-06
 -1.37712120e-04  3.62278490e-07 -1.65162613e-05  3.96537731e-07 -1.23962206e-04
 -1.14371640e-06 -3.86956553e-06  5.79860492e-05  8.30618204e-06  2.43437609e-01
  2.01575601e-01  5.74381894e-06 -2.78815315e-05  6.59708894e-07  2.03407513e-03
  1.32447006e-05 -1.48346766e-04  3.58547544e-06 -1.34618640e-04 -5.13028278e-06
  2.15977761e-05 -5.04729009e-07 -1.29911968e-04 -1.15681949e-06 -4.05425265e-06
  6.05238474e-05  7.01977409e-06  2.25495053e-01  1.86715038e-01  2.96788018e-05
  1.50189841e-05 -4.73192311e-07  1.90177062e-03  1.17751978e-04  7.76891031e-05
 -2.30911242e-06 -1.32524547e-04 -5.49910138e-06 -7.91435906e-06  2.19530875e-07
 -1.16414668e-04  7.10497152e-07 -5.28490963e-06 -2.17663003e-05 -5.43202768e-05
  2.21457064e-01  1.83369325e-01  3.56500361e-05 -1.08262815e-05  1.45002133e-07
  1.87817939e-03  1.27299723e-04 -5.78632668e-05  9.79022865e-07 -1.20376705e-04
 -3.90827000e-06 -5.38316447e-06  1.38489703e-07 -1.11794932e-04 -1.70386784e-06
 -5.75950073e-06 -3.48345269e-05  4.71823096e-05  1.73861552e-04 -5.61903755e-05
  1.04332886e-04 -5.27871925e-06  2.95445782e-06 -5.45519834e-08  1.82891022e-04
 -6.10912259e-05  1.06297629e-04 -5.41283848e-06 -2.87101455e-06  8.95342992e-08
  1.83152511e-04 -6.12192738e-05  1.04589050e-04 -3.83747191e-07  5.64293537e-06
 -1.36518378e-07  1.90444906e-04 -6.59329662e-05  1.06946884e-04  1.13618282e-06
 -5.62752203e-06  1.33252531e-07  1.76938365e-04 -5.74255263e-05  1.03764994e-04
  4.85687573e-06  3.59381861e-06 -1.05061849e-07  1.74225860e-04 -5.64236715e-05
  1.04835923e-04  5.72592768e-06 -1.92812823e-06  2.79028154e-08  9.02981726e-02
  7.47771303e-02 -8.22990942e-05 -1.68028812e-04  4.39659599e-06  7.22623721e-04
 -8.24117806e-05 -6.28271309e-05  1.82293620e-06  9.09977915e-05  1.64124335e-04
  2.95318848e-04 -7.79778898e-06 -5.50830503e-05 -2.40384704e-06 -1.26846548e-06
  5.45063879e-05  7.70261031e-05 -2.16407390e-01 -1.79212575e-01  7.65167044e-05
 -1.19428504e-04  2.65744267e-06 -1.71905769e-03  1.30077106e-04  3.65192501e-06
 -5.37765161e-07 -1.88892558e-04 -2.02585883e-04  1.68119441e-04 -3.41913688e-06
  1.34534566e-04 -1.04699356e-06  4.43048372e-06 -4.07350936e-05  8.13229571e-05
  3.22966568e-01  2.67459552e-01 -4.50496002e-05 -1.50259889e-05  5.27761930e-07
  2.55555336e-03 -3.39585707e-05  1.60084130e-04 -3.80254812e-06  1.80056400e-04
  9.51131936e-05 -1.46782561e-04  3.26884255e-06 -2.03530592e-04 -1.26207601e-06
 -6.53082705e-06  8.46136435e-05 -1.00168879e-05 -3.18930094e-01 -2.64118084e-01
 -4.56218116e-05 -1.74353124e-05  5.88411806e-07 -2.51680497e-03 -3.53511932e-05
  1.56613429e-04 -3.71291259e-06 -1.80761781e-04  9.55832429e-05 -1.49976180e-04
  3.34467592e-06  2.02315114e-04  1.21678615e-06  6.50183699e-06 -8.34131645e-05
  1.14166326e-05  2.23125259e-01  1.84775079e-01  7.63714846e-05 -1.17363225e-04
  2.60682622e-06  1.77646589e-03  1.33105912e-04  7.76837024e-06 -6.48778958e-07
  1.85820389e-04 -2.01835996e-04  1.68306183e-04 -3.42747871e-06 -1.38151286e-04
  1.06259655e-06 -4.62130604e-06  3.90160005e-05 -8.25437731e-05 -8.02683358e-02
 -6.64711586e-02 -8.28516314e-05 -1.68891892e-04  4.41955432e-06 -6.42571404e-04
 -7.84353041e-05 -6.50442880e-05  1.86254639e-06 -9.90897847e-05  1.59593858e-04
  2.97347580e-04 -7.83069470e-06  4.90046646e-05  2.33057963e-06  9.71917511e-07
 -5.58602309e-05 -7.53533175e-05  7.10100318e-05 -4.46279217e-05  3.08411842e-05
 -1.97908355e-05 -4.06332762e-05  1.06326989e-06 -1.69853316e-04  1.11877550e-04
 -6.72976282e-05  1.86030660e-05 -2.83429291e-05  6.29757348e-07  2.52829501e-04
 -1.68948974e-04  9.21934118e-05 -1.10500941e-05 -2.66531170e-06  1.03168861e-07
 -2.49516510e-04  1.68392217e-04 -8.90270038e-05 -1.13415284e-05 -2.86572505e-06
  1.09301092e-07  1.75164362e-04 -1.13206623e-04  7.05839625e-05  1.86653267e-05
 -2.79237742e-05  6.19570426e-07 -6.33104883e-05  4.07021399e-05 -2.76115898e-05
 -1.99233246e-05 -4.05575423e-05  1.06163312e-06  3.06406938e-01  2.53743981e-01
  2.94469019e-05  4.79066737e-05 -1.27856491e-06  2.43475511e-03 -1.27670599e-04
  9.18442917e-05 -1.80817811e-06  2.40967730e-04  5.92373094e-05 -1.36436922e-04
  3.13356608e-06 -1.90749271e-04 -2.09755718e-06 -1.00397428e-05 -7.24914643e-05
  4.92849243e-05  2.40097475e-01  1.98834065e-01  8.49475733e-05 -1.06335801e-04
  2.31351580e-06  1.89531786e-03 -6.11636430e-05 -1.23512373e-04  3.23444693e-06
  1.27912939e-04 -3.76522710e-05  2.68291789e-04 -6.43685864e-06 -1.52400602e-04
  1.59911092e-07 -8.41299776e-06 -8.39710905e-05 -3.19188895e-05  8.08758760e-02
  6.69772636e-02  1.89062916e-04  8.52309323e-06 -8.59396032e-07  6.35039783e-04
  9.12645611e-05  4.57989474e-05 -1.43585074e-06  2.41035046e-05 -3.35135009e-04
 -7.55321854e-05  3.00546457e-06 -5.19102565e-05 -2.62871502e-06 -2.39394769e-06
  5.44076761e-06  9.38937840e-05 -8.41288278e-02 -6.96713125e-02  1.89935283e-04
  7.65374597e-06 -8.41207614e-07 -6.59807267e-04  9.18442619e-05  4.84308631e-05
 -1.50267515e-06 -2.23644777e-05 -3.35661358e-04 -7.66000159e-05  3.03328069e-06
  5.44727394e-05  2.65416190e-06  2.48891365e-06 -6.04106569e-06 -9.42235423e-05
 -2.39242249e-01 -1.98125321e-01  8.33547796e-05 -1.06471923e-04  2.32305102e-06
 -1.89135953e-03 -6.05061493e-05 -1.23069249e-04  3.22185522e-06 -1.28796983e-04
 -3.87125265e-05  2.66991366e-04 -6.40162753e-06  1.51116303e-04 -1.70288089e-07
  8.36338910e-06  8.41906985e-05  3.19588724e-05 -3.07975527e-01 -2.55042895e-01
  2.84569356e-05  4.62809318e-05 -1.23538267e-06 -2.44760455e-03 -1.27748009e-04
  9.26649927e-05 -1.82828372e-06 -2.39593882e-04  5.94856753e-05 -1.37640011e-04
  3.16200328e-06  1.91581240e-04  2.08901409e-06  1.00919125e-05  7.32684283e-05
 -4.88475198e-05  2.40432368e-04 -1.58769816e-04  9.41505724e-05  6.77194554e-06
  1.12756105e-05 -2.99307324e-07  1.87746512e-04 -1.25927895e-04  6.68516801e-05
  1.95830357e-05 -2.63409328e-05  5.77348915e-07  6.31712009e-05 -4.38986468e-05
  2.04170002e-05  4.57360278e-05  2.44281841e-06 -2.17491420e-07 -6.56434527e-05
  4.42656304e-05 -2.11521416e-05  4.57381986e-05  2.72993412e-06 -2.24556398e-07
 -1.87207689e-04  1.25948946e-04 -6.73760365e-05  1.97358455e-05 -2.63012648e-05
  5.75846268e-07 -2.41659826e-04  1.59685685e-04 -9.47798029e-05  7.03445241e-06
  1.14443957e-05 -3.04297527e-07  8.71172749e-02  7.21608697e-02  1.14607923e-04
  1.54855759e-04 -4.18772540e-06  6.19509977e-04  7.53011071e-06  9.73894474e-05
 -2.41086233e-06 -6.90956017e-05  6.90783212e-05 -5.11335108e-05  1.01391077e-06
 -7.48608385e-05  2.68729361e-07 -4.37117483e-06 -5.18851912e-05 -2.19208163e-05
  2.36681867e-01  1.96050793e-01  1.62310663e-04 -5.65226804e-05  8.26584813e-07
  1.67038904e-03 -3.98979662e-05 -1.09956896e-04  2.83025316e-06 -2.34557486e-04
  2.13112093e-04  1.55607930e-04 -4.54491890e-06 -2.06129598e-04 -5.84461093e-07
 -9.93367544e-06 -5.11944695e-05 -1.92621911e-05 -3.08120833e-01 -2.55228749e-01
 -5.93688848e-05  1.34959333e-04 -3.10349552e-06 -2.15981650e-03 -1.81135207e-05
 -1.21448161e-04  3.03483367e-06  2.74819021e-04 -1.88306545e-05  3.37973106e-04
 -8.21065136e-06  2.71834361e-04  2.33505669e-06  1.04946039e-05 -4.56892926e-05
 -2.25897862e-05 -3.10500738e-01 -2.57201198e-01  5.93271616e-05 -1.38721849e-04
  3.19518047e-06 -2.17142337e-03  1.53150041e-05  1.21535752e-04 -3.02762608e-06
  3.09502940e-04  2.34686547e-05 -3.57370035e-04  8.66872982e-06  2.75027953e-04
  2.29644899e-06  1.06555485e-05 -4.42691847e-05 -2.04229639e-05  2.30909278e-01
  1.91268801e-01 -1.60043158e-04  6.01659707e-05 -9.24422739e-07  1.63116193e-03
  3.62381598e-05  1.10399200e-04 -2.82881222e-06 -2.01286728e-04 -1.92952570e-04
 -1.47756580e-04  4.28262622e-06 -2.00622003e-04 -5.47880671e-07 -9.74955027e-06
 -5.32053285e-05 -1.90907825e-05  9.57163546e-02  7.92837882e-02 -1.17184039e-04
 -1.51983831e-04  4.12610338e-06  6.80642489e-04 -5.66838074e-06 -9.87166107e-05
  2.43671560e-06 -9.83779316e-05 -8.99867689e-05  5.95375120e-05 -1.14747694e-06
 -8.17639605e-05  2.33733753e-07 -4.65820115e-06 -5.17079599e-05 -2.22169709e-05
  6.54685153e-05 -3.59275291e-05  6.87705989e-06  7.94430689e-06  1.54828639e-05
 -4.06629339e-07  1.77434437e-04 -1.02099882e-04  1.09943398e-05  8.51151123e-06
 -9.44596127e-06  2.02120943e-07 -2.30744150e-04  1.34367285e-04 -1.26552366e-05
 -4.90247230e-06  2.38762160e-06 -4.19838864e-08 -2.32349663e-04  1.36467043e-04
 -9.24626953e-06  4.44196429e-06 -2.60213660e-06  4.86657268e-08  1.73121743e-04
 -9.85798792e-05  1.34972593e-05 -8.86224926e-06  1.00225174e-05 -2.15171034e-07
  7.19068660e-05 -4.20712057e-05  5.55172435e-06 -8.39694270e-06 -1.50741728e-05
  3.98092933e-07  3.19191571e-01  2.64396757e-01  1.03250871e-04 -1.06206235e-04
  2.24067319e-06  2.25126931e-03 -1.25010486e-04  3.43965577e-05 -4.11943024e-07
 -2.99517601e-04  3.15286024e-04 -1.50047979e-04  2.58643034e-06 -2.79138915e-04
 -2.79623027e-06 -1.25146463e-05 -2.04415182e-05  4.89255406e-05 -2.26198968e-01
 -1.87370719e-01 -9.49790760e-06 -1.71844846e-04  4.23775820e-06 -1.58152271e-03
  1.09257049e-04 -4.02720617e-06 -2.78741178e-07  2.17213548e-04 -2.18554050e-04
 -1.36298188e-04  4.09060744e-06  2.00968986e-04  1.27023275e-07  7.80426233e-06
 -2.29253828e-05  4.70920183e-05 -7.92806977e-02 -6.56722951e-02  1.86036748e-04
  5.14522211e-05 -1.90215524e-06 -5.51742988e-04  9.51749873e-05 -2.41013750e-05
  2.61773833e-07  7.83383698e-05 -2.40238758e-05  9.23394407e-05 -2.17835347e-06
  7.13432466e-05 -8.12535193e-07  2.35454307e-06 -1.99555853e-05  5.33593222e-05
 -7.53041633e-02 -6.23788517e-02 -1.84911766e-04 -5.00875587e-05  1.86470424e-06
 -5.21242042e-04 -9.54656981e-05  2.11064444e-05 -1.87247938e-07  7.00918570e-05
  2.24702976e-05 -8.60217298e-05  2.02861504e-06  6.80366390e-05 -8.38776110e-07
  2.23128532e-06 -1.92073477e-05  5.35248128e-05 -2.27228105e-01 -1.88222463e-01
  8.01168622e-06  1.72426087e-04 -4.24630207e-06 -1.59244493e-03 -1.09833534e-04
  1.98244048e-06  3.30963626e-07  2.08475405e-04  2.15061556e-04  1.33621832e-04
 -4.01253019e-06  2.01393166e-04  1.05322687e-07  7.84547656e-06 -2.18505482e-05
  4.78730171e-05  3.17489360e-01  2.62986613e-01 -1.01201432e-04  1.08112628e-04
 -2.29446731e-06  2.23974502e-03  1.23627062e-04 -3.59482416e-05  4.55430391e-07
 -2.91504019e-04 -3.10803429e-04  1.46544531e-04 -2.51636758e-06 -2.77624006e-04
 -2.76956281e-06 -1.24690567e-05 -2.13035556e-05  4.83470274e-05  2.39383865e-04
 -1.37312527e-04  1.54372178e-05  3.65696868e-08 -5.17622556e-06  1.26262126e-07
 -1.69235274e-04  9.85127669e-05 -7.03603633e-06  5.47397555e-06 -1.13050474e-05
  2.57694236e-07 -5.92940856e-05  3.51534195e-05 -1.21481170e-06  1.75395500e-05
  1.94633029e-06 -1.08214711e-07 -5.61589318e-05  3.34613353e-05 -1.28518981e-06
 -1.73536396e-05 -2.13217797e-06  1.12134869e-07 -1.70192502e-04  9.84604158e-05
 -8.29146580e-06 -5.67026849e-06  1.12016070e-05 -2.54408836e-07  2.38162124e-04
 -1.36248211e-04  1.59968244e-05  3.33770494e-08  5.19542975e-06 -1.26899728e-07
  2.38697799e-01  1.97741220e-01  1.38012520e-04 -6.70810173e-05  1.16413632e-06
  1.62265715e-03 -7.43838291e-05  3.52969640e-05 -6.09087395e-07 -1.33516660e-03
  7.94985384e-04 -3.77116110e-04  6.49519553e-06 -2.24543806e-04 -8.66254953e-07
 -8.98687341e-06  1.89633999e-05 -2.21319747e-05 -2.26538715e-01 -1.87671042e-01
 -1.21352366e-04 -9.12158630e-05  2.64984444e-06 -1.52845395e-03  6.48295431e-05
  4.02361114e-05 -1.20986380e-06  1.33745334e-03 -7.29332467e-04 -4.78223301e-04
  1.42274631e-05  2.15713558e-04  2.04151972e-06  8.88408471e-06 -1.50127685e-05
 -2.86237905e-05 -2.24676127e-01 -1.86130034e-01 -8.97622899e-06  1.54296921e-04
 -3.74934010e-06 -1.50659011e-03  3.93711014e-06 -7.31643771e-05  1.77610650e-06
  1.34899032e-03 -6.66789819e-05  8.73947247e-04 -2.11650170e-05  2.16216307e-04
  1.05443705e-06  9.98496818e-06  3.37093999e-05  4.95327494e-06  2.17264009e-01
  1.79990340e-01 -7.06005172e-06  1.51272488e-04 -3.68119029e-06  1.45361569e-03
  8.17556288e-06 -6.96662555e-05  1.67627828e-06 -1.34147315e-03 -7.06906001e-05
  8.65390993e-04 -2.09394833e-05 -2.09640191e-04 -9.45964560e-07 -9.71628257e-06
 -3.45758321e-05 -7.66390710e-06  2.33492168e-01  1.93430934e-01 -1.24967691e-04
 -9.15174805e-05  2.66877461e-06  1.57751223e-03  6.47050277e-05  4.54559195e-05
 -1.33765808e-06 -1.34468532e-03 -7.33449780e-04 -4.86583984e-04  1.44451061e-05
 -2.22015674e-04 -2.06675352e-06 -9.21837846e-06  1.22592748e-05  2.85567221e-05
 -2.38837542e-01 -1.97856907e-01  1.35359621e-04 -7.23702856e-05  1.30289333e-06
 -1.62393837e-03 -7.37914322e-05  3.62859441e-05 -6.35698195e-07  1.33510680e-03
  7.93144364e-04 -3.81002119e-04  6.59730895e-06  2.24580484e-04  8.53114485e-07
  8.99796254e-06 -1.84910602e-05  2.26004635e-05  1.78349496e-04 -1.69220818e-04
 -9.82931776e-05  9.62470138e-06 -5.36882052e-06  9.71884719e-08 -1.68841484e-04
  1.63135619e-04  1.00959431e-04 -8.14133658e-06 -7.50259349e-06  2.10975833e-07
 -1.67133385e-04  1.62571036e-04  1.03396959e-04 -2.80286445e-07  1.13871173e-05
 -2.79238275e-07  1.61537810e-04 -1.59335903e-04 -1.03757281e-04  1.79286092e-07
  1.13592216e-05 -2.79557781e-07  1.74075417e-04 -1.66248241e-04 -1.00752294e-04
 -8.47212149e-06 -7.16311977e-06  2.03159854e-07 -1.78480447e-04  1.69439020e-04