MonoMethylPhosphate1H Gaussian OPT Calculation on node37.bme.utexas.edu 
FOpt      RwB97XD                                                     6-31G(d)            
Number of atoms                            I               10
Info1-9                                    I   N=           9
          21          21           0           0           0         110
           2          18        -802
Charge                                     I               -1
Multiplicity                               I                1
Number of electrons                        I               58
Number of alpha electrons                  I               29
Number of beta electrons                   I               29
Number of basis functions                  I              102
Number of independent functions            I              102
Number of point charges in /Mol/           I                0
Number of translation vectors              I                0
Atomic numbers                             I   N=          10
           1           8          15           8           8           8
           6           1           1           1
Nuclear charges                            R   N=          10
  1.00000000E+00  8.00000000E+00  1.50000000E+01  8.00000000E+00  8.00000000E+00
  8.00000000E+00  6.00000000E+00  1.00000000E+00  1.00000000E+00  1.00000000E+00
Current cartesian coordinates              R   N=          30
 -6.21443120E-01  3.77843738E+00 -9.57255650E-01 -9.65174447E-01  2.23362525E+00
 -1.86486826E+00 -9.33946095E-01 -1.30173972E-01  1.76343333E-01  1.78009569E+00
 -1.48097425E+00 -5.20698778E-01 -2.91316404E+00 -1.98975162E+00 -6.02869311E-01
 -8.21005763E-01  9.82614105E-01  2.78396279E+00  4.01877716E+00 -9.27962516E-02
 -4.30546699E-02  4.04056233E+00  1.68026227E+00 -1.11849409E+00  5.61413579E+00
 -1.25714421E+00 -6.46241639E-01  4.21726201E+00  3.43723819E-01  1.97095787E+00
Force Field                                I                0
Int Atom Types                             I   N=          10
           0           0           0           0           0           0
           0           0           0           0
MM charges                                 R   N=          10
  0.00000000E+00  0.00000000E+00  0.00000000E+00  0.00000000E+00  0.00000000E+00
  0.00000000E+00  0.00000000E+00  0.00000000E+00  0.00000000E+00  0.00000000E+00
Integer atomic weights                     I   N=          10
           1          16          31          16          16          16
          12           1           1           1
Real atomic weights                        R   N=          10
  1.00782504E+00  1.59949146E+01  3.09737634E+01  1.59949146E+01  1.59949146E+01
  1.59949146E+01  1.20000000E+01  1.00782504E+00  1.00782504E+00  1.00782504E+00
Atom fragment info                         I   N=          10
           0           0           0           0           0           0
           0           0           0           0
Atom residue num                           I   N=          10
           0           0           0           0           0           0
           0           0           0           0
Nuclear spins                              I   N=          10
           1           0           1           0           0           0
           0           1           1           1
Nuclear ZEff                               R   N=          10
 -1.00000000E+00 -5.60000000E+00 -1.29400000E+01 -5.60000000E+00 -5.60000000E+00
 -5.60000000E+00 -3.60000000E+00 -1.00000000E+00 -1.00000000E+00 -1.00000000E+00
Nuclear QMom                               R   N=          10
  0.00000000E+00  0.00000000E+00  0.00000000E+00  0.00000000E+00  0.00000000E+00
  0.00000000E+00  0.00000000E+00  0.00000000E+00  0.00000000E+00  0.00000000E+00
Nuclear GFac                               R   N=          10
  2.79284600E+00  0.00000000E+00  1.13160000E+00  0.00000000E+00  0.00000000E+00
  0.00000000E+00  0.00000000E+00  2.79284600E+00  2.79284600E+00  2.79284600E+00
MicOpt                                     I   N=          10
          -1          -1          -1          -1          -1          -1
          -1          -1          -1          -1
Number of contracted shells                I               33
Number of primitive shells                 I               88
Pure/Cartesian d shells                    I                1
Pure/Cartesian f shells                    I                0
Highest angular momentum                   I                2
Largest degree of contraction              I                6
Shell types                                I   N=          33
           0           0           0          -1          -1           2
           0          -1          -1          -1           2           0
          -1          -1           2           0          -1          -1
           2           0          -1          -1           2           0
          -1          -1           2           0           0           0
           0           0           0
Number of primitives per shell             I   N=          33
           3           1           6           3           1           1
           6           6           3           1           1           6
           3           1           1           6           3           1
           1           6           3           1           1           6
           3           1           1           3           1           3
           1           3           1
Shell to atom map                          I   N=          33
           1           1           2           2           2           2
           3           3           3           3           3           4
           4           4           4           5           5           5
           5           6           6           6           6           7
           7           7           7           8           8           9
           9          10          10
Primitive exponents                        R   N=          88
  1.87311370E+01  2.82539436E+00  6.40121692E-01  1.61277759E-01  5.48467166E+03
  8.25234946E+02  1.88046958E+02  5.29645000E+01  1.68975704E+01  5.79963534E+00
  1.55396162E+01  3.59993359E+00  1.01376175E+00  2.70005823E-01  8.00000000E-01
  1.94133000E+04  2.90942000E+03  6.61364000E+02  1.85759000E+02  5.91943000E+01
  2.00310000E+01  3.39478000E+02  8.10101000E+01  2.58780000E+01  9.45221000E+00
  3.66566000E+00  1.46746000E+00  2.15623000E+00  7.48997000E-01  2.83145000E-01
  9.98317000E-02  5.50000000E-01  5.48467166E+03  8.25234946E+02  1.88046958E+02
  5.29645000E+01  1.68975704E+01  5.79963534E+00  1.55396162E+01  3.59993359E+00
  1.01376175E+00  2.70005823E-01  8.00000000E-01  5.48467166E+03  8.25234946E+02
  1.88046958E+02  5.29645000E+01  1.68975704E+01  5.79963534E+00  1.55396162E+01
  3.59993359E+00  1.01376175E+00  2.70005823E-01  8.00000000E-01  5.48467166E+03
  8.25234946E+02  1.88046958E+02  5.29645000E+01  1.68975704E+01  5.79963534E+00
  1.55396162E+01  3.59993359E+00  1.01376175E+00  2.70005823E-01  8.00000000E-01
  3.04752488E+03  4.57369518E+02  1.03948685E+02  2.92101553E+01  9.28666296E+00
  3.16392696E+00  7.86827235E+00  1.88128854E+00  5.44249258E-01  1.68714478E-01
  8.00000000E-01  1.87311370E+01  2.82539436E+00  6.40121692E-01  1.61277759E-01
  1.87311370E+01  2.82539436E+00  6.40121692E-01  1.61277759E-01  1.87311370E+01
  2.82539436E+00  6.40121692E-01  1.61277759E-01
Contraction coefficients                   R   N=          88
  3.34946043E-02  2.34726953E-01  8.13757326E-01  1.00000000E+00  1.83107443E-03
  1.39501722E-02  6.84450781E-02  2.32714336E-01  4.70192898E-01  3.58520853E-01
 -1.10777550E-01 -1.48026263E-01  1.13076702E+00  1.00000000E+00  1.00000000E+00
  1.85159892E-03  1.42061917E-02  6.99994593E-02  2.40078860E-01  4.84761718E-01
  3.35199805E-01 -2.78217010E-03 -3.60499014E-02 -1.16631004E-01  9.68328036E-02
  6.14418023E-01  4.03798015E-01 -2.52924114E-01  3.28518447E-02  1.08125476E+00
  1.00000000E+00  1.00000000E+00  1.83107443E-03  1.39501722E-02  6.84450781E-02
  2.32714336E-01  4.70192898E-01  3.58520853E-01 -1.10777550E-01 -1.48026263E-01
  1.13076702E+00  1.00000000E+00  1.00000000E+00  1.83107443E-03  1.39501722E-02
  6.84450781E-02  2.32714336E-01  4.70192898E-01  3.58520853E-01 -1.10777550E-01
 -1.48026263E-01  1.13076702E+00  1.00000000E+00  1.00000000E+00  1.83107443E-03
  1.39501722E-02  6.84450781E-02  2.32714336E-01  4.70192898E-01  3.58520853E-01
 -1.10777550E-01 -1.48026263E-01  1.13076702E+00  1.00000000E+00  1.00000000E+00
  1.83473713E-03  1.40373228E-02  6.88426223E-02  2.32184443E-01  4.67941348E-01
  3.62311985E-01 -1.19332420E-01 -1.60854152E-01  1.14345644E+00  1.00000000E+00
  1.00000000E+00  3.34946043E-02  2.34726953E-01  8.13757326E-01  1.00000000E+00
  3.34946043E-02  2.34726953E-01  8.13757326E-01  1.00000000E+00  3.34946043E-02
  2.34726953E-01  8.13757326E-01  1.00000000E+00
P(S=P) Contraction coefficients            R   N=          88
  0.00000000E+00  0.00000000E+00  0.00000000E+00  0.00000000E+00  0.00000000E+00
  0.00000000E+00  0.00000000E+00  0.00000000E+00  0.00000000E+00  0.00000000E+00
  7.08742682E-02  3.39752839E-01  7.27158577E-01  1.00000000E+00  0.00000000E+00
  0.00000000E+00  0.00000000E+00  0.00000000E+00  0.00000000E+00  0.00000000E+00
  0.00000000E+00  4.56461619E-03  3.36935719E-02  1.39754883E-01  3.39361717E-01
  4.50920624E-01  2.38585801E-01 -1.77653127E-02  2.74058196E-01  7.85421563E-01
  1.00000000E+00  0.00000000E+00  0.00000000E+00  0.00000000E+00  0.00000000E+00
  0.00000000E+00  0.00000000E+00  0.00000000E+00  7.08742682E-02  3.39752839E-01
  7.27158577E-01  1.00000000E+00  0.00000000E+00  0.00000000E+00  0.00000000E+00
  0.00000000E+00  0.00000000E+00  0.00000000E+00  0.00000000E+00  7.08742682E-02
  3.39752839E-01  7.27158577E-01  1.00000000E+00  0.00000000E+00  0.00000000E+00
  0.00000000E+00  0.00000000E+00  0.00000000E+00  0.00000000E+00  0.00000000E+00
  7.08742682E-02  3.39752839E-01  7.27158577E-01  1.00000000E+00  0.00000000E+00
  0.00000000E+00  0.00000000E+00  0.00000000E+00  0.00000000E+00  0.00000000E+00
  0.00000000E+00  6.89990666E-02  3.16423961E-01  7.44308291E-01  1.00000000E+00
  0.00000000E+00  0.00000000E+00  0.00000000E+00  0.00000000E+00  0.00000000E+00
  0.00000000E+00  0.00000000E+00  0.00000000E+00  0.00000000E+00  0.00000000E+00
  0.00000000E+00  0.00000000E+00  0.00000000E+00
Coordinates of each shell                  R   N=          99
 -6.21443120E-01  3.77843738E+00 -9.57255650E-01 -6.21443120E-01  3.77843738E+00
 -9.57255650E-01 -9.65174447E-01  2.23362525E+00 -1.86486826E+00 -9.65174447E-01
  2.23362525E+00 -1.86486826E+00 -9.65174447E-01  2.23362525E+00 -1.86486826E+00
 -9.65174447E-01  2.23362525E+00 -1.86486826E+00 -9.33946095E-01 -1.30173972E-01
  1.76343333E-01 -9.33946095E-01 -1.30173972E-01  1.76343333E-01 -9.33946095E-01
 -1.30173972E-01  1.76343333E-01 -9.33946095E-01 -1.30173972E-01  1.76343333E-01
 -9.33946095E-01 -1.30173972E-01  1.76343333E-01  1.78009569E+00 -1.48097425E+00
 -5.20698778E-01  1.78009569E+00 -1.48097425E+00 -5.20698778E-01  1.78009569E+00
 -1.48097425E+00 -5.20698778E-01  1.78009569E+00 -1.48097425E+00 -5.20698778E-01
 -2.91316404E+00 -1.98975162E+00 -6.02869311E-01 -2.91316404E+00 -1.98975162E+00
 -6.02869311E-01 -2.91316404E+00 -1.98975162E+00 -6.02869311E-01 -2.91316404E+00
 -1.98975162E+00 -6.02869311E-01 -8.21005763E-01  9.82614105E-01  2.78396279E+00
 -8.21005763E-01  9.82614105E-01  2.78396279E+00 -8.21005763E-01  9.82614105E-01
  2.78396279E+00 -8.21005763E-01  9.82614105E-01  2.78396279E+00  4.01877716E+00
 -9.27962516E-02 -4.30546699E-02  4.01877716E+00 -9.27962516E-02 -4.30546699E-02
  4.01877716E+00 -9.27962516E-02 -4.30546699E-02  4.01877716E+00 -9.27962516E-02
 -4.30546699E-02  4.04056233E+00  1.68026227E+00 -1.11849409E+00  4.04056233E+00
  1.68026227E+00 -1.11849409E+00  5.61413579E+00 -1.25714421E+00 -6.46241639E-01
  5.61413579E+00 -1.25714421E+00 -6.46241639E-01  4.21726201E+00  3.43723819E-01
  1.97095787E+00  4.21726201E+00  3.43723819E-01  1.97095787E+00
Constraint Structure                       R   N=          30
  6.06482849E-01  3.43537120E+00 -3.51552577E-01 -8.59607662E-01  2.57894729E+00
 -9.90493993E-01 -9.62719266E-01  4.44718477E-02  4.58404488E-02  1.71756006E+00
 -1.28535270E+00 -8.46167114E-01 -2.98065923E+00 -1.63016805E+00 -1.15258627E+00
 -9.09629686E-01 -6.48449846E-02  2.92695441E+00  4.02993861E+00 -1.88759082E-01
 -4.75365826E-02  4.18170458E+00  1.74404055E+00 -7.58636636E-01  5.58872223E+00
 -1.30887606E+00 -8.08503524E-01  4.14293984E+00 -1.93711286E-01  2.01464922E+00
Num ILSW                                   I              100
ILSW                                       I   N=         100
           0           1           0           0           2           0
           0           0           0           0        4639 20132659200
           0           0           0           0           0           0
           0           0           0           0           1           0
           1           0           0           0           0           0
           0           0      100000           0          -1           0
           0           0           0           0           0           0
           0           0           0           1           0           0
           0           0           1           0           0           0
           0           0           2          40           0           0
           0           0          58           0           0           0
           0           0           0           0           0           0
           0           0           0           0           0           0
           0           0           0           0           0           0
           0           0           0           0           0           0
           0           0           0           0           0           0
           0           0           0           0
Num RLSW                                   I               40
RLSW                                       R   N=          40
  1.00000000E+00  1.00000000E+00  1.00000000E+00  1.00000000E+00  1.00000000E+00
  0.00000000E+00  2.00000000E-01  2.22036000E-01  0.00000000E+00  7.77964000E-01
  0.00000000E+00  2.00000000E-01  0.00000000E+00  0.00000000E+00  1.00000000E+00
  0.00000000E+00  0.00000000E+00  1.00000000E+00  0.00000000E+00  0.00000000E+00
  0.00000000E+00  0.00000000E+00  1.00000000E+00  0.00000000E+00  0.00000000E+00
  0.00000000E+00  0.00000000E+00  1.00000000E+00  0.00000000E+00  0.00000000E+00
  0.00000000E+00  0.00000000E+00  0.00000000E+00  0.00000000E+00  0.00000000E+00
  0.00000000E+00  0.00000000E+00  0.00000000E+00  1.00000000E+00  1.00000000E+00
MxBond                                     I                4
NBond                                      I   N=          10
           1           2           4           2           1           1
           4           1           1           1
IBond                                      I   N=          40
           2           0           0           0           1           3
           0           0           2           4           5           6
           3           7           0           0           3           0
           0           0           3           0           0           0
           4           8           9          10           7           0
           0           0           7           0           0           0
           7           0           0           0
RBond                                      R   N=          40
  1.00000000E+00  0.00000000E+00  0.00000000E+00  0.00000000E+00  1.00000000E+00
  2.00000000E+00  0.00000000E+00  0.00000000E+00  2.00000000E+00  1.00000000E+00
  2.00000000E+00  2.00000000E+00  1.00000000E+00  1.00000000E+00  0.00000000E+00
  0.00000000E+00  2.00000000E+00  0.00000000E+00  0.00000000E+00  0.00000000E+00
  2.00000000E+00  0.00000000E+00  0.00000000E+00  0.00000000E+00  1.00000000E+00
  1.00000000E+00  1.00000000E+00  1.00000000E+00  1.00000000E+00  0.00000000E+00
  0.00000000E+00  0.00000000E+00  1.00000000E+00  0.00000000E+00  0.00000000E+00
  0.00000000E+00  1.00000000E+00  0.00000000E+00  0.00000000E+00  0.00000000E+00
Virial Ratio                               R      2.006154023083965E+00
SCF Energy                                 R     -6.828734494012469E+02
Total Energy                               R     -6.828734494012469E+02
RMS Force                                  R      1.955515420957435E-05
RMS Density                                R      4.365751159953154E-09
External E-field                           R   N=          35
  0.00000000E+00  0.00000000E+00  0.00000000E+00  0.00000000E+00  0.00000000E+00
  0.00000000E+00  0.00000000E+00  0.00000000E+00  0.00000000E+00  0.00000000E+00
  0.00000000E+00  0.00000000E+00  0.00000000E+00  0.00000000E+00  0.00000000E+00
  0.00000000E+00  0.00000000E+00  0.00000000E+00  0.00000000E+00  0.00000000E+00
  0.00000000E+00  0.00000000E+00  0.00000000E+00  0.00000000E+00  0.00000000E+00
  0.00000000E+00  0.00000000E+00  0.00000000E+00  0.00000000E+00  0.00000000E+00
  0.00000000E+00  0.00000000E+00  0.00000000E+00  0.00000000E+00  0.00000000E+00
IOpCl                                      I                0
IROHF                                      I                0
Alpha Orbital Energies                     R   N=         102
 -7.73255144E+01 -1.92631546E+01 -1.92611431E+01 -1.91870592E+01 -1.91861024E+01
 -1.03289987E+01 -6.73338780E+00 -4.88380137E+00 -4.88249137E+00 -4.88013696E+00
 -1.13936088E+00 -1.08976520E+00 -1.02656971E+00 -9.92540984E-01 -7.74615597E-01
 -6.42323026E-01 -5.80330559E-01 -5.28485088E-01 -5.24914544E-01 -5.08155912E-01
 -4.62284068E-01 -4.37797617E-01 -4.12549104E-01 -3.89265137E-01 -3.69635794E-01
 -3.62388254E-01 -3.37739581E-01 -3.27485542E-01 -3.14936937E-01  1.68193861E-01
  2.19258325E-01  2.24452027E-01  2.49091575E-01  2.59136441E-01  2.78593332E-01
  3.03385983E-01  3.09136745E-01  3.31847069E-01  4.38074498E-01  4.45776682E-01
  4.74632453E-01  5.62353133E-01  6.28179331E-01  6.70010695E-01  7.21719590E-01
  7.73808510E-01  7.98292595E-01  8.90304154E-01  9.25851885E-01  9.43733029E-01
  9.58891953E-01  9.62223465E-01  1.01958529E+00  1.02546435E+00  1.07674241E+00
  1.08856780E+00  1.11492505E+00  1.13618472E+00  1.15391328E+00  1.17222046E+00
  1.20996419E+00  1.23311668E+00  1.27477880E+00  1.31211181E+00  1.32080103E+00
  1.32938089E+00  1.39833133E+00  1.45580907E+00  1.52810133E+00  1.60269961E+00
  1.66285673E+00  1.73912691E+00  1.77938978E+00  1.84649720E+00  1.88495474E+00
  1.89450598E+00  1.94386244E+00  1.95280800E+00  1.95754705E+00  1.98539528E+00
  2.07354757E+00  2.14047076E+00  2.15651836E+00  2.21244425E+00  2.24437670E+00
  2.26017485E+00  2.34059058E+00  2.40755440E+00  2.47363514E+00  2.49941185E+00
  2.54000924E+00  2.62970953E+00  2.75446054E+00  2.86854882E+00  2.94994442E+00
  2.99549317E+00  3.63120299E+00  3.81911558E+00  3.87788956E+00  4.03780417E+00
  4.08857825E+00  4.36339542E+00
Alpha MO coefficients                      R   N=       10404
 -8.71040116E-05 -2.40743487E-04 -2.40259861E-05 -1.02496687E-04 -2.80533119E-06
  3.67906192E-05 -5.98215827E-05  1.00096392E-03  2.44417879E-05 -2.14135878E-04
  3.57177252E-04 -8.07128949E-05 -1.46807824E-04 -1.57087579E-04  1.58985584E-05
  5.72889038E-06  1.51040265E-04  9.96281906E-01  1.40579835E-02  3.35543533E-05
  1.52609962E-05 -2.88391286E-05 -2.67001206E-02 -5.67344699E-05 -2.55399583E-05
  3.78958396E-05  2.35716052E-03  9.94331529E-05  1.42006960E-04  1.43931650E-04
  9.25457216E-03  9.25812395E-03  9.28650762E-03 -1.96057198E-05 -3.85212392E-06
 -5.78120200E-06 -2.21700308E-05 -9.86693586E-05  5.39577156E-05 -5.19769249E-05
 -2.43141918E-05  9.56234557E-04 -3.03390341E-04  2.74246489E-04  1.16510947E-04
 -1.98982921E-04 -9.30813646E-05 -8.02317428E-05  1.20891985E-04  6.01725881E-05
 -1.71981815E-05 -1.51241844E-05 -1.49122340E-04 -1.34729012E-04 -1.28195806E-04
 -5.33358071E-05  1.01456127E-03  3.77065798E-04  3.52334928E-04  1.33576685E-04
 -1.34252952E-04 -1.20508608E-04 -4.27166636E-05 -1.14690828E-04 -4.95425511E-05
 -4.71054823E-05  7.29824952E-06 -6.30036876E-05  1.22080589E-05  7.71164717E-05
  1.67408462E-04  5.69813581E-04 -3.39039046E-05 -1.98361518E-04 -4.30571233E-04
  4.29387001E-05  5.90612199E-06 -1.47789633E-04 -3.01969980E-06 -1.01215202E-05
 -9.40093011E-05 -1.41144946E-05 -7.60457897E-05  4.93310001E-05 -1.47168897E-05
 -1.10154325E-05  1.18395365E-04  9.95682785E-05  1.12501818E-04  5.80768690E-05
 -2.69997968E-05 -6.21363383E-08 -3.16585737E-05 -1.65432284E-05 -6.30674811E-06
  1.89974472E-05  6.18503370E-06 -1.75384556E-04 -1.70364970E-05  2.64497486E-05
  1.19140037E-05 -2.15314284E-04  4.19820995E-04 -7.13507203E-04  9.92951425E-01
  2.55598814E-02  1.87638081E-04  3.07574404E-04  8.57323287E-04  1.06657551E-02
 -1.17115780E-05 -4.63043875E-04 -6.55329963E-05 -7.58627999E-03 -7.66038207E-03
 -7.65910957E-03 -1.69747588E-05 -1.00500188E-05  1.04745832E-05  6.24384923E-06
 -2.34815830E-05 -4.36227548E-06 -5.91609173E-05  4.71535322E-05  6.74624718E-05
  6.11268342E-05  1.67165667E-04 -1.33135710E-04 -2.20053985E-03 -2.16285848E-04
 -4.06871214E-04  1.12691200E-03 -2.41015083E-05  1.61244302E-04  9.44899460E-05
 -7.49070207E-06 -2.28625707E-05 -2.66121054E-04 -1.13674830E-04 -7.27226813E-05
  2.67027049E-05  4.12906966E-05  3.33435346E-05  5.37917110E-04 -3.57674766E-04
 -1.10184225E-04 -1.52892232E-04 -2.87347617E-05 -1.03743056E-04 -2.76144316E-05
 -1.05862617E-06 -8.73150621E-06  2.76211784E-05 -4.04999283E-05 -1.39866263E-04
  2.78508797E-06  1.97812749E-05  3.71688325E-05  8.92299916E-04  1.88367620E-04
  1.17736951E-04 -1.50762370E-04 -4.24982862E-05 -1.20046510E-04 -1.03330524E-04
  6.61357264E-07 -2.04289748E-05  3.52288435E-05 -3.91718896E-05 -3.62429293E-05
 -8.62265862E-06 -3.97824053E-05  1.12699710E-05  2.65697086E-04  4.41760552E-05
  9.79106570E-05 -2.16939593E-04 -7.07535585E-06 -4.23946177E-05 -1.12413957E-05
 -1.83678699E-06 -7.30959647E-06  3.60504834E-05 -9.37197873E-06 -7.92073429E-05
 -3.29205496E-05 -3.16707408E-05 -1.67956155E-05  4.61993341E-04 -2.43030655E-04
  7.18490572E-05  4.48884282E-05  3.49650759E-05 -9.25180306E-06 -1.40969199E-06
  1.75882136E-06  6.30230363E-06  9.45783794E-07  1.34077773E-06 -5.81963795E-05
 -9.22725583E-06  7.46189181E-05 -4.16975715E-05 -5.44557729E-05  2.92097091E-06
  9.90943610E-05  6.34812373E-05 -1.21062916E-04 -5.97543930E-06  2.53437603E-05
  2.16846477E-05  7.36629536E-04  4.52495035E-05 -2.70383524E-04  1.51726095E-05
 -1.15377244E-04 -8.03200527E-05 -6.62263780E-05  5.36103330E-05  2.88969859E-06
 -6.92157962E-06  6.33731607E-06 -2.86621889E-05 -7.26672740E-05  4.00376934E-05
  1.74660624E-05  4.46267643E-05  2.34040813E-04 -1.25452620E-04 -6.07360928E-05
 -2.17947061E-03 -8.24078035E-04  5.44151964E-04  5.57007892E-04  2.91380476E-04
  3.31846013E-05 -6.08694385E-05 -1.94064109E-04 -1.26475535E-04  2.78866093E-05
  9.92927884E-01  2.54859065E-02  1.28738116E-04  7.80852218E-04  3.36111893E-04
  1.11508597E-02 -1.94605353E-04 -9.91912345E-05 -9.50838934E-05 -7.83230571E-03
 -7.75098426E-03 -7.66243674E-03 -6.16283841E-05 -8.49637149E-06 -5.08641195E-05
 -3.71681278E-05 -1.30576255E-04  8.58099233E-06  1.63253201E-05  1.93362253E-05
  8.92426356E-04  1.69522613E-04  6.44916225E-05 -5.25227887E-05 -1.67472850E-04
 -7.18628341E-05 -5.85717742E-05  3.70057339E-05  7.16391648E-06 -2.53944552E-05
 -3.51772874E-05 -5.19142840E-05 -2.47383761E-05  9.92173965E-06 -1.54885433E-05
  3.58884303E-04  1.31353369E-04 -1.25242217E-04 -1.34428832E-04 -5.88548978E-05
 -6.24379133E-06  8.55197561E-06  2.94015402E-05 -2.34515870E-06  3.29003084E-06
 -4.42216201E-06  1.73958907E-04 -3.16188308E-04 -2.65960530E-04 -9.47587859E-05
 -1.14319243E-03  2.31087615E-04  5.53059007E-04  2.36725817E-04  2.38210752E-04
  8.40422967E-05  6.53796206E-06  1.91754554E-04  6.85378633E-05  2.69962554E-05
  4.64462772E-06  8.45890822E-05  1.03192939E-04  1.72300639E-04  1.39490012E-05
  2.87688466E-05 -6.49893935E-05  3.56310009E-04 -5.79134885E-06 -1.57398218E-04
 -1.42924194E-05  1.07237565E-05 -3.77891148E-05  8.52330883E-04  1.09047984E-04
 -1.65902182E-04  3.28059878E-04 -7.54328216E-05 -9.27890987E-05 -1.15775140E-04
 -1.56291370E-05  1.25271272E-05 -2.53568730E-05  1.72974548E-05 -4.98148379E-05
 -9.40035499E-06 -4.87321622E-06 -7.68914962E-06  9.18269351E-04  1.00282485E-04
  1.08891315E-04  2.31587734E-04 -2.90810567E-03 -8.21843054E-04 -1.15818013E-03
 -1.26748514E-03 -2.64779487E-04 -2.61472761E-04 -9.87964563E-05 -1.24004987E-05
  1.32633291E-05  1.00580184E-04  7.61861364E-06 -7.76602579E-05  1.07904402E-06
 -8.91049668E-07 -2.88808606E-05  4.28196381E-04 -1.97274812E-04  7.43800679E-05
  1.61047344E-04 -3.07983103E-05 -3.61498212E-05 -6.05654129E-05 -2.22229464E-05
 -1.21070161E-05 -3.21097679E-05 -4.23119843E-03 -5.10541093E-05  1.76503021E-05
 -3.83968088E-06 -3.94218765E-05 -3.38005180E-04  2.88638991E-05  1.21177110E-04
  2.26189390E-04  1.16739286E-04  1.26034049E-04  8.37439865E-05  1.40409653E-05
  2.69921078E-05  7.04673989E-06  9.92953865E-01  2.53218295E-02 -4.77435743E-05
 -3.36375625E-04 -7.76566855E-04  1.11244981E-02  1.36570015E-04 -1.57252955E-05
 -3.08258330E-04 -7.61126838E-03 -7.62095262E-03 -7.62158627E-03 -7.86596175E-06
 -1.64846262E-05 -2.08183747E-05 -2.57301457E-05 -1.27938571E-04  4.01881245E-05
 -1.38382856E-05 -1.76222483E-05  5.20252726E-04 -4.65033049E-04  1.26711363E-04
  1.34852899E-04 -6.10977408E-06 -3.49989925E-05 -4.05039322E-05 -7.14860052E-06
  1.94277647E-07 -1.89079654E-06 -7.12634556E-05  1.20547462E-04  1.41886751E-05
  1.72545994E-04 -3.87860392E-06 -6.84565991E-05  5.64776306E-05 -3.38106769E-04
  2.31152197E-06  2.99425573E-06  3.48798653E-05 -1.78309734E-05  3.70384087E-05
  1.00324049E-04 -1.90280293E-04  5.76672749E-06 -1.66869692E-04 -1.70726029E-05
 -1.46108040E-05 -2.51981418E-05 -2.68804775E-05 -2.24070840E-05  4.11628769E-06
  1.00967881E-05 -1.22956279E-04  6.71345538E-06  5.62782188E-07  6.96760042E-06
  4.81752606E-04 -2.41141162E-04 -1.46518589E-04 -9.83484847E-05 -1.00414592E-03
  1.48693266E-03  1.43940704E-03  6.80232413E-04 -1.86218146E-04 -1.47521361E-04
 -2.61697726E-04  9.98399942E-05  6.27885871E-05  2.99808446E-05 -2.55933038E-05
 -8.86904924E-05 -3.06959695E-06  9.62131400E-06  1.14455767E-05  6.01867991E-04
 -1.82798714E-05  4.46393979E-06 -3.26148162E-05 -1.26858654E-04 -6.77163496E-05
 -6.75401484E-05 -2.03241795E-05 -1.63584868E-06 -4.50099821E-06  9.92969206E-01
  2.53987900E-02  6.22738202E-04  5.79360897E-04  2.38165104E-04  1.07565917E-02
  9.80099445E-05  8.64065724E-05  2.44095652E-05 -7.58080538E-03 -7.57794104E-03
 -7.56569876E-03 -1.40826873E-05 -7.78505226E-06 -6.02098414E-06  4.29087224E-03
  2.55427640E-04  5.35100222E-05  3.08732757E-05 -3.92925221E-05 -7.04400456E-04
 -2.87149010E-04 -2.07930415E-04  8.88545364E-05  8.00700456E-05  9.97152719E-05
  1.01553658E-04 -9.84920151E-06  2.65602726E-05  2.85762966E-05  2.63172912E-05
  1.07660545E-04 -6.80659894E-05  3.47712973E-05  1.96288506E-05 -5.04575195E-04
  5.53520458E-04 -2.11299773E-04 -1.06500187E-04  2.97920019E-05  5.99070449E-05
  3.63470755E-05  4.49355499E-06  1.73456288E-07  1.24754245E-05  7.09988313E-05
 -1.16311545E-05 -2.78511699E-05 -2.37803371E-04  7.61019086E-05 -5.49227527E-05
  9.64043963E-05 -6.96563097E-04  3.41316475E-05  1.73030353E-04  1.01169818E-05
 -3.49687541E-05  1.31528088E-05 -8.87286315E-04 -1.98268575E-04  2.94387125E-04
 -2.21345731E-04  9.16938218E-05  1.15178341E-04  3.96613203E-05  1.72366963E-05
 -2.11755931E-05 -1.34006597E-05 -8.45702806E-06 -1.20315204E-04 -3.07269712E-05
 -1.23182475E-05  3.74524494E-06 -6.94366894E-04  5.27730424E-05  8.73015823E-05
  8.34092377E-06  2.31571371E-03  1.62481672E-03  1.25940261E-03  2.06979548E-04
  1.61524894E-04 -3.39229776E-05 -1.48609333E-05  4.14488314E-05  1.14551527E-05
 -1.07619011E-05 -8.20252825E-05 -5.61141236E-06 -9.44470340E-05  3.39977305E-06
  2.39080430E-06  1.38197837E-03  2.29175698E-04 -2.59135580E-04 -8.83128948E-05
 -5.51336529E-04 -2.04957788E-04  2.76695885E-05 -3.69392792E-04 -1.28044776E-04
 -1.12318779E-04 -4.48618754E-05 -1.70538808E-04  4.86514461E-05 -5.94791460E-06
 -2.23459541E-05  9.62626835E-04 -1.08167012E-04  2.22558161E-05  1.02275086E-04
 -1.39559184E-04 -1.39143113E-04 -1.18204102E-04 -5.36778038E-06  8.00881680E-06
 -2.91003040E-06  6.88016755E-05  2.91594158E-04  1.48853789E-05  3.87308459E-05
 -2.32802360E-06 -1.61203520E-03 -2.42670921E-04 -1.52212334E-04  2.21695236E-04
  2.00713215E-04  1.88112915E-04  1.88362599E-04  1.85934682E-05  2.14398066E-05
  5.26536394E-05  9.93336726E-01  4.64863756E-02 -7.44989817E-04 -2.89187842E-04
 -1.14034717E-04 -1.48315244E-02  5.72295266E-04 -5.25154711E-04 -1.94526430E-04
 -7.74916271E-03 -7.84816496E-03 -7.92410673E-03  9.72596891E-05  2.81523870E-05
  4.49873035E-05 -3.88955900E-05  2.74224870E-03 -2.15735058E-04  2.38238986E-03
 -2.69013405E-05  2.66784129E-03  3.78283816E-04  1.20006985E-03  4.92118757E-05
  7.27183573E-04 -2.64464441E-06 -1.32499441E-04  2.33530370E-04 -4.02070573E-03
 -2.02870697E-05  1.14731187E-03 -1.72538070E-03  5.19331991E-04  3.12648895E-04
  5.15389997E-04 -5.57143578E-05 -3.43688267E-05 -1.56209615E-04 -2.74446592E-01
  1.02494851E+00  3.51603242E-03  1.38169777E-03 -3.89704387E-03  6.52069335E-02
  8.60577295E-04  1.89485306E-04 -6.43537592E-04 -7.67621175E-03 -1.26263766E-03
 -1.18372158E-03 -4.81734061E-04 -1.40455582E-02 -1.40402841E-02 -1.42373628E-02
  4.06828757E-05  1.99056211E-06  6.98309999E-05  7.16001151E-05  8.74660029E-04
 -2.49720166E-04  2.42985050E-04  1.19288188E-04 -4.66299404E-03  1.74388211E-03
 -1.64029641E-03 -7.38446833E-04  4.91809156E-04  4.54497486E-04  6.02213141E-04
 -1.60800301E-04 -8.51515755E-05 -5.58982996E-05 -7.05965984E-05  1.08978913E-03