MonoMethylPhosphate1H Gaussian SP Calculation on node37.bme.utexas.edu  
SP        RMP2-FC                                                     6-311++G(2d,2p)     
Number of atoms                            I               10
Info1-9                                    I   N=           9
          23          23           0           0           0         110
           1           2           1
Charge                                     I               -1
Multiplicity                               I                1
Number of electrons                        I               58
Number of alpha electrons                  I               29
Number of beta electrons                   I               29
Number of basis functions                  I              210
Number of independent functions            I              210
Number of point charges in /Mol/           I                0
Number of translation vectors              I                0
Atomic numbers                             I   N=          10
           1           8          15           8           8           8
           6           1           1           1
Nuclear charges                            R   N=          10
  1.00000000E+00  8.00000000E+00  1.50000000E+01  8.00000000E+00  8.00000000E+00
  8.00000000E+00  6.00000000E+00  1.00000000E+00  1.00000000E+00  1.00000000E+00
Current cartesian coordinates              R   N=          30
 -6.21443998E-01  3.77843748E+00 -9.57255890E-01 -9.65173843E-01  2.23362605E+00
 -1.86486868E+00 -9.33946119E-01 -1.30173785E-01  1.76343574E-01  1.78009556E+00
 -1.48097459E+00 -5.20698918E-01 -2.91316401E+00 -1.98975123E+00 -6.02869880E-01
 -8.21006636E-01  9.82614125E-01  2.78396344E+00  4.01877663E+00 -9.27968915E-02
 -4.30555202E-02  4.04056139E+00  1.68026133E+00 -1.11849488E+00  5.61413635E+00
 -1.25714409E+00 -6.46240984E-01  4.21726213E+00  3.43724176E-01  1.97095790E+00
Force Field                                I                0
Int Atom Types                             I   N=          10
           0           0           0           0           0           0
           0           0           0           0
MM charges                                 R   N=          10
  0.00000000E+00  0.00000000E+00  0.00000000E+00  0.00000000E+00  0.00000000E+00
  0.00000000E+00  0.00000000E+00  0.00000000E+00  0.00000000E+00  0.00000000E+00
Integer atomic weights                     I   N=          10
           1          16          31          16          16          16
          12           1           1           1
Real atomic weights                        R   N=          10
  1.00782504E+00  1.59949146E+01  3.09737634E+01  1.59949146E+01  1.59949146E+01
  1.59949146E+01  1.20000000E+01  1.00782504E+00  1.00782504E+00  1.00782504E+00
Atom fragment info                         I   N=          10
           0           0           0           0           0           0
           0           0           0           0
Atom residue num                           I   N=          10
           0           0           0           0           0           0
           0           0           0           0
Nuclear spins                              I   N=          10
           1           0           1           0           0           0
           0           1           1           1
Nuclear ZEff                               R   N=          10
 -1.00000000E+00 -5.60000000E+00 -1.29400000E+01 -5.60000000E+00 -5.60000000E+00
 -5.60000000E+00 -3.60000000E+00 -1.00000000E+00 -1.00000000E+00 -1.00000000E+00
Nuclear QMom                               R   N=          10
  0.00000000E+00  0.00000000E+00  0.00000000E+00  0.00000000E+00  0.00000000E+00
  0.00000000E+00  0.00000000E+00  0.00000000E+00  0.00000000E+00  0.00000000E+00
Nuclear GFac                               R   N=          10
  2.79284600E+00  0.00000000E+00  1.13160000E+00  0.00000000E+00  0.00000000E+00
  0.00000000E+00  0.00000000E+00  2.79284600E+00  2.79284600E+00  2.79284600E+00
MicOpt                                     I   N=          10
          -1          -1          -1          -1          -1          -1
          -1          -1          -1          -1
Number of contracted shells                I               73
Number of primitive shells                 I              127
Pure/Cartesian d shells                    I                0
Pure/Cartesian f shells                    I                0
Highest angular momentum                   I                2
Largest degree of contraction              I                6
Shell types                                I   N=          73
           0           0           0           0           1           1
           0          -1          -1          -1          -1          -2
          -2           0           0           0           0           0
           0          -1           1           1           1           1
           1          -2          -2           0          -1          -1
          -1          -1          -2          -2           0          -1
          -1          -1          -1          -2          -2           0
          -1          -1          -1          -1          -2          -2
           0          -1          -1          -1          -1          -2
          -2           0           0           0           0           1
           1           0           0           0           0           1
           1           0           0           0           0           1
           1
Number of primitives per shell             I   N=          73
           3           1           1           1           1           1
           6           3           1           1           1           1
           1           6           3           1           1           1
           1           1           4           2           1           1
           1           1           1           6           3           1
           1           1           1           1           6           3
           1           1           1           1           1           6
           3           1           1           1           1           1
           6           3           1           1           1           1
           1           3           1           1           1           1
           1           3           1           1           1           1
           1           3           1           1           1           1
           1
Shell to atom map                          I   N=          73
           1           1           1           1           1           1
           2           2           2           2           2           2
           2           3           3           3           3           3
           3           3           3           3           3           3
           3           3           3           4           4           4
           4           4           4           4           5           5
           5           5           5           5           5           6
           6           6           6           6           6           6
           7           7           7           7           7           7
           7           8           8           8           8           8
           8           9           9           9           9           9
           9          10          10          10          10          10
          10
Primitive exponents                        R   N=         127
  3.38650000E+01  5.09479000E+00  1.15879000E+00  3.25840000E-01  1.02741000E-01
  3.60000000E-02  1.50000000E+00  3.75000000E-01  8.58850000E+03  1.29723000E+03
  2.99296000E+02  8.73771000E+01  2.56789000E+01  3.74004000E+00  4.21175000E+01
  9.62837000E+00  2.85332000E+00  9.05661000E-01  2.55611000E-01  8.45000000E-02
  2.58400000E+00  6.46000000E-01  7.74924000E+04  1.16058000E+04  2.64596000E+03
  7.54976000E+02  2.48755000E+02  9.11565000E+01  9.11565000E+01  3.62257000E+01
  1.52113000E+01  4.79417000E+00  1.80793000E+00  3.56816000E-01  1.14783000E-01
  3.48000000E-02  3.84843000E+02  9.05521000E+01  2.91339000E+01  1.08862000E+01
  4.35259000E+00  1.77706000E+00  6.97005000E-01  2.53532000E-01  6.84930000E-02
  1.10000000E+00  2.75000000E-01  8.58850000E+03  1.29723000E+03  2.99296000E+02
  8.73771000E+01  2.56789000E+01  3.74004000E+00  4.21175000E+01  9.62837000E+00
  2.85332000E+00  9.05661000E-01  2.55611000E-01  8.45000000E-02  2.58400000E+00
  6.46000000E-01  8.58850000E+03  1.29723000E+03  2.99296000E+02  8.73771000E+01
  2.56789000E+01  3.74004000E+00  4.21175000E+01  9.62837000E+00  2.85332000E+00
  9.05661000E-01  2.55611000E-01  8.45000000E-02  2.58400000E+00  6.46000000E-01
  8.58850000E+03  1.29723000E+03  2.99296000E+02  8.73771000E+01  2.56789000E+01
  3.74004000E+00  4.21175000E+01  9.62837000E+00  2.85332000E+00  9.05661000E-01
  2.55611000E-01  8.45000000E-02  2.58400000E+00  6.46000000E-01  4.56324000E+03
  6.82024000E+02  1.54973000E+02  4.44553000E+01  1.30290000E+01  1.82773000E+00
  2.09642000E+01  4.80331000E+00  1.45933000E+00  4.83456000E-01  1.45585000E-01
  4.38000000E-02  1.25200000E+00  3.13000000E-01  3.38650000E+01  5.09479000E+00
  1.15879000E+00  3.25840000E-01  1.02741000E-01  3.60000000E-02  1.50000000E+00
  3.75000000E-01  3.38650000E+01  5.09479000E+00  1.15879000E+00  3.25840000E-01
  1.02741000E-01  3.60000000E-02  1.50000000E+00  3.75000000E-01  3.38650000E+01
  5.09479000E+00  1.15879000E+00  3.25840000E-01  1.02741000E-01  3.60000000E-02
  1.50000000E+00  3.75000000E-01
Contraction coefficients                   R   N=         127
  2.54938145E-02  1.90373109E-01  8.52161486E-01  1.00000000E+00  1.00000000E+00
  1.00000000E+00  1.00000000E+00  1.00000000E+00  1.89515008E-03  1.43859006E-02
  7.07320031E-02  2.40001011E-01  5.94797026E-01  2.80802012E-01  1.13889012E-01
  9.20811101E-01 -3.27447036E-03  1.00000000E+00  1.00000000E+00  1.00000000E+00
  1.00000000E+00  1.00000000E+00  7.81000147E-04  6.06800114E-03  3.11600059E-02
  1.23431023E-01  3.78209071E-01  5.63262106E-01  1.60255011E-01  6.27647045E-01
  2.63849019E-01  1.00000000E+00  1.00000000E+00  1.00000000E+00  1.00000000E+00
  1.00000000E+00  9.20599888E-03  6.98739915E-02  2.92469964E-01  7.28102911E-01
  6.28348873E-01  4.28043913E-01  1.00000000E+00  1.00000000E+00  1.00000000E+00
  1.00000000E+00  1.00000000E+00  1.89515008E-03  1.43859006E-02  7.07320031E-02
  2.40001011E-01  5.94797026E-01  2.80802012E-01  1.13889012E-01  9.20811101E-01
 -3.27447036E-03  1.00000000E+00  1.00000000E+00  1.00000000E+00  1.00000000E+00
  1.00000000E+00  1.89515008E-03  1.43859006E-02  7.07320031E-02  2.40001011E-01
  5.94797026E-01  2.80802012E-01  1.13889012E-01  9.20811101E-01 -3.27447036E-03
  1.00000000E+00  1.00000000E+00  1.00000000E+00  1.00000000E+00  1.00000000E+00
  1.89515008E-03  1.43859006E-02  7.07320031E-02  2.40001011E-01  5.94797026E-01
  2.80802012E-01  1.13889012E-01  9.20811101E-01 -3.27447036E-03  1.00000000E+00
  1.00000000E+00  1.00000000E+00  1.00000000E+00  1.00000000E+00  1.96665025E-03
  1.52306019E-02  7.61269097E-02  2.60801033E-01  6.16462078E-01  2.21006028E-01
  1.14660081E-01  9.19999648E-01 -3.03068213E-03  1.00000000E+00  1.00000000E+00
  1.00000000E+00  1.00000000E+00  1.00000000E+00  2.54938145E-02  1.90373109E-01
  8.52161486E-01  1.00000000E+00  1.00000000E+00  1.00000000E+00  1.00000000E+00
  1.00000000E+00  2.54938145E-02  1.90373109E-01  8.52161486E-01  1.00000000E+00
  1.00000000E+00  1.00000000E+00  1.00000000E+00  1.00000000E+00  2.54938145E-02
  1.90373109E-01  8.52161486E-01  1.00000000E+00  1.00000000E+00  1.00000000E+00
  1.00000000E+00  1.00000000E+00
P(S=P) Contraction coefficients            R   N=         127
  0.00000000E+00  0.00000000E+00  0.00000000E+00  0.00000000E+00  0.00000000E+00
  0.00000000E+00  0.00000000E+00  0.00000000E+00  0.00000000E+00  0.00000000E+00
  0.00000000E+00  0.00000000E+00  0.00000000E+00  0.00000000E+00  3.65113974E-02
  2.37152983E-01  8.19701941E-01  1.00000000E+00  1.00000000E+00  1.00000000E+00
  0.00000000E+00  0.00000000E+00  0.00000000E+00  0.00000000E+00  0.00000000E+00
  0.00000000E+00  0.00000000E+00  0.00000000E+00  0.00000000E+00  0.00000000E+00
  0.00000000E+00  0.00000000E+00  0.00000000E+00  0.00000000E+00  0.00000000E+00
  1.00000000E+00  0.00000000E+00  0.00000000E+00  0.00000000E+00  0.00000000E+00
  0.00000000E+00  0.00000000E+00  0.00000000E+00  0.00000000E+00  0.00000000E+00
  0.00000000E+00  0.00000000E+00  0.00000000E+00  0.00000000E+00  0.00000000E+00
  0.00000000E+00  0.00000000E+00  0.00000000E+00  3.65113974E-02  2.37152983E-01
  8.19701941E-01  1.00000000E+00  1.00000000E+00  1.00000000E+00  0.00000000E+00
  0.00000000E+00  0.00000000E+00  0.00000000E+00  0.00000000E+00  0.00000000E+00
  0.00000000E+00  0.00000000E+00  3.65113974E-02  2.37152983E-01  8.19701941E-01
  1.00000000E+00  1.00000000E+00  1.00000000E+00  0.00000000E+00  0.00000000E+00
  0.00000000E+00  0.00000000E+00  0.00000000E+00  0.00000000E+00  0.00000000E+00
  0.00000000E+00  3.65113974E-02  2.37152983E-01  8.19701941E-01  1.00000000E+00
  1.00000000E+00  1.00000000E+00  0.00000000E+00  0.00000000E+00  0.00000000E+00
  0.00000000E+00  0.00000000E+00  0.00000000E+00  0.00000000E+00  0.00000000E+00
  4.02486927E-02  2.37593957E-01  8.15853851E-01  1.00000000E+00  1.00000000E+00
  1.00000000E+00  0.00000000E+00  0.00000000E+00  0.00000000E+00  0.00000000E+00
  0.00000000E+00  0.00000000E+00  0.00000000E+00  0.00000000E+00  0.00000000E+00
  0.00000000E+00  0.00000000E+00  0.00000000E+00  0.00000000E+00  0.00000000E+00
  0.00000000E+00  0.00000000E+00  0.00000000E+00  0.00000000E+00  0.00000000E+00
  0.00000000E+00  0.00000000E+00  0.00000000E+00  0.00000000E+00  0.00000000E+00
  0.00000000E+00  0.00000000E+00
Coordinates of each shell                  R   N=         219
 -6.21444781E-01  3.77843723E+00 -9.57255791E-01 -6.21444781E-01  3.77843723E+00
 -9.57255791E-01 -6.21444781E-01  3.77843723E+00 -9.57255791E-01 -6.21444781E-01
  3.77843723E+00 -9.57255791E-01 -6.21444781E-01  3.77843723E+00 -9.57255791E-01
 -6.21444781E-01  3.77843723E+00 -9.57255791E-01 -9.65174252E-01  2.23362572E+00
 -1.86486858E+00 -9.65174252E-01  2.23362572E+00 -1.86486858E+00 -9.65174252E-01
  2.23362572E+00 -1.86486858E+00 -9.65174252E-01  2.23362572E+00 -1.86486858E+00
 -9.65174252E-01  2.23362572E+00 -1.86486858E+00 -9.65174252E-01  2.23362572E+00
 -1.86486858E+00 -9.65174252E-01  2.23362572E+00 -1.86486858E+00 -9.33945954E-01
 -1.30174111E-01  1.76343673E-01 -9.33945954E-01 -1.30174111E-01  1.76343673E-01
 -9.33945954E-01 -1.30174111E-01  1.76343673E-01 -9.33945954E-01 -1.30174111E-01
  1.76343673E-01 -9.33945954E-01 -1.30174111E-01  1.76343673E-01 -9.33945954E-01
 -1.30174111E-01  1.76343673E-01 -9.33945954E-01 -1.30174111E-01  1.76343673E-01
 -9.33945954E-01 -1.30174111E-01  1.76343673E-01 -9.33945954E-01 -1.30174111E-01
  1.76343673E-01 -9.33945954E-01 -1.30174111E-01  1.76343673E-01 -9.33945954E-01
 -1.30174111E-01  1.76343673E-01 -9.33945954E-01 -1.30174111E-01  1.76343673E-01
 -9.33945954E-01 -1.30174111E-01  1.76343673E-01 -9.33945954E-01 -1.30174111E-01
  1.76343673E-01  1.78009605E+00 -1.48097426E+00 -5.20698819E-01  1.78009605E+00
 -1.48097426E+00 -5.20698819E-01  1.78009605E+00 -1.48097426E+00 -5.20698819E-01
  1.78009605E+00 -1.48097426E+00 -5.20698819E-01  1.78009605E+00 -1.48097426E+00
 -5.20698819E-01  1.78009605E+00 -1.48097426E+00 -5.20698819E-01  1.78009605E+00
 -1.48097426E+00 -5.20698819E-01 -2.91316340E+00 -1.98975203E+00 -6.02869780E-01
 -2.91316340E+00 -1.98975203E+00 -6.02869780E-01 -2.91316340E+00 -1.98975203E+00
 -6.02869780E-01 -2.91316340E+00 -1.98975203E+00 -6.02869780E-01 -2.91316340E+00
 -1.98975203E+00 -6.02869780E-01 -2.91316340E+00 -1.98975203E+00 -6.02869780E-01
 -2.91316340E+00 -1.98975203E+00 -6.02869780E-01 -8.21006742E-01  9.82613827E-01
  2.78396354E+00 -8.21006742E-01  9.82613827E-01  2.78396354E+00 -8.21006742E-01
  9.82613827E-01  2.78396354E+00 -8.21006742E-01  9.82613827E-01  2.78396354E+00
 -8.21006742E-01  9.82613827E-01  2.78396354E+00 -8.21006742E-01  9.82613827E-01
  2.78396354E+00 -8.21006742E-01  9.82613827E-01  2.78396354E+00  4.01877679E+00
 -9.27960167E-02 -4.30554208E-02  4.01877679E+00 -9.27960167E-02 -4.30554208E-02
  4.01877679E+00 -9.27960167E-02 -4.30554208E-02  4.01877679E+00 -9.27960167E-02
 -4.30554208E-02  4.01877679E+00 -9.27960167E-02 -4.30554208E-02  4.01877679E+00
 -9.27960167E-02 -4.30554208E-02  4.01877679E+00 -9.27960167E-02 -4.30554208E-02
  4.04056112E+00  1.68026221E+00 -1.11849478E+00  4.04056112E+00  1.68026221E+00
 -1.11849478E+00  4.04056112E+00  1.68026221E+00 -1.11849478E+00  4.04056112E+00
  1.68026221E+00 -1.11849478E+00  4.04056112E+00  1.68026221E+00 -1.11849478E+00
  4.04056112E+00  1.68026221E+00 -1.11849478E+00  5.61413678E+00 -1.25714283E+00
 -6.46240885E-01  5.61413678E+00 -1.25714283E+00 -6.46240885E-01  5.61413678E+00
 -1.25714283E+00 -6.46240885E-01  5.61413678E+00 -1.25714283E+00 -6.46240885E-01
  5.61413678E+00 -1.25714283E+00 -6.46240885E-01  5.61413678E+00 -1.25714283E+00
 -6.46240885E-01  4.21726218E+00  3.43725099E-01  1.97095800E+00  4.21726218E+00
  3.43725099E-01  1.97095800E+00  4.21726218E+00  3.43725099E-01  1.97095800E+00
  4.21726218E+00  3.43725099E-01  1.97095800E+00  4.21726218E+00  3.43725099E-01
  1.97095800E+00  4.21726218E+00  3.43725099E-01  1.97095800E+00
Constraint Structure                       R   N=          30
 -6.21444781E-01  3.77843723E+00 -9.57255791E-01 -9.65174252E-01  2.23362572E+00
 -1.86486858E+00 -9.33945954E-01 -1.30174111E-01  1.76343673E-01  1.78009605E+00
 -1.48097426E+00 -5.20698819E-01 -2.91316340E+00 -1.98975203E+00 -6.02869780E-01
 -8.21006742E-01  9.82613827E-01  2.78396354E+00  4.01877679E+00 -9.27960167E-02
 -4.30554208E-02  4.04056112E+00  1.68026221E+00 -1.11849478E+00  5.61413678E+00
 -1.25714283E+00 -6.46240885E-01  4.21726218E+00  3.43725099E-01  1.97095800E+00
Num ILSW                                   I              100
ILSW                                       I   N=         100
           0           0           0           0           2           0
           0           0           0           0           0 20132659200
           0           0           0           0           0           0
           0           0           0           0           0           0
           1           0           0           0           0           0
           0           0      100000           0          -1           0
           0           0           0           0           0           0
           0           0           0           1           0           0
           0           0           1           0           0           0
           0           0           4          40           0           0
           0           0           0           0           0           0
           0           0           0           0           0           0
           0           0           0           0           0           0
           0           0           0           0           0           0
           0           0           0           0           0           0
           0           0           0           0           0           0
           0           0           0           0
Num RLSW                                   I               40
RLSW                                       R   N=          40
  1.00000000E+00  1.00000000E+00  1.00000000E+00  1.00000000E+00  1.00000000E+00
  0.00000000E+00  0.00000000E+00  1.00000000E+00  0.00000000E+00  0.00000000E+00
  0.00000000E+00  0.00000000E+00  1.00000000E+00  0.00000000E+00  0.00000000E+00
  0.00000000E+00  0.00000000E+00  1.00000000E+00  0.00000000E+00  0.00000000E+00
  0.00000000E+00  0.00000000E+00  1.00000000E+00  0.00000000E+00  0.00000000E+00
  0.00000000E+00  0.00000000E+00  1.00000000E+00  0.00000000E+00  0.00000000E+00
  0.00000000E+00  0.00000000E+00  0.00000000E+00  0.00000000E+00  0.00000000E+00
  0.00000000E+00  0.00000000E+00  0.00000000E+00  1.00000000E+00  1.00000000E+00
MxBond                                     I                4
NBond                                      I   N=          10
           1           2           4           2           1           1
           4           1           1           1
IBond                                      I   N=          40
           2           0           0           0           1           3
           0           0           2           4           5           6
           3           7           0           0           3           0
           0           0           3           0           0           0
           4           8           9          10           7           0
           0           0           7           0           0           0
           7           0           0           0
RBond                                      R   N=          40
  1.00000000E+00  0.00000000E+00  0.00000000E+00  0.00000000E+00  1.00000000E+00
  1.00000000E+00  0.00000000E+00  0.00000000E+00  1.00000000E+00  1.00000000E+00
  2.00000000E+00  2.00000000E+00  1.00000000E+00  1.00000000E+00  0.00000000E+00
  0.00000000E+00  2.00000000E+00  0.00000000E+00  0.00000000E+00  0.00000000E+00
  2.00000000E+00  0.00000000E+00  0.00000000E+00  0.00000000E+00  1.00000000E+00
  1.00000000E+00  1.00000000E+00  1.00000000E+00  1.00000000E+00  0.00000000E+00
  0.00000000E+00  0.00000000E+00  1.00000000E+00  0.00000000E+00  0.00000000E+00
  0.00000000E+00  1.00000000E+00  0.00000000E+00  0.00000000E+00  0.00000000E+00
Virial Ratio                               R      2.000859091688601E+00
SCF Energy                                 R     -6.806645312944567E+02
MP2 Energy                                 R     -6.818418167340311E+02
Total Energy                               R     -6.818418167340311E+02
Post-SCF wavefunction norm                 R      1.151871850799347E+00
RMS Density                                R      7.538236854933656E-09
External E-field                           R   N=          35
  0.00000000E+00  0.00000000E+00  0.00000000E+00  0.00000000E+00  0.00000000E+00
  0.00000000E+00  0.00000000E+00  0.00000000E+00  0.00000000E+00  0.00000000E+00
  0.00000000E+00  0.00000000E+00  0.00000000E+00  0.00000000E+00  0.00000000E+00
  0.00000000E+00  0.00000000E+00  0.00000000E+00  0.00000000E+00  0.00000000E+00
  0.00000000E+00  0.00000000E+00  0.00000000E+00  0.00000000E+00  0.00000000E+00
  0.00000000E+00  0.00000000E+00  0.00000000E+00  0.00000000E+00  0.00000000E+00
  0.00000000E+00  0.00000000E+00  0.00000000E+00  0.00000000E+00  0.00000000E+00
IOpCl                                      I                0
IROHF                                      I                0
Alpha Orbital Energies                     R   N=         210
 -7.98726811E+01 -2.04069337E+01 -2.04024779E+01 -2.03105231E+01 -2.02974901E+01
 -1.11388647E+01 -7.39250044E+00 -5.29192518E+00 -5.29117706E+00 -5.29012227E+00
 -1.23768281E+00 -1.18619475E+00 -1.10199912E+00 -1.06339434E+00 -7.92025495E-01
 -6.07577832E-01 -5.35469901E-01 -4.89463034E-01 -4.77659021E-01 -4.65884935E-01
 -4.07907540E-01 -3.85688097E-01 -3.50646174E-01 -3.36776798E-01 -3.10728942E-01
 -2.87458652E-01 -2.65844574E-01 -2.49833571E-01 -2.33746855E-01  1.36830116E-01
  1.62498100E-01  1.80516177E-01  1.85536101E-01  2.23619509E-01  2.34387537E-01
  2.36918860E-01  2.47845200E-01  2.71217482E-01  2.81323436E-01  2.94111025E-01
  3.04542245E-01  3.86742752E-01  4.03973244E-01  4.09298075E-01  4.24374679E-01
  4.34423780E-01  4.54714204E-01  4.62865144E-01  4.69693060E-01  4.72838072E-01
  4.81178801E-01  5.03392613E-01  5.04740739E-01  5.21234378E-01  5.37653586E-01
  5.42200988E-01  5.48114676E-01  5.53244678E-01  5.63047421E-01  5.70496087E-01
  5.91015521E-01  6.03023960E-01  6.26315320E-01  6.36779400E-01  6.70042646E-01
  6.85146148E-01  6.88075000E-01  7.08774726E-01  7.26129596E-01  7.61293669E-01
  7.86184353E-01  8.49159289E-01  8.60702969E-01  8.66217059E-01  8.93279908E-01
  9.06405335E-01  9.37421216E-01  9.47121479E-01  1.02828478E+00  1.06982792E+00
  1.10927152E+00  1.12289773E+00  1.13693584E+00  1.18122042E+00  1.21515809E+00
  1.25115613E+00  1.26927019E+00  1.30871997E+00  1.33883622E+00  1.36616702E+00
  1.37999269E+00  1.40723581E+00  1.42619009E+00  1.44940016E+00  1.48819610E+00
  1.50192559E+00  1.52630196E+00  1.55275058E+00  1.57203988E+00  1.61346365E+00
  1.61465269E+00  1.61981550E+00  1.64097386E+00  1.66072144E+00  1.66828847E+00
  1.68117248E+00  1.71032990E+00  1.74622599E+00  1.78732155E+00  1.80273044E+00
  1.81571326E+00  1.88741086E+00  1.91565694E+00  1.93202438E+00  1.95901216E+00
  1.99837497E+00  2.00249914E+00  2.02000884E+00  2.06113493E+00  2.07170806E+00
  2.11548344E+00  2.15425087E+00  2.17598898E+00  2.20740069E+00  2.24268153E+00
  2.26267056E+00  2.31014969E+00  2.37259353E+00  2.40245791E+00  2.46513039E+00
  2.49810237E+00  2.54189824E+00  2.55765944E+00  2.65449083E+00  2.67244573E+00
  2.71425087E+00  2.73456297E+00  2.86102400E+00  2.89315089E+00  2.99051571E+00
  3.04955869E+00  3.07286982E+00  3.12368247E+00  3.25100788E+00  3.33800012E+00
  3.35258724E+00  3.39643665E+00  3.51441351E+00  3.65420276E+00  3.72322515E+00
  3.83958483E+00  3.87320614E+00  3.93035420E+00  4.10417787E+00  4.14313548E+00
  4.19857236E+00  4.27799706E+00  4.33278499E+00  4.46485415E+00  4.48781085E+00
  4.48962197E+00  4.60639566E+00  4.61870760E+00  4.66780205E+00  4.73835760E+00
  4.90942148E+00  5.55271876E+00  5.57231612E+00  5.73300139E+00  5.76047118E+00
  5.77626266E+00  5.80468291E+00  5.83458596E+00  5.84120547E+00  5.84863364E+00
  5.91652642E+00  5.97696698E+00  6.05230141E+00  6.29813119E+00  6.50734251E+00
  7.51819759E+00  7.52573391E+00  7.54974560E+00  7.57102834E+00  7.58751480E+00
  7.59925858E+00  7.61534437E+00  7.65088582E+00  7.71036545E+00  7.74158664E+00
  7.75043014E+00  7.77740033E+00  7.85658749E+00  7.88194929E+00  7.97752125E+00
  8.03571541E+00  8.11475310E+00  8.14841026E+00  8.17604125E+00  8.25325709E+00
  8.38887940E+00  1.52289634E+01  1.53076479E+01  1.54275763E+01  2.52589452E+01
  5.18459421E+01  5.18591830E+01  5.18993302E+01  5.19262390E+01  1.66891772E+02
Alpha MO coefficients                      R   N=       44100
 -9.82872797E-06  6.29192215E-05 -1.54468943E-05  4.50240405E-05  6.39385658E-07
  2.96402491E-06 -1.25753048E-06 -5.59622802E-06 -3.46304533E-05 -2.77320476E-07
  7.49064437E-07 -1.74749023E-06 -1.38961894E-07 -1.86024361E-06  2.16998239E-06
  2.26500416E-05 -2.23816271E-07 -5.55329651E-07 -4.17238636E-06 -9.44463516E-05
 -5.74799146E-06  1.14473000E-05 -5.71819650E-05  9.53541654E-05  5.28792468E-06
 -2.27120953E-05  3.93368275E-05  2.34157303E-06  5.02135935E-07 -5.32229614E-06
 -4.46660515E-06  6.60477490E-07 -9.92403961E-06 -2.02896702E-06  2.60061269E-05
  2.17071498E-05 -2.81468102E-06  4.19275650E-01  6.46638414E-01  1.07745191E-02
 -1.13439561E-03  6.46259660E-04 -5.12591849E-04 -1.59661912E-04 -2.98608810E-05
 -3.84603494E-05 -6.38757575E-06  4.90328009E-05  2.29570963E-05 -4.24670729E-05
 -1.81709272E-05 -8.39695133E-06  1.38943520E-05  1.81454511E-05  8.29855462E-06
 -8.22425628E-06 -2.92003385E-05 -1.26710766E-05  1.02749180E-05 -2.73622161E-05
  1.58666446E-05  2.72156242E-05 -2.01950171E-07  1.12181683E-06  3.40723087E-06
  4.50357601E-07  4.78070363E-06  7.90233591E-06  8.10774850E-06  1.82921469E-05
 -8.77208849E-06  5.54775678E-06  7.52767442E-07 -1.65308528E-06 -2.30269865E-06
  1.57027135E-06  3.23585130E-07  2.26772672E-05  5.81075708E-07 -3.36318842E-06
  1.69986857E-07 -6.49183645E-05  5.45028425E-05 -2.81511385E-05 -1.90730041E-05
  1.33650660E-04 -7.53580164E-05  4.64430943E-05  2.75894428E-05 -2.95857006E-06
 -2.48418491E-06  2.19384829E-06  3.00908255E-06 -5.38072757E-06  1.51694585E-05
  1.20353670E-05 -9.78073017E-06 -1.51436621E-05  2.51670111E-05  5.61259275E-07
 -3.31166058E-07  4.02673893E-06  3.54453955E-06  1.33069957E-06  2.43309929E-05
 -1.52822290E-05 -1.37735597E-05 -5.66884166E-06 -1.03111406E-04 -5.81840476E-05
 -5.07428474E-05 -1.59451141E-05  1.38617044E-04  5.93789408E-05  5.54775942E-05
  1.46946315E-05 -1.67469445E-06  7.09777918E-07  7.99931557E-07  6.59573143E-07
  3.43680518E-06  1.75900834E-05 -1.20286783E-05 -1.14877738E-05 -4.17768144E-06
 -3.54290999E-05  5.03646995E-07 -7.44469520E-08 -4.34567024E-07 -2.48046775E-06
 -5.35953113E-06  2.15582050E-05  1.63167971E-06  9.30095787E-06  2.02841874E-05
 -8.68239123E-05  1.49543427E-06  2.52583686E-05  6.47841014E-05  9.45329028E-05
 -2.55249447E-06 -1.47521626E-05 -3.77981884E-05  3.51820481E-06 -1.20663994E-07
  2.52125704E-06 -9.90374238E-08  1.87274757E-07 -3.43702068E-05 -1.65613210E-06
 -2.66257796E-05  4.23443192E-06 -1.26769595E-06 -6.64160950E-07  1.78043865E-06
 -2.02730351E-07  2.22998107E-06  7.79118882E-07 -1.43825640E-05  9.90777599E-06
 -6.84538181E-06 -2.26260892E-06  2.82682352E-05 -2.73025857E-05  1.81534335E-05
  9.61531888E-06  5.03412548E-06 -1.53479262E-05 -1.20189239E-05 -2.81851407E-05
  2.16274647E-06 -7.06906593E-08  6.76182145E-07 -4.18155822E-06  6.84009425E-08
 -1.39071281E-05 -5.13099699E-06  1.38033499E-06  1.85634377E-05 -7.64108504E-06
  1.62345308E-06 -2.14121848E-06 -1.71961375E-05  3.38607187E-06  2.06855202E-07
 -2.32989303E-07  9.31955543E-07  4.85767835E-06 -3.02292904E-06 -3.09192326E-06
 -1.70552582E-06 -1.48673836E-05  3.25932414E-05 -1.83755103E-05  2.05548072E-06
  2.90786327E-07 -2.89071508E-07 -1.42082615E-06 -9.40179724E-06 -4.23476857E-06
  2.82166759E-06 -5.08700789E-06 -6.80517552E-06  6.72531865E-05 -8.96278556E-08
  3.20711955E-07 -6.30573074E-07  5.25451517E-06 -2.70722899E-06 -4.26555550E-07
  2.17396065E-04  7.43904405E-04 -2.57305710E-04  1.30162953E-04 -2.07934884E-05
 -1.11824682E-04 -5.39507229E-05 -5.99941681E-05 -2.53862769E-04 -1.49827329E-04
  5.51468451E-01  4.71643729E-01  3.35362221E-04  3.60639029E-04  1.35282844E-03
  5.75065347E-03 -1.45590538E-04 -2.73188782E-04 -5.16815748E-04 -1.88541745E-03