 Entering Gaussian System, Link 0=g09
 Input=MonoMethylPhosphate1H-opt.com
 Output=MonoMethylPhosphate1H-opt.log
 Initial command:
 /opt/g09gh/gaussian/g09/l1.exe /scratch/bdw2292/Gau-MonoMethylPhosphate1H/Gau-1686.inp -scrdir=/scratch/bdw2292/Gau-MonoMethylPhosphate1H/
 Entering Link 1 = /opt/g09gh/gaussian/g09/l1.exe PID=      1687.
  
 Copyright (c) 1988,1990,1992,1993,1995,1998,2003,2009, Gaussian, Inc.
                  All Rights Reserved.
  
 This is part of the Gaussian(R) 09 program.  It is based on
 the Gaussian(R) 03 system (copyright 2003, Gaussian, Inc.),
 the Gaussian(R) 98 system (copyright 1998, Gaussian, Inc.),
 the Gaussian(R) 94 system (copyright 1995, Gaussian, Inc.),
 the Gaussian 92(TM) system (copyright 1992, Gaussian, Inc.),
 the Gaussian 90(TM) system (copyright 1990, Gaussian, Inc.),
 the Gaussian 88(TM) system (copyright 1988, Gaussian, Inc.),
 the Gaussian 86(TM) system (copyright 1986, Carnegie Mellon
 University), and the Gaussian 82(TM) system (copyright 1983,
 Carnegie Mellon University). Gaussian is a federally registered
 trademark of Gaussian, Inc.
  
 This software contains proprietary and confidential information,
 including trade secrets, belonging to Gaussian, Inc.
  
 This software is provided under written license and may be
 used, copied, transmitted, or stored only in accord with that
 written license.
  
 The following legend is applicable only to US Government
 contracts under FAR:
  
                    RESTRICTED RIGHTS LEGEND
  
 Use, reproduction and disclosure by the US Government is
 subject to restrictions as set forth in subparagraphs (a)
 and (c) of the Commercial Computer Software - Restricted
 Rights clause in FAR 52.227-19.
  
 Gaussian, Inc.
 340 Quinnipiac St., Bldg. 40, Wallingford CT 06492
  
  
 ---------------------------------------------------------------
 Warning -- This program may not be used in any manner that
 competes with the business of Gaussian, Inc. or will provide
 assistance to any competitor of Gaussian, Inc.  The licensee
 of this program is prohibited from giving any competitor of
 Gaussian, Inc. access to this program.  By using this program,
 the user acknowledges that Gaussian, Inc. is engaged in the
 business of creating and licensing software in the field of
 computational chemistry and represents and warrants to the
 licensee that it is not a competitor of Gaussian, Inc. and that
 it will not use this program in any manner prohibited above.
 ---------------------------------------------------------------
  

 Cite this work as:
 Gaussian 09, Revision A.02,
 M. J. Frisch, G. W. Trucks, H. B. Schlegel, G. E. Scuseria, 
 M. A. Robb, J. R. Cheeseman, G. Scalmani, V. Barone, B. Mennucci, 
 G. A. Petersson, H. Nakatsuji, M. Caricato, X. Li, H. P. Hratchian, 
 A. F. Izmaylov, J. Bloino, G. Zheng, J. L. Sonnenberg, M. Hada, 
 M. Ehara, K. Toyota, R. Fukuda, J. Hasegawa, M. Ishida, T. Nakajima, 
 Y. Honda, O. Kitao, H. Nakai, T. Vreven, J. A. Montgomery, Jr., 
 J. E. Peralta, F. Ogliaro, M. Bearpark, J. J. Heyd, E. Brothers, 
 K. N. Kudin, V. N. Staroverov, R. Kobayashi, J. Normand, 
 K. Raghavachari, A. Rendell, J. C. Burant, S. S. Iyengar, J. Tomasi, 
 M. Cossi, N. Rega, J. M. Millam, M. Klene, J. E. Knox, J. B. Cross, 
 V. Bakken, C. Adamo, J. Jaramillo, R. Gomperts, R. E. Stratmann, 
 O. Yazyev, A. J. Austin, R. Cammi, C. Pomelli, J. W. Ochterski, 
 R. L. Martin, K. Morokuma, V. G. Zakrzewski, G. A. Voth, 
 P. Salvador, J. J. Dannenberg, S. Dapprich, A. D. Daniels, 
 O. Farkas, J. B. Foresman, J. V. Ortiz, J. Cioslowski, 
 and D. J. Fox, Gaussian, Inc., Wallingford CT, 2009.
 
 ******************************************
 Gaussian 09:  EM64L-G09RevA.02 11-Jun-2009
                 7-Apr-2020 
 ******************************************
 %RWF=/scratch/bdw2292/Gau-MonoMethylPhosphate1H/,150GB
 %Nosave
 %Chk=MonoMethylPhosphate1H-opt.chk
 %Mem=100GB
 %Nproc=4
 Will use up to    4 processors via shared memory.
 ----------------------------------------------------------------------
 #P opt=(maxcycle=400) wB97XD/6-31G* Guess=INDO MaxDisk=150GB SCRF=(PCM
 )
 ----------------------------------------------------------------------
 1/6=400,14=-1,18=20,19=15,26=3,38=1/1,3;
 2/9=110,12=2,17=6,18=5,40=1/2;
 3/5=1,6=6,7=1,11=2,16=1,25=1,30=1,70=2201,71=1,72=1,74=-58/1,2,3;
 4/5=4,11=3/1;
 5/5=2,38=5/2;
 6/7=2,8=2,9=2,10=2,28=1/1;
 7//1,2,3,16;
 1/6=400,14=-1,18=20,19=15/3(2);
 2/9=110/2;
 99//99;
 2/9=110/2;
 3/5=1,6=6,7=1,11=2,16=1,25=1,30=1,70=2205,71=1,74=-58/1,2,3;
 4/5=5,11=3,16=3/1;
 5/5=2,38=5/2;
 7//1,2,3,16;
 1/6=400,14=-1,18=20,19=15/3(-5);
 2/9=110/2;
 6/7=2,8=2,9=2,10=2,19=2,28=1/1;
 99/9=1/99;
 Leave Link    1 at Tue Apr  7 09:41:01 2020, MaxMem=13421772800 cpu:       0.2
 (Enter /opt/g09gh/gaussian/g09/l101.exe)
 ----------------------------------------------------------------------
 MonoMethylPhosphate1H Gaussian OPT Calculation on node37.bme.utexas.ed
 u
 ----------------------------------------------------------------------
 Symbolic Z-matrix:
 Charge = -1 Multiplicity = 1
 H                    -0.2776    1.2173   -1.4182 
 O                     0.4879    1.2229   -0.8389 
 P                     0.5142    0.0004   -0.0596 
 O                    -0.9195   -0.004     0.7615 
 O                     1.562    -0.0055    1.0494 
 O                     0.4866   -1.2776   -0.893 
 C                    -2.1299   -0.0001    0.0215 
 H                    -2.1886    0.8984   -0.5977 
 H                    -2.9678   -0.0039    0.7228 
 H                    -2.1885   -0.892    -0.6074 
 
 NAtoms=     10 NQM=     10 NQMF=      0 NMic=      0 NMicF=      0 NTot=     10.
                    Isotopes and Nuclear Properties:
 (Nuclear quadrupole moments (NQMom) in fm**2, nuclear magnetic moments (NMagM)
  in nuclear magnetons)

  Atom         1           2           3           4           5           6           7           8           9          10
 IAtWgt=           1          16          31          16          16          16          12           1           1           1
 AtmWgt=   1.0078250  15.9949146  30.9737634  15.9949146  15.9949146  15.9949146  12.0000000   1.0078250   1.0078250   1.0078250
 NucSpn=           1           0           1           0           0           0           0           1           1           1
 AtZEff=   0.0000000   0.0000000   0.0000000   0.0000000   0.0000000   0.0000000   0.0000000   0.0000000   0.0000000   0.0000000
 NQMom=    0.0000000   0.0000000   0.0000000   0.0000000   0.0000000   0.0000000   0.0000000   0.0000000   0.0000000   0.0000000
 NMagM=    2.7928460   0.0000000   1.1316000   0.0000000   0.0000000   0.0000000   0.0000000   2.7928460   2.7928460   2.7928460
 Leave Link  101 at Tue Apr  7 09:41:01 2020, MaxMem=13421772800 cpu:       0.3
 (Enter /opt/g09gh/gaussian/g09/l103.exe)

 GradGradGradGradGradGradGradGradGradGradGradGradGradGradGradGradGradGrad
 Berny optimization.
 Initialization pass.
                           ----------------------------
                           !    Initial Parameters    !
                           ! (Angstroms and Degrees)  !
 --------------------------                            --------------------------
 ! Name  Definition              Value          Derivative Info.                !
 --------------------------------------------------------------------------------
 ! R1    R(1,2)                  0.96           estimate D2E/DX2                !
 ! R2    R(2,3)                  1.45           estimate D2E/DX2                !
 ! R3    R(3,4)                  1.6522         estimate D2E/DX2                !
 ! R4    R(3,5)                  1.5257         estimate D2E/DX2                !
 ! R5    R(3,6)                  1.526          estimate D2E/DX2                !
 ! R6    R(4,7)                  1.4187         estimate D2E/DX2                !
 ! R7    R(7,8)                  1.0928         estimate D2E/DX2                !
 ! R8    R(7,9)                  1.0927         estimate D2E/DX2                !
 ! R9    R(7,10)                 1.0929         estimate D2E/DX2                !
 ! A1    A(1,2,3)              109.5032         estimate D2E/DX2                !
 ! A2    A(2,3,4)              104.691          estimate D2E/DX2                !
 ! A3    A(2,3,5)              113.9772         estimate D2E/DX2                !
 ! A4    A(2,3,6)              114.3459         estimate D2E/DX2                !
 ! A5    A(4,3,5)              103.5735         estimate D2E/DX2                !
 ! A6    A(4,3,6)              104.6844         estimate D2E/DX2                !
 ! A7    A(5,3,6)              113.9638         estimate D2E/DX2                !
 ! A8    A(3,4,7)              118.7586         estimate D2E/DX2                !
 ! A9    A(4,7,8)              110.0994         estimate D2E/DX2                !
 ! A10   A(4,7,9)              108.6305         estimate D2E/DX2                !
 ! A11   A(4,7,10)             110.0998         estimate D2E/DX2                !
 ! A12   A(8,7,9)              108.9865         estimate D2E/DX2                !
 ! A13   A(8,7,10)             110.0023         estimate D2E/DX2                !
 ! A14   A(9,7,10)             108.9885         estimate D2E/DX2                !
 ! D1    D(1,2,3,4)            -58.4767         estimate D2E/DX2                !
 ! D2    D(1,2,3,5)           -170.9431         estimate D2E/DX2                !
 ! D3    D(1,2,3,6)             55.4942         estimate D2E/DX2                !
 ! D4    D(2,3,4,7)             60.3002         estimate D2E/DX2                !
 ! D5    D(5,3,4,7)           -179.9986         estimate D2E/DX2                !
 ! D6    D(6,3,4,7)            -60.3152         estimate D2E/DX2                !
 ! D7    D(3,4,7,8)            -60.7299         estimate D2E/DX2                !
 ! D8    D(3,4,7,9)            179.9971         estimate D2E/DX2                !
 ! D9    D(3,4,7,10)            60.7215         estimate D2E/DX2                !
 --------------------------------------------------------------------------------
 Trust Radius=3.00D-01 FncErr=1.00D-07 GrdErr=1.00D-06
 Number of steps in this run= 100 maximum allowed number of steps= 100.
 GradGradGradGradGradGradGradGradGradGradGradGradGradGradGradGradGradGrad

 Leave Link  103 at Tue Apr  7 09:41:01 2020, MaxMem=13421772800 cpu:       0.0
 (Enter /opt/g09gh/gaussian/g09/l202.exe)
                          Input orientation:                          
 ---------------------------------------------------------------------
 Center     Atomic      Atomic             Coordinates (Angstroms)
 Number     Number       Type             X           Y           Z
 ---------------------------------------------------------------------
      1          1           0       -0.277600    1.217300   -1.418200
      2          8           0        0.487900    1.222900   -0.838900
      3         15           0        0.514200    0.000400   -0.059600
      4          8           0       -0.919500   -0.004000    0.761500
      5          8           0        1.562000   -0.005500    1.049400
      6          8           0        0.486600   -1.277600   -0.893000
      7          6           0       -2.129900   -0.000100    0.021500
      8          1           0       -2.188600    0.898400   -0.597700
      9          1           0       -2.967800   -0.003900    0.722800
     10          1           0       -2.188500   -0.892000   -0.607400
 ---------------------------------------------------------------------
                    Distance matrix (angstroms):
                    1          2          3          4          5
     1  H    0.000000
     2  O    0.960005   0.000000
     3  P    1.988363   1.450002   0.000000
     4  O    2.579671   2.459134   1.652187   0.000000
     5  O    3.311860   2.495663   1.525713   2.498145   0.000000
     6  O    2.661647   2.501086   1.525976   2.517249   2.558836
     7  C    2.643069   3.014779   2.645344   1.418691   3.832327
     8  H    2.104005   2.706867   2.898462   2.066970   4.194875
     9  H    3.648614   3.985700   3.568822   2.048666   4.541559
    10  H    2.959406   3.418993   2.898456   2.067073   4.194892
                    6          7          8          9         10
     6  O    0.000000
     7  C    3.051948   0.000000
     8  H    3.461051   1.092775   0.000000
     9  H    4.020697   1.092663   1.779050   0.000000
    10  H    2.717796   1.092902   1.790426   1.779175   0.000000
 Stoichiometry    CH4O4P(1-)
 Framework group  C1[X(CH4O4P)]
 Deg. of freedom    24
 Full point group                 C1      NOp   1
 Largest Abelian subgroup         C1      NOp   1
 Largest concise Abelian subgroup C1      NOp   1
                         Standard orientation:                         
 ---------------------------------------------------------------------
 Center     Atomic      Atomic             Coordinates (Angstroms)
 Number     Number       Type             X           Y           Z
 ---------------------------------------------------------------------
      1          1           0        0.320937    1.817920   -0.186034
      2          8           0       -0.454885    1.364720   -0.524147
      3         15           0       -0.509449    0.023533    0.024258
      4          8           0        0.908894   -0.680179   -0.447772
      5          8           0       -1.577297   -0.862648   -0.609922
      6          8           0       -0.481355   -0.034314    1.548878
      7          6           0        2.132552   -0.099887   -0.025155
      8          1           0        2.212863    0.922907   -0.401453
      9          1           0        2.957424   -0.692627   -0.427842
     10          1           0        2.192349   -0.102508    1.066106
 ---------------------------------------------------------------------
 Rotational constants (GHZ):      4.7067883      2.6067796      2.5918731
 Leave Link  202 at Tue Apr  7 09:41:01 2020, MaxMem=13421772800 cpu:       0.0
 (Enter /opt/g09gh/gaussian/g09/l301.exe)
 Standard basis: 6-31G(d) (6D, 7F)
 Ernie: Thresh=  0.10000D-02 Tol=  0.10000D-05 Strict=F.
 There are   102 symmetry adapted basis functions of A   symmetry.
 Integral buffers will be    131072 words long.
 Raffenetti 2 integral format.
 Two-electron integral symmetry is turned on.
   102 basis functions,   208 primitive gaussians,   102 cartesian basis functions
    29 alpha electrons       29 beta electrons
       nuclear repulsion energy       354.6846027789 Hartrees.
 IExCor= 4639 DFT=T Ex+Corr=wB97XD ExCW=0 ScaHFX=  1.000000
 ScaDFX=  1.000000  1.000000  1.000000  1.000000 ScalE2=  1.000000  1.000000
 IRadAn=      0 IRanWt=     -1 IRanGd=            0 ICorTp=0
  HFx wShort=  0.000000 wLong=  0.200000 cFull=  0.222036 cShort=  0.000000 cLong=  0.777964
  DFx wShort=  0.000000 wLong=  0.200000 cFull=  0.000000 cShort=  0.000000 cLong=  1.000000
 NAtoms=   10 NActive=   10 NUniq=   10 SFac= 7.50D-01 NAtFMM=   80 NAOKFM=F Big=F
 R6Disp: Dispersion energy =        -0.0032201227 Hartrees.
 Nuclear repulsion after empirical dispersion term =      354.6813826562 Hartrees.
 ------------------------------------------------------------------------------
 Polarizable Continuum Model (PCM)
 =================================
 Model                : PCM.
 Atomic radii         : UFF (Universal Force Field).
 Polarization charges : Total charges.
 Charge compensation  : None.
 Solution method      : Matrix inversion.
 Cavity type          : Scaled VdW (van der Waals Surface) (Alpha=1.100).
 Cavity algorithm     : GePol (No added spheres)
                        Default sphere list used, NSphG=   10.
                        Lebedev-Laikov grids with approx.  5.0 points / Ang**2.
                        Smoothing algorithm: Karplus/York (Gamma=1.0000).
                        Polarization charges: spherical gaussians, with
                                              point-specific exponents (IZeta= 3).
                        Self-potential: point-specific (ISelfS= 7).
                        Self-field    : sphere-specific E.n sum rule (ISelfD= 2).
 1st derivatives      : Analytical E(r).r(x)/FMM algorithm (CHGder, D1EAlg=3).
                        Cavity 1st derivative terms included.
 Solvent              : Water, Eps=  78.355300 Eps(inf)=   1.777849
 ------------------------------------------------------------------------------
 Spheres list:
 ISph  on   Nord    Re0     Alpha      Xe            Ye            Ze
    1   H      1    1.443   1.100      0.320937      1.817920     -0.186034
    2   O      2    1.750   1.100     -0.454885      1.364720     -0.524147
    3   P      3    2.074   1.100     -0.509449      0.023533      0.024258
    4   O      4    1.750   1.100      0.908894     -0.680179     -0.447772
    5   O      5    1.750   1.100     -1.577297     -0.862648     -0.609922
    6   O      6    1.750   1.100     -0.481355     -0.034314      1.548878
    7   C      7    1.926   1.100      2.132552     -0.099887     -0.025155
    8   H      8    1.443   1.100      2.212863      0.922907     -0.401453
    9   H      9    1.443   1.100      2.957424     -0.692627     -0.427842
   10   H     10    1.443   1.100      2.192349     -0.102508      1.066106
 ------------------------------------------------------------------------------
 GePol: Number of generator spheres                  =      10
 GePol: Total number of spheres                      =      10
 GePol: Number of exposed spheres                    =      10 (100.00%)
 GePol: Number of points                             =    1076
 GePol: Average weight of points                     =       0.13
 GePol: Minimum weight of points                     =   0.27D-07
 GePol: Maximum weight of points                     =    0.20322
 GePol: Number of points with low weight             =      48
 GePol: Fraction of low-weight points (<1% of avg)   =       4.46%
 GePol: Cavity surface area                          =    140.406 Ang**2
 GePol: Cavity volume                                =    128.574 Ang**3
 Leave Link  301 at Tue Apr  7 09:41:01 2020, MaxMem=13421772800 cpu:       0.3
 (Enter /opt/g09gh/gaussian/g09/l302.exe)
 NPDir=0 NMtPBC=     1 NCelOv=     1 NCel=       1 NClECP=     1 NCelD=      1
         NCelK=      1 NCelE2=     1 NClLst=     1 CellRange=     0.0.
 One-electron integrals computed using PRISM.
 NBasis=   102 RedAO= T  NBF=   102
 NBsUse=   102 1.00D-06 NBFU=   102
 Precomputing XC quadrature grid using
 IXCGrd= 2 IRadAn=           0 IRanWt=          -1 IRanGd=           0 AccXCQ= 1.00D-10.
 NRdTot=     624 NPtTot=       79244 NUsed=       83755 NTot=       83787
 NSgBfM=   102   102   102   102   102 NAtAll=    10    10.
 Leave Link  302 at Tue Apr  7 09:41:02 2020, MaxMem=13421772800 cpu:       0.6
 (Enter /opt/g09gh/gaussian/g09/l303.exe)
 DipDrv:  MaxL=1.
 Leave Link  303 at Tue Apr  7 09:41:02 2020, MaxMem=13421772800 cpu:       0.1
 (Enter /opt/g09gh/gaussian/g09/l401.exe)
 Projected New-EHT guess.
 Enter ItEHT:  IZDO=4 IZDPar=0 Conv= 1.00D-06 N=   28
 It=   1                  EEH= -63.1036390413     EQH= 0.000000000000E+00 EH= -63.1036390413    
 Initial guess orbital symmetries:
       Occupied  (A) (A) (A) (A) (A) (A) (A) (A) (A) (A) (A) (A)
                 (A) (A) (A) (A) (A) (A) (A) (A) (A) (A) (A) (A)
                 (A) (A) (A) (A) (A)
       Virtual   (A) (A) (A) (A) (A) (A) (A) (A) (A) (A) (A) (A)
                 (A) (A) (A) (A) (A) (A) (A) (A) (A) (A) (A) (A)
                 (A) (A) (A) (A) (A) (A) (A) (A) (A) (A) (A) (A)
                 (A) (A) (A) (A) (A) (A) (A) (A) (A) (A) (A) (A)
                 (A) (A) (A) (A) (A) (A) (A) (A) (A) (A) (A) (A)
                 (A) (A) (A) (A) (A) (A) (A) (A) (A) (A) (A) (A)
                 (A)
 The electronic state of the initial guess is 1-A.
 Leave Link  401 at Tue Apr  7 09:41:02 2020, MaxMem=13421772800 cpu:       0.3
 (Enter /opt/g09gh/gaussian/g09/l502.exe)
 Closed shell SCF:
 Requested convergence on RMS density matrix=1.00D-08 within 128 cycles.
 Requested convergence on MAX density matrix=1.00D-06.
 Requested convergence on             energy=1.00D-06.
 No special actions if energy rises.
 Using DIIS extrapolation, IDIIS=  1040.
 Integral symmetry usage will be decided dynamically.
        83652 words used for storage of precomputed grid.
 IEnd=      134389 IEndB=      134389 NGot= 13421772800 MDV= 13421665558
 LenX= 13421665558 LenY= 13421654713
 Fock matrices will be formed incrementally for  20 cycles.

 Cycle   1  Pass 1  IDiag  1:
 FoFJK:  IHMeth= 1 ICntrl=     0 DoSepK=T KAlg= 1 I1Cent= 0 FoldK=F
 FoFCou: FMM=F IPFlag=           0 FMFlag=      100000 FMFlg1=           0
         NFxFlg=           0 DoJE=T BraDBF=F KetDBF=F FulRan=T
         Omega=  0.000000  0.000000  1.000000  0.000000  0.000000 ICntrl=     500 IOpCl=  0
         NMat0=    1 NMatS0=    1 NMatT0=    0 NMatD0=    1 NMtDS0=    0 NMtDT0=    0
         I1Cent=           0 NGrid=           0.
 Symmetry not used in FoFCou.
 E= -679.016727784134    
 DIIS: error= 2.31D-01 at cycle   1 NSaved=   1.
 NSaved= 1 IEnMin= 1 EnMin= -679.016727784134     IErMin= 1 ErrMin= 2.31D-01
 ErrMax= 2.31D-01 EMaxC= 1.00D-01 BMatC= 1.17D+01 BMatP= 1.17D+01
 IDIUse=3 WtCom= 0.00D+00 WtEn= 1.00D+00
 Coeff-Com:  0.100D+01
 Coeff-En:   0.100D+01
 Coeff:      0.100D+01
 Gap=     0.657 Goal=   None    Shift=    0.000
 GapD=    0.657 DampG=2.000 DampE=0.250 DampFc=0.5000 IDamp=-1.
 Damping current iteration by 5.00D-01
 RMSDP=2.54D-02 MaxDP=4.62D-01              OVMax= 4.93D-01

 Cycle   2  Pass 1  IDiag  1:
 RMSU=  8.59D-03    CP:  9.16D-01
 FoFJK:  IHMeth= 1 ICntrl=     0 DoSepK=T KAlg= 1 I1Cent= 0 FoldK=F
 E= -680.818149415105     Delta-E=       -1.801421630971 Rises=F Damp=T
 DIIS: error= 1.17D-01 at cycle   2 NSaved=   2.
 NSaved= 2 IEnMin= 2 EnMin= -680.818149415105     IErMin= 2 ErrMin= 1.17D-01
 ErrMax= 1.17D-01 EMaxC= 1.00D-01 BMatC= 2.60D+00 BMatP= 1.17D+01
 IDIUse=3 WtCom= 0.00D+00 WtEn= 1.00D+00
 Coeff-Com: -0.563D+00 0.156D+01
 Coeff-En:   0.000D+00 0.100D+01
 Coeff:      0.000D+00 0.100D+01
 Gap=     0.430 Goal=   None    Shift=    0.000
 RMSDP=9.18D-03 MaxDP=2.09D-01 DE=-1.80D+00 OVMax= 2.63D-01

 Cycle   3  Pass 1  IDiag  1:
 RMSU=  6.12D-03    CP:  8.67D-01  1.17D+00
 FoFJK:  IHMeth= 1 ICntrl=     0 DoSepK=T KAlg= 1 I1Cent= 0 FoldK=F
 E= -682.788970271700     Delta-E=       -1.970820856594 Rises=F Damp=F
 DIIS: error= 1.53D-02 at cycle   3 NSaved=   3.
 NSaved= 3 IEnMin= 3 EnMin= -682.788970271700     IErMin= 3 ErrMin= 1.53D-02
 ErrMax= 1.53D-02 EMaxC= 1.00D-01 BMatC= 6.02D-02 BMatP= 2.60D+00
 IDIUse=3 WtCom= 8.47D-01 WtEn= 1.53D-01
 Coeff-Com: -0.995D-01 0.218D+00 0.881D+00
 Coeff-En:   0.000D+00 0.000D+00 0.100D+01
 Coeff:     -0.842D-01 0.185D+00 0.899D+00
 Gap=     0.480 Goal=   None    Shift=    0.000
 RMSDP=3.29D-03 MaxDP=1.13D-01 DE=-1.97D+00 OVMax= 6.29D-02

 Cycle   4  Pass 1  IDiag  1:
 RMSU=  1.72D-03    CP:  8.72D-01  1.31D+00  8.32D-01
 FoFJK:  IHMeth= 1 ICntrl=     0 DoSepK=T KAlg= 1 I1Cent= 0 FoldK=F
 E= -682.816954135373     Delta-E=       -0.027983863674 Rises=F Damp=F
 DIIS: error= 8.75D-03 at cycle   4 NSaved=   4.
 NSaved= 4 IEnMin= 4 EnMin= -682.816954135373     IErMin= 4 ErrMin= 8.75D-03
 ErrMax= 8.75D-03 EMaxC= 1.00D-01 BMatC= 2.40D-02 BMatP= 6.02D-02
 IDIUse=3 WtCom= 9.13D-01 WtEn= 8.75D-02
 Coeff-Com: -0.275D-01 0.541D-01 0.411D+00 0.563D+00
 Coeff-En:   0.000D+00 0.000D+00 0.224D+00 0.776D+00
 Coeff:     -0.251D-01 0.493D-01 0.395D+00 0.581D+00
 Gap=     0.440 Goal=   None    Shift=    0.000
 RMSDP=1.15D-03 MaxDP=2.86D-02 DE=-2.80D-02 OVMax= 2.35D-02

 Cycle   5  Pass 1  IDiag  1:
 RMSU=  5.74D-04    CP:  8.70D-01  1.29D+00  8.88D-01  7.49D-01
 FoFJK:  IHMeth= 1 ICntrl=     0 DoSepK=T KAlg= 1 I1Cent= 0 FoldK=F
 E= -682.832743239861     Delta-E=       -0.015789104487 Rises=F Damp=F
 DIIS: error= 1.95D-03 at cycle   5 NSaved=   5.
 NSaved= 5 IEnMin= 5 EnMin= -682.832743239861     IErMin= 5 ErrMin= 1.95D-03
 ErrMax= 1.95D-03 EMaxC= 1.00D-01 BMatC= 1.15D-03 BMatP= 2.40D-02
 IDIUse=3 WtCom= 9.80D-01 WtEn= 1.95D-02
 Coeff-Com:  0.504D-02-0.123D-01 0.196D-01 0.192D+00 0.796D+00
 Coeff-En:   0.000D+00 0.000D+00 0.000D+00 0.000D+00 0.100D+01
 Coeff:      0.495D-02-0.121D-01 0.192D-01 0.188D+00 0.800D+00
 Gap=     0.435 Goal=   None    Shift=    0.000
 RMSDP=2.62D-04 MaxDP=5.73D-03 DE=-1.58D-02 OVMax= 5.02D-03

 Cycle   6  Pass 1  IDiag  1:
 RMSU=  1.28D-04    CP:  8.70D-01  1.30D+00  8.88D-01  8.06D-01  8.51D-01
 FoFJK:  IHMeth= 1 ICntrl=     0 DoSepK=T KAlg= 1 I1Cent= 0 FoldK=F
 E= -682.833553157713     Delta-E=       -0.000809917852 Rises=F Damp=F
 DIIS: error= 3.84D-04 at cycle   6 NSaved=   6.
 NSaved= 6 IEnMin= 6 EnMin= -682.833553157713     IErMin= 6 ErrMin= 3.84D-04
 ErrMax= 3.84D-04 EMaxC= 1.00D-01 BMatC= 3.95D-05 BMatP= 1.15D-03
 IDIUse=3 WtCom= 9.96D-01 WtEn= 3.84D-03
 Coeff-Com:  0.336D-02-0.731D-02-0.464D-02 0.389D-01 0.242D+00 0.728D+00
 Coeff-En:   0.000D+00 0.000D+00 0.000D+00 0.000D+00 0.000D+00 0.100D+01
 Coeff:      0.335D-02-0.728D-02-0.462D-02 0.387D-01 0.241D+00 0.729D+00
 Gap=     0.435 Goal=   None    Shift=    0.000
 RMSDP=6.75D-05 MaxDP=1.50D-03 DE=-8.10D-04 OVMax= 1.35D-03

 Cycle   7  Pass 1  IDiag  1:
 RMSU=  3.71D-05    CP:  8.70D-01  1.30D+00  8.90D-01  8.14D-01  8.92D-01
                    CP:  1.07D+00
 FoFJK:  IHMeth= 1 ICntrl=     0 DoSepK=T KAlg= 1 I1Cent= 0 FoldK=F
 E= -682.833582605764     Delta-E=       -0.000029448051 Rises=F Damp=F
 DIIS: error= 1.92D-04 at cycle   7 NSaved=   7.
 NSaved= 7 IEnMin= 7 EnMin= -682.833582605764     IErMin= 7 ErrMin= 1.92D-04
 ErrMax= 1.92D-04 EMaxC= 1.00D-01 BMatC= 9.09D-06 BMatP= 3.95D-05
 IDIUse=3 WtCom= 9.98D-01 WtEn= 1.92D-03
 Coeff-Com:  0.969D-03-0.177D-02-0.506D-02-0.207D-01-0.509D-01 0.321D+00
 Coeff-Com:  0.756D+00
 Coeff-En:   0.000D+00 0.000D+00 0.000D+00 0.000D+00 0.000D+00 0.000D+00
 Coeff-En:   0.100D+01
 Coeff:      0.967D-03-0.176D-02-0.505D-02-0.207D-01-0.508D-01 0.321D+00
 Coeff:      0.757D+00
 Gap=     0.436 Goal=   None    Shift=    0.000
 RMSDP=3.31D-05 MaxDP=5.43D-04 DE=-2.94D-05 OVMax= 5.42D-04

 Cycle   8  Pass 1  IDiag  1:
 RMSU=  1.12D-05    CP:  8.70D-01  1.30D+00  8.91D-01  8.20D-01  9.06D-01
                    CP:  1.18D+00  8.77D-01
 FoFJK:  IHMeth= 1 ICntrl=     0 DoSepK=T KAlg= 1 I1Cent= 0 FoldK=F
 E= -682.833590293905     Delta-E=       -0.000007688141 Rises=F Damp=F
 DIIS: error= 3.99D-05 at cycle   8 NSaved=   8.
 NSaved= 8 IEnMin= 8 EnMin= -682.833590293905     IErMin= 8 ErrMin= 3.99D-05
 ErrMax= 3.99D-05 EMaxC= 1.00D-01 BMatC= 2.14D-07 BMatP= 9.09D-06
 IDIUse=1 WtCom= 1.00D+00 WtEn= 0.00D+00
 Coeff-Com:  0.116D-03-0.181D-03-0.586D-03-0.710D-02-0.259D-01 0.506D-01
 Coeff-Com:  0.197D+00 0.786D+00
 Coeff:      0.116D-03-0.181D-03-0.586D-03-0.710D-02-0.259D-01 0.506D-01
 Coeff:      0.197D+00 0.786D+00
 Gap=     0.436 Goal=   None    Shift=    0.000
 RMSDP=7.52D-06 MaxDP=1.17D-04 DE=-7.69D-06 OVMax= 1.36D-04

 Cycle   9  Pass 1  IDiag  1:
 RMSU=  3.18D-06    CP:  8.70D-01  1.30D+00  8.91D-01  8.20D-01  9.09D-01
                    CP:  1.21D+00  9.31D-01  1.06D+00
 FoFJK:  IHMeth= 1 ICntrl=     0 DoSepK=T KAlg= 1 I1Cent= 0 FoldK=F
 E= -682.833590550767     Delta-E=       -0.000000256861 Rises=F Damp=F
 DIIS: error= 1.10D-05 at cycle   9 NSaved=   9.
 NSaved= 9 IEnMin= 9 EnMin= -682.833590550767     IErMin= 9 ErrMin= 1.10D-05
 ErrMax= 1.10D-05 EMaxC= 1.00D-01 BMatC= 1.85D-08 BMatP= 2.14D-07
 IDIUse=1 WtCom= 1.00D+00 WtEn= 0.00D+00
 Coeff-Com: -0.888D-04 0.167D-03 0.424D-03 0.552D-03-0.125D-02-0.238D-01
 Coeff-Com: -0.395D-01 0.184D+00 0.880D+00
 Coeff:     -0.888D-04 0.167D-03 0.424D-03 0.552D-03-0.125D-02-0.238D-01
 Coeff:     -0.395D-01 0.184D+00 0.880D+00
 Gap=     0.436 Goal=   None    Shift=    0.000
 RMSDP=3.17D-06 MaxDP=6.12D-05 DE=-2.57D-07 OVMax= 6.11D-05

 Cycle  10  Pass 1  IDiag  1:
 RMSU=  9.61D-07    CP:  8.70D-01  1.30D+00  8.91D-01  8.20D-01  9.09D-01
                    CP:  1.21D+00  9.49D-01  1.18D+00  1.11D+00
 FoFJK:  IHMeth= 1 ICntrl=     0 DoSepK=T KAlg= 1 I1Cent= 0 FoldK=F
 E= -682.833590576498     Delta-E=       -0.000000025731 Rises=F Damp=F
 DIIS: error= 3.59D-06 at cycle  10 NSaved=  10.
 NSaved=10 IEnMin=10 EnMin= -682.833590576498     IErMin=10 ErrMin= 3.59D-06
 ErrMax= 3.59D-06 EMaxC= 1.00D-01 BMatC= 3.29D-09 BMatP= 1.85D-08
 IDIUse=1 WtCom= 1.00D+00 WtEn= 0.00D+00
 Coeff-Com: -0.475D-04 0.884D-04 0.175D-03 0.653D-03 0.101D-02-0.124D-01
 Coeff-Com: -0.275D-01 0.324D-01 0.352D+00 0.654D+00
 Coeff:     -0.475D-04 0.884D-04 0.175D-03 0.653D-03 0.101D-02-0.124D-01
 Coeff:     -0.275D-01 0.324D-01 0.352D+00 0.654D+00
 Gap=     0.436 Goal=   None    Shift=    0.000
 RMSDP=7.61D-07 MaxDP=1.55D-05 DE=-2.57D-08 OVMax= 2.05D-05

 Cycle  11  Pass 1  IDiag  1:
 RMSU=  3.43D-07    CP:  8.70D-01  1.30D+00  8.91D-01  8.20D-01  9.09D-01
                    CP:  1.21D+00  9.52D-01  1.20D+00  1.18D+00  9.58D-01
 FoFJK:  IHMeth= 1 ICntrl=     0 DoSepK=T KAlg= 1 I1Cent= 0 FoldK=F
 E= -682.833590579294     Delta-E=       -0.000000002796 Rises=F Damp=F
 DIIS: error= 1.71D-06 at cycle  11 NSaved=  11.
 NSaved=11 IEnMin=11 EnMin= -682.833590579294     IErMin=11 ErrMin= 1.71D-06
 ErrMax= 1.71D-06 EMaxC= 1.00D-01 BMatC= 5.01D-10 BMatP= 3.29D-09
 IDIUse=1 WtCom= 1.00D+00 WtEn= 0.00D+00
 Coeff-Com: -0.895D-05 0.172D-04-0.118D-05 0.197D-03 0.612D-03-0.139D-02
 Coeff-Com: -0.513D-02-0.120D-01 0.540D-02 0.257D+00 0.755D+00
 Coeff:     -0.895D-05 0.172D-04-0.118D-05 0.197D-03 0.612D-03-0.139D-02
 Coeff:     -0.513D-02-0.120D-01 0.540D-02 0.257D+00 0.755D+00
 Gap=     0.436 Goal=   None    Shift=    0.000
 RMSDP=3.78D-07 MaxDP=8.86D-06 DE=-2.80D-09 OVMax= 8.91D-06

 Cycle  12  Pass 1  IDiag  1:
 RMSU=  1.20D-07    CP:  8.70D-01  1.30D+00  8.91D-01  8.20D-01  9.09D-01
                    CP:  1.21D+00  9.53D-01  1.21D+00  1.21D+00  1.11D+00
                    CP:  1.02D+00
 FoFJK:  IHMeth= 1 ICntrl=     0 DoSepK=T KAlg= 1 I1Cent= 0 FoldK=F
 E= -682.833590579789     Delta-E=       -0.000000000495 Rises=F Damp=F
 DIIS: error= 3.94D-07 at cycle  12 NSaved=  12.
 NSaved=12 IEnMin=12 EnMin= -682.833590579789     IErMin=12 ErrMin= 3.94D-07
 ErrMax= 3.94D-07 EMaxC= 1.00D-01 BMatC= 4.47D-11 BMatP= 5.01D-10
 IDIUse=1 WtCom= 1.00D+00 WtEn= 0.00D+00
 Coeff-Com:  0.160D-05-0.254D-05-0.210D-04-0.134D-04 0.644D-04 0.994D-03
 Coeff-Com:  0.157D-02-0.754D-02-0.414D-01-0.184D-02 0.258D+00 0.790D+00
 Coeff:      0.160D-05-0.254D-05-0.210D-04-0.134D-04 0.644D-04 0.994D-03
 Coeff:      0.157D-02-0.754D-02-0.414D-01-0.184D-02 0.258D+00 0.790D+00
 Gap=     0.436 Goal=   None    Shift=    0.000
 RMSDP=1.52D-07 MaxDP=3.79D-06 DE=-4.95D-10 OVMax= 4.14D-06

 Cycle  13  Pass 1  IDiag  1:
 RMSU=  3.19D-08    CP:  8.70D-01  1.30D+00  8.91D-01  8.20D-01  9.09D-01
                    CP:  1.22D+00  9.54D-01  1.22D+00  1.23D+00  1.17D+00
                    CP:  1.18D+00  1.02D+00
 FoFJK:  IHMeth= 1 ICntrl=     0 DoSepK=T KAlg= 1 I1Cent= 0 FoldK=F
 E= -682.833590579854     Delta-E=       -0.000000000066 Rises=F Damp=F
 DIIS: error= 1.16D-07 at cycle  13 NSaved=  13.
 NSaved=13 IEnMin=13 EnMin= -682.833590579854     IErMin=13 ErrMin= 1.16D-07
 ErrMax= 1.16D-07 EMaxC= 1.00D-01 BMatC= 1.46D-12 BMatP= 4.47D-11
 IDIUse=1 WtCom= 1.00D+00 WtEn= 0.00D+00
 Coeff-Com:  0.116D-05-0.220D-05-0.273D-05-0.206D-04-0.448D-04 0.269D-03
 Coeff-Com:  0.660D-03-0.340D-03-0.526D-02-0.224D-01-0.421D-01 0.639D-01
 Coeff-Com:  0.101D+01
 Coeff:      0.116D-05-0.220D-05-0.273D-05-0.206D-04-0.448D-04 0.269D-03
 Coeff:      0.660D-03-0.340D-03-0.526D-02-0.224D-01-0.421D-01 0.639D-01
 Coeff:      0.101D+01
 Gap=     0.436 Goal=   None    Shift=    0.000
 RMSDP=5.71D-08 MaxDP=1.47D-06 DE=-6.57D-11 OVMax= 1.69D-06

 Cycle  14  Pass 1  IDiag  1:
 RMSU=  8.98D-09    CP:  8.70D-01  1.30D+00  8.91D-01  8.20D-01  9.09D-01
                    CP:  1.22D+00  9.54D-01  1.22D+00  1.23D+00  1.19D+00
                    CP:  1.23D+00  1.16D+00  1.26D+00
 FoFJK:  IHMeth= 1 ICntrl=     0 DoSepK=T KAlg= 1 I1Cent= 0 FoldK=F
 E= -682.833590579858     Delta-E=       -0.000000000004 Rises=F Damp=F
 DIIS: error= 2.58D-08 at cycle  14 NSaved=  14.
 NSaved=14 IEnMin=14 EnMin= -682.833590579858     IErMin=14 ErrMin= 2.58D-08
 ErrMax= 2.58D-08 EMaxC= 1.00D-01 BMatC= 1.20D-13 BMatP= 1.46D-12
 IDIUse=1 WtCom= 1.00D+00 WtEn= 0.00D+00
 Coeff-Com: -0.342D-07 0.217D-07 0.165D-05 0.790D-06-0.354D-05-0.605D-04
 Coeff-Com: -0.100D-03 0.302D-03 0.257D-02 0.109D-02-0.145D-01-0.464D-01
 Coeff-Com:  0.468D-01 0.101D+01
 Coeff:     -0.342D-07 0.217D-07 0.165D-05 0.790D-06-0.354D-05-0.605D-04
 Coeff:     -0.100D-03 0.302D-03 0.257D-02 0.109D-02-0.145D-01-0.464D-01
 Coeff:      0.468D-01 0.101D+01
 Gap=     0.436 Goal=   None    Shift=    0.000
 RMSDP=1.16D-08 MaxDP=2.65D-07 DE=-3.64D-12 OVMax= 3.69D-07

 Cycle  15  Pass 1  IDiag  1:
 RMSU=  1.87D-09    CP:  8.70D-01  1.30D+00  8.91D-01  8.20D-01  9.09D-01
                    CP:  1.22D+00  9.54D-01  1.22D+00  1.23D+00  1.19D+00
                    CP:  1.24D+00  1.19D+00  1.39D+00  1.26D+00
 FoFJK:  IHMeth= 1 ICntrl=     0 DoSepK=T KAlg= 1 I1Cent= 0 FoldK=F
 E= -682.833590579857     Delta-E=        0.000000000001 Rises=F Damp=F
 DIIS: error= 4.85D-09 at cycle  15 NSaved=  15.
 NSaved=15 IEnMin=14 EnMin= -682.833590579858     IErMin=15 ErrMin= 4.85D-09
 ErrMax= 4.85D-09 EMaxC= 1.00D-01 BMatC= 3.03D-15 BMatP= 1.20D-13
 IDIUse=1 WtCom= 1.00D+00 WtEn= 0.00D+00
 Coeff-Com: -0.233D-07 0.470D-07-0.130D-06 0.908D-06 0.287D-05-0.382D-05
 Coeff-Com: -0.164D-04-0.201D-04-0.852D-04 0.102D-02 0.352D-02 0.941D-03
 Coeff-Com: -0.600D-01-0.930D-01 0.115D+01
 Coeff:     -0.233D-07 0.470D-07-0.130D-06 0.908D-06 0.287D-05-0.382D-05
 Coeff:     -0.164D-04-0.201D-04-0.852D-04 0.102D-02 0.352D-02 0.941D-03
 Coeff:     -0.600D-01-0.930D-01 0.115D+01
 Gap=     0.436 Goal=   None    Shift=    0.000
 RMSDP=3.36D-09 MaxDP=7.92D-08 DE= 1.14D-12 OVMax= 1.09D-07

 Error on total polarization charges =  0.00593
 SCF Done:  E(RwB97XD) =  -682.833590580     A.U. after   15 cycles
             Convg  =    0.3360D-08             -V/T =  2.0055
 KE= 6.790884121358D+02 PE=-2.338223787949D+03 EE= 6.216204025768D+02
 Leave Link  502 at Tue Apr  7 09:41:16 2020, MaxMem=13421772800 cpu:      58.0
 (Enter /opt/g09gh/gaussian/g09/l601.exe)
 Copying SCF densities to generalized density rwf, IOpCl= 0 IROHF=0.

 **********************************************************************

            Population analysis using the SCF density.

 **********************************************************************

 Orbital symmetries:
       Occupied  (A) (A) (A) (A) (A) (A) (A) (A) (A) (A) (A) (A)
                 (A) (A) (A) (A) (A) (A) (A) (A) (A) (A) (A) (A)
                 (A) (A) (A) (A) (A)
       Virtual   (A) (A) (A) (A) (A) (A) (A) (A) (A) (A) (A) (A)
                 (A) (A) (A) (A) (A) (A) (A) (A) (A) (A) (A) (A)
                 (A) (A) (A) (A) (A) (A) (A) (A) (A) (A) (A) (A)
                 (A) (A) (A) (A) (A) (A) (A) (A) (A) (A) (A) (A)
                 (A) (A) (A) (A) (A) (A) (A) (A) (A) (A) (A) (A)
                 (A) (A) (A) (A) (A) (A) (A) (A) (A) (A) (A) (A)
                 (A)
 The electronic state is 1-A.
 Alpha  occ. eigenvalues --  -77.31591 -19.30053 -19.25104 -19.17145 -19.16549
 Alpha  occ. eigenvalues --  -10.33174  -6.72820  -4.87897  -4.87668  -4.87429
 Alpha  occ. eigenvalues --   -1.20797  -1.10184  -1.00916  -0.96480  -0.77640
 Alpha  occ. eigenvalues --   -0.69667  -0.60623  -0.54132  -0.53395  -0.51623
 Alpha  occ. eigenvalues --   -0.48775  -0.45254  -0.41350  -0.38253  -0.36819
 Alpha  occ. eigenvalues --   -0.34814  -0.33043  -0.30308  -0.29029
 Alpha virt. eigenvalues --    0.14528   0.22591   0.23274   0.25056   0.25519
 Alpha virt. eigenvalues --    0.29117   0.31729   0.33122   0.34303   0.44114
 Alpha virt. eigenvalues --    0.45670   0.50748   0.53408   0.62577   0.66917
 Alpha virt. eigenvalues --    0.70026   0.76134   0.82892   0.85465   0.92770
 Alpha virt. eigenvalues --    0.95294   0.95299   0.98553   1.00784   1.02608
 Alpha virt. eigenvalues --    1.07936   1.09074   1.12007   1.15314   1.16425
 Alpha virt. eigenvalues --    1.18878   1.19434   1.24599   1.28477   1.30463
 Alpha virt. eigenvalues --    1.34588   1.37002   1.40634   1.46886   1.52054
 Alpha virt. eigenvalues --    1.60593   1.66953   1.72218   1.75773   1.81383
 Alpha virt. eigenvalues --    1.87364   1.90365   1.96234   1.97667   1.98664
 Alpha virt. eigenvalues --    2.00567   2.07500   2.15882   2.17628   2.24666
 Alpha virt. eigenvalues --    2.25436   2.26334   2.34492   2.43844   2.47333
 Alpha virt. eigenvalues --    2.50855   2.54851   2.67288   2.83639   2.88992
 Alpha virt. eigenvalues --    2.94561   3.00285   3.61815   3.83057   3.90622
 Alpha virt. eigenvalues --    4.02487   4.08935   4.36051
          Condensed to atoms (all electrons):
              1          2          3          4          5          6
     1  H    0.270796   0.259503  -0.014311  -0.000953   0.000830  -0.002167
     2  O    0.259503   8.106626   0.312849  -0.037479  -0.035678  -0.042369
     3  P   -0.014311   0.312849  12.442174   0.229261   0.568170   0.564830
     4  O   -0.000953  -0.037479   0.229261   8.356366  -0.044245  -0.045077
     5  O    0.000830  -0.035678   0.568170  -0.044245   8.291615  -0.049182
     6  O   -0.002167  -0.042369   0.564830  -0.045077  -0.049182   8.320362
     7  C    0.004211   0.000463  -0.016563   0.231275   0.000662  -0.005353
     8  H    0.007229   0.004818  -0.012558  -0.042145  -0.000086  -0.000728
     9  H   -0.000091   0.000051  -0.000132  -0.032451  -0.000048   0.000095
    10  H   -0.000475  -0.000510   0.001636  -0.040567  -0.000056   0.011002
              7          8          9         10
     1  H    0.004211   0.007229  -0.000091  -0.000475
     2  O    0.000463   0.004818   0.000051  -0.000510
     3  P   -0.016563  -0.012558  -0.000132   0.001636
     4  O    0.231275  -0.042145  -0.032451  -0.040567
     5  O    0.000662  -0.000086  -0.000048  -0.000056
     6  O   -0.005353  -0.000728   0.000095   0.011002
     7  C    4.939171   0.368889   0.387040   0.363745
     8  H    0.368889   0.601187  -0.031529  -0.042095
     9  H    0.387040  -0.031529   0.525760  -0.031871
    10  H    0.363745  -0.042095  -0.031871   0.570261
 Mulliken atomic charges:
              1
     1  H    0.475427
     2  O   -0.568274
     3  P    0.924644
     4  O   -0.573986
     5  O   -0.731981
     6  O   -0.751414
     7  C   -0.273541
     8  H    0.147018
     9  H    0.183176
    10  H    0.168931
 Sum of Mulliken atomic charges =  -1.00000
 Mulliken charges with hydrogens summed into heavy atoms:
              1
     2  O   -0.092847
     3  P    0.924644
     4  O   -0.573986
     5  O   -0.731981
     6  O   -0.751414
     7  C    0.225584
 Sum of Mulliken charges with hydrogens summed into heavy atoms =  -1.00000
 Electronic spatial extent (au):  <R**2>=            595.3083
 Charge=             -1.0000 electrons
 Dipole moment (field-independent basis, Debye):
    X=              7.6751    Y=              5.2751    Z=             -1.5234  Tot=              9.4368
 Quadrupole moment (field-independent basis, Debye-Ang):
   XX=            -47.6719   YY=            -43.4675   ZZ=            -53.7917
   XY=             -1.3981   XZ=             -0.6091   YZ=             -1.4620
 Traceless Quadrupole moment (field-independent basis, Debye-Ang):
   XX=              0.6385   YY=              4.8429   ZZ=             -5.4813
   XY=             -1.3981   XZ=             -0.6091   YZ=             -1.4620
 Octapole moment (field-independent basis, Debye-Ang**2):
  XXX=             23.2432  YYY=             13.7934  ZZZ=            -13.5443  XYY=              8.1111
  XXY=              8.1043  XXZ=              3.5878  XZZ=              6.3677  YZZ=              1.9177
  YYZ=              2.5907  XYZ=              1.2084
 Hexadecapole moment (field-independent basis, Debye-Ang**3):
 XXXX=           -406.6480 YYYY=           -145.0046 ZZZZ=           -187.0350 XXXY=            -19.8899
 XXXZ=            -11.1646 YYYX=              4.8106 YYYZ=             -1.8301 ZZZX=              6.3479
 ZZZY=             -1.8421 XXYY=           -100.2404 XXZZ=           -101.5977 YYZZ=            -57.0984
 XXYZ=             -3.9218 YYXZ=             -4.3604 ZZXY=             -1.6870
 N-N= 3.546813826562D+02 E-N=-2.338223788216D+03  KE= 6.790884121358D+02
 No NMR shielding tensors so no spin-rotation constants.
 Leave Link  601 at Tue Apr  7 09:41:16 2020, MaxMem=13421772800 cpu:       0.4
 (Enter /opt/g09gh/gaussian/g09/l701.exe)
 Compute integral first derivatives.
 ... and contract with generalized density number  0.
 R6Disp: Adding dispersion energy 1st derivatives to the gradient.
 D1PCM: PCM CHGder 1st derivatives, ID1Alg=3 FixD1E=F DoIter=F DoCFld=F I1PDM=0.
 GePol: Maximum number of non-zero 1st derivatives   =     231
 Leave Link  701 at Tue Apr  7 09:41:17 2020, MaxMem=13421772800 cpu:       2.2
 (Enter /opt/g09gh/gaussian/g09/l702.exe)
 L702 exits ... SP integral derivatives will be done elsewhere.
 Leave Link  702 at Tue Apr  7 09:41:17 2020, MaxMem=13421772800 cpu:       0.1
 (Enter /opt/g09gh/gaussian/g09/l703.exe)
 Compute integral first derivatives, UseDBF=F ICtDFT=           0.
 Integral derivatives from FoFDir, PRISM(SPDF).
 Calling FoFJK, ICntrl=      2127 FMM=F ISym2X=0 I1Cent= 0 IOpClX= 0 NMat=1 NMatS=1 NMatT=0.
 FoFJK:  IHMeth= 1 ICntrl=  2127 DoSepK=T KAlg= 1 I1Cent= 0 FoldK=F
 FoFCou: FMM=F IPFlag=           0 FMFlag=      100000 FMFlg1=         800
         NFxFlg=           0 DoJE=F BraDBF=F KetDBF=F FulRan=T
         Omega=  0.000000  0.000000  1.000000  0.000000  0.000000 ICntrl=    2527 IOpCl=  0
         NMat0=    1 NMatS0=    1 NMatT0=    0 NMatD0=    1 NMtDS0=    0 NMtDT0=    0
         I1Cent=           0 NGrid=           0.
 Symmetry not used in FoFCou.
 Leave Link  703 at Tue Apr  7 09:41:19 2020, MaxMem=13421772800 cpu:       6.4
 (Enter /opt/g09gh/gaussian/g09/l716.exe)
 Dipole        = 3.01961621D+00 2.07536799D+00-5.99336502D-01
 ***** Axes restored to original set *****
 -------------------------------------------------------------------
 Center     Atomic                   Forces (Hartrees/Bohr)
 Number     Number              X              Y              Z
 -------------------------------------------------------------------
      1        1          -0.002411628    0.008946346   -0.012357207
      2        8          -0.001968147    0.146957011   -0.088498146
      3       15           0.028189563   -0.207849077    0.124599687
      4        8          -0.011472494    0.010537866    0.005172484
      5        8          -0.013497542    0.020267151   -0.020424637
      6        8          -0.002111216    0.021174084   -0.007426619
      7        6           0.009733932   -0.004349038    0.005489982
      8        1          -0.005644588    0.003197541   -0.003491479
      9        1           0.000568859    0.001501164    0.000189196
     10        1          -0.001386740   -0.000383047   -0.003253261
 -------------------------------------------------------------------
 Cartesian Forces:  Max     0.207849077 RMS     0.055133931
 Leave Link  716 at Tue Apr  7 09:41:19 2020, MaxMem=13421772800 cpu:       0.1
 (Enter /opt/g09gh/gaussian/g09/l103.exe)

 GradGradGradGradGradGradGradGradGradGradGradGradGradGradGradGradGradGrad
 Berny optimization.
 Internal  Forces:  Max     0.185724611 RMS     0.034567702
 Search for a local minimum.
 Step number   1 out of a maximum of  100
 All quantities printed in internal units (Hartrees-Bohrs-Radians)
 RMS Force = .34568D-01 SwitMx=.10000D-02 MixMth= 1
 Mixed Optimization -- RFO/linear search
 Second derivative matrix not updated -- first step.
     Eigenvalues ---    0.01445   0.02723   0.05397   0.10270   0.10478
     Eigenvalues ---    0.15083   0.15298   0.16000   0.16000   0.16000
     Eigenvalues ---    0.16000   0.18599   0.22094   0.25000   0.25000
     Eigenvalues ---    0.34479   0.34494   0.34507   0.42320   0.42658
     Eigenvalues ---    0.55472   0.68680   0.68755   0.959381000.00000
     Eigenvalues --- 1000.000001000.000001000.000001000.000001000.00000
     Eigenvalues --- 1000.000001000.00000
 RFO step:  Lambda=-4.80932140D-02 EMin= 1.44453786D-02
 Linear search not attempted -- first point.
 Maximum step size (   0.300) exceeded in Quadratic search.
    -- Step size scaled by   0.984
 Iteration  1 RMS(Cart)=  0.06395402 RMS(Int)=  0.00342991
 Iteration  2 RMS(Cart)=  0.00331971 RMS(Int)=  0.00126546
 Iteration  3 RMS(Cart)=  0.00000419 RMS(Int)=  0.00126545
 Iteration  4 RMS(Cart)=  0.00000002 RMS(Int)=  0.00126545
 Variable       Old X    -DE/DX   Delta X   Delta X   Delta X     New X
                                 (Linear)    (Quad)   (Total)
    R1        1.81415   0.00931   0.00000   0.01520   0.01520   1.82935
    R2        2.74011   0.18572   0.00000   0.18147   0.18147   2.92157
    R3        3.12218   0.00907   0.00000   0.01894   0.01894   3.14112
    R4        2.88318  -0.02417   0.00000  -0.03234  -0.03234   2.85084
    R5        2.88368  -0.01367   0.00000  -0.01832  -0.01832   2.86536
    R6        2.68094  -0.00215   0.00000  -0.00446  -0.00446   2.67647
    R7        2.06504   0.00491   0.00000   0.01230   0.01230   2.07735
    R8        2.06483  -0.00034   0.00000  -0.00085  -0.00085   2.06399
    R9        2.06529   0.00230   0.00000   0.00575   0.00575   2.07104
    A1        1.91119   0.02140   0.00000   0.10122   0.10122   2.01241
    A2        1.82720  -0.00493   0.00000  -0.02355  -0.02389   1.80331
    A3        1.98928  -0.02219   0.00000  -0.09538  -0.09656   1.89272
    A4        1.99571  -0.01480   0.00000  -0.05946  -0.06013   1.93558
    A5        1.80770   0.00891   0.00000   0.03367   0.03095   1.83865
    A6        1.82709   0.01560   0.00000   0.06601   0.06436   1.89145
    A7        1.98904   0.02170   0.00000   0.09542   0.09076   2.07980
    A8        2.07273   0.00106   0.00000   0.00350   0.00350   2.07622
    A9        1.92160   0.00724   0.00000   0.03434   0.03421   1.95581
   A10        1.89596  -0.00284   0.00000  -0.01470  -0.01465   1.88131
   A11        1.92160   0.00278   0.00000   0.01439   0.01422   1.93583
   A12        1.90217  -0.00387   0.00000  -0.02077  -0.02069   1.88148
   A13        1.91990  -0.00349   0.00000  -0.01408  -0.01439   1.90551
   A14        1.90221   0.00004   0.00000   0.00012   0.00013   1.90234
    D1       -1.02061  -0.00574   0.00000  -0.03756  -0.03673  -1.05734
    D2       -2.98352  -0.00307   0.00000  -0.01914  -0.01898  -3.00250
    D3        0.96856   0.00276   0.00000  -0.00170  -0.00268   0.96588
    D4        1.05244   0.00436   0.00000   0.02637   0.02621   1.07865
    D5       -3.14157  -0.01865   0.00000  -0.07561  -0.07831   3.06331
    D6       -1.05270   0.01620   0.00000   0.07412   0.07697  -0.97573
    D7       -1.05994  -0.00248   0.00000  -0.02574  -0.02604  -1.08598
    D8        3.14154  -0.00033   0.00000  -0.01181  -0.01175   3.12979
    D9        1.05979  -0.00030   0.00000  -0.01153  -0.01128   1.04851
         Item               Value     Threshold  Converged?
 Maximum Force            0.185725     0.000450     NO 
 RMS     Force            0.034568     0.000300     NO 
 Maximum Displacement     0.186045     0.001800     NO 
 RMS     Displacement     0.063776     0.001200     NO 
 Predicted change in Energy=-2.628746D-02
 GradGradGradGradGradGradGradGradGradGradGradGradGradGradGradGradGradGrad

 Leave Link  103 at Tue Apr  7 09:41:19 2020, MaxMem=13421772800 cpu:       0.0
 (Enter /opt/g09gh/gaussian/g09/l202.exe)
                          Input orientation:                          
 ---------------------------------------------------------------------
 Center     Atomic      Atomic             Coordinates (Angstroms)
 Number     Number       Type             X           Y           Z
 ---------------------------------------------------------------------
      1          1           0       -0.212219    1.315751   -1.484295
      2          8           0        0.509261    1.230909   -0.844457
      3         15           0        0.511127   -0.077123   -0.020288
      4          8           0       -0.941584   -0.024008    0.785782
      5          8           0        1.566797    0.035552    1.051500
      6          8           0        0.508641   -1.289911   -0.930374
      7          6           0       -2.142438   -0.012109    0.034919
      8          1           0       -2.219340    0.877142   -0.606757
      9          1           0       -2.976490    0.011568    0.739708
     10          1           0       -2.224953   -0.911870   -0.585337
 ---------------------------------------------------------------------
                    Distance matrix (angstroms):
                    1          2          3          4          5
     1  H    0.000000
     2  O    0.968051   0.000000
     3  P    2.146309   1.546029   0.000000
     4  O    2.734991   2.517429   1.662209   0.000000
     5  O    3.351725   2.478289   1.508597   2.523119   0.000000
     6  O    2.759699   2.522284   1.516283   2.578924   2.608518
     7  C    2.792305   3.057761   2.654935   1.416328   3.846314
     8  H    2.234051   2.761687   2.951273   2.093775   4.218166
     9  H    3.779983   4.018312   3.570564   2.035738   4.554036
    10  H    3.133930   3.483471   2.915856   2.077330   4.237241
                    6          7          8          9         10
     6  O    0.000000
     7  C    3.097222   0.000000
     8  H    3.498960   1.099286   0.000000
     9  H    4.077886   1.092214   1.770724   0.000000
    10  H    2.781097   1.095946   1.789149   1.781373   0.000000
 Stoichiometry    CH4O4P(1-)
 Framework group  C1[X(CH4O4P)]
 Deg. of freedom    24
 Full point group                 C1      NOp   1
 Largest Abelian subgroup         C1      NOp   1
 Largest concise Abelian subgroup C1      NOp   1
                         Standard orientation:                         
 ---------------------------------------------------------------------
 Center     Atomic      Atomic             Coordinates (Angstroms)
 Number     Number       Type             X           Y           Z
 ---------------------------------------------------------------------
      1          1           0        0.230644    1.852673   -0.657119
      2          8           0       -0.493810    1.233653   -0.827720
      3         15           0       -0.505831   -0.030771    0.061828
      4          8           0        0.943924   -0.762426   -0.292897
      5          8           0       -1.565145   -0.970406   -0.458560
      6          8           0       -0.506106    0.341850    1.531613
      7          6           0        2.147798   -0.071781   -0.010621
      8          1           0        2.231926    0.862486   -0.583769
      9          1           0        2.979156   -0.717791   -0.301217
     10          1           0        2.228045    0.153514    1.058912
 ---------------------------------------------------------------------
 Rotational constants (GHZ):      4.5653008      2.5632902      2.5289266
 Leave Link  202 at Tue Apr  7 09:41:19 2020, MaxMem=13421772800 cpu:       0.0
 (Enter /opt/g09gh/gaussian/g09/l301.exe)
 Standard basis: 6-31G(d) (6D, 7F)
 Ernie: Thresh=  0.10000D-02 Tol=  0.10000D-05 Strict=F.
 There are   102 symmetry adapted basis functions of A   symmetry.
 Integral buffers will be    131072 words long.
 Raffenetti 2 integral format.
 Two-electron integral symmetry is turned on.
   102 basis functions,   208 primitive gaussians,   102 cartesian basis functions
    29 alpha electrons       29 beta electrons
       nuclear repulsion energy       350.2800225490 Hartrees.
 IExCor= 4639 DFT=T Ex+Corr=wB97XD ExCW=0 ScaHFX=  1.000000
 ScaDFX=  1.000000  1.000000  1.000000  1.000000 ScalE2=  1.000000  1.000000
 IRadAn=      0 IRanWt=     -1 IRanGd=            0 ICorTp=0
  HFx wShort=  0.000000 wLong=  0.200000 cFull=  0.222036 cShort=  0.000000 cLong=  0.777964
  DFx wShort=  0.000000 wLong=  0.200000 cFull=  0.000000 cShort=  0.000000 cLong=  1.000000
 NAtoms=   10 NActive=   10 NUniq=   10 SFac= 7.50D-01 NAtFMM=   80 NAOKFM=F Big=F
 R6Disp: Dispersion energy =        -0.0032869871 Hartrees.
 Nuclear repulsion after empirical dispersion term =      350.2767355619 Hartrees.
 ------------------------------------------------------------------------------
 Polarizable Continuum Model (PCM)
 =================================
 Model                : PCM.
 Atomic radii         : UFF (Universal Force Field).
 Polarization charges : Total charges.
 Charge compensation  : None.
 Solution method      : Matrix inversion.
 Cavity type          : Scaled VdW (van der Waals Surface) (Alpha=1.100).
 Cavity algorithm     : GePol (No added spheres)
                        Default sphere list used, NSphG=   10.
                        Lebedev-Laikov grids with approx.  5.0 points / Ang**2.
                        Smoothing algorithm: Karplus/York (Gamma=1.0000).
                        Polarization charges: spherical gaussians, with
                                              point-specific exponents (IZeta= 3).
                        Self-potential: point-specific (ISelfS= 7).
                        Self-field    : sphere-specific E.n sum rule (ISelfD= 2).
 1st derivatives      : Analytical E(r).r(x)/FMM algorithm (CHGder, D1EAlg=3).
                        Cavity 1st derivative terms included.
 Solvent              : Water, Eps=  78.355300 Eps(inf)=   1.777849
 ------------------------------------------------------------------------------
 Spheres list:
 ISph  on   Nord    Re0     Alpha      Xe            Ye            Ze
    1   H      1    1.443   1.100      0.230644      1.852673     -0.657119
    2   O      2    1.750   1.100     -0.493810      1.233653     -0.827720
    3   P      3    2.074   1.100     -0.505831     -0.030771      0.061828
    4   O      4    1.750   1.100      0.943924     -0.762426     -0.292897
    5   O      5    1.750   1.100     -1.565145     -0.970406     -0.458560
    6   O      6    1.750   1.100     -0.506106      0.341850      1.531613
    7   C      7    1.926   1.100      2.147798     -0.071781     -0.010621
    8   H      8    1.443   1.100      2.231926      0.862486     -0.583769
    9   H      9    1.443   1.100      2.979156     -0.717791     -0.301217
   10   H     10    1.443   1.100      2.228045      0.153514      1.058912
 ------------------------------------------------------------------------------
 GePol: Number of generator spheres                  =      10
 GePol: Total number of spheres                      =      10
 GePol: Number of exposed spheres                    =      10 (100.00%)
 GePol: Number of points                             =    1088
 GePol: Average weight of points                     =       0.13
 GePol: Minimum weight of points                     =   0.64D-10
 GePol: Maximum weight of points                     =    0.20577
 GePol: Number of points with low weight             =      65
 GePol: Fraction of low-weight points (<1% of avg)   =       5.97%
 GePol: Cavity surface area                          =    142.112 Ang**2
 GePol: Cavity volume                                =    130.028 Ang**3
 Leave Link  301 at Tue Apr  7 09:41:19 2020, MaxMem=13421772800 cpu:       0.3
 (Enter /opt/g09gh/gaussian/g09/l302.exe)
 NPDir=0 NMtPBC=     1 NCelOv=     1 NCel=       1 NClECP=     1 NCelD=      1
         NCelK=      1 NCelE2=     1 NClLst=     1 CellRange=     0.0.
 One-electron integrals computed using PRISM.
 NBasis=   102 RedAO= T  NBF=   102
 NBsUse=   102 1.00D-06 NBFU=   102
 Precomputing XC quadrature grid using
 IXCGrd= 2 IRadAn=           0 IRanWt=          -1 IRanGd=           0 AccXCQ= 1.00D-10.
 NRdTot=     624 NPtTot=       79244 NUsed=       83755 NTot=       83787
 NSgBfM=   102   102   102   102   102 NAtAll=    10    10.
 Leave Link  302 at Tue Apr  7 09:41:19 2020, MaxMem=13421772800 cpu:       0.5
 (Enter /opt/g09gh/gaussian/g09/l303.exe)
 DipDrv:  MaxL=1.
 Leave Link  303 at Tue Apr  7 09:41:19 2020, MaxMem=13421772800 cpu:       0.1
 (Enter /opt/g09gh/gaussian/g09/l401.exe)
 Initial guess read from the read-write file.
 B after Tr=     0.000000    0.000000    0.000000
         Rot=    1.000000    0.000000    0.000000    0.000000 Ang=   0.00 deg.
 Guess basis will be translated and rotated to current coordinates.
 Initial guess orbital symmetries:
       Occupied  (A) (A) (A) (A) (A) (A) (A) (A) (A) (A) (A) (A)
                 (A) (A) (A) (A) (A) (A) (A) (A) (A) (A) (A) (A)
                 (A) (A) (A) (A) (A)
       Virtual   (A) (A) (A) (A) (A) (A) (A) (A) (A) (A) (A) (A)
                 (A) (A) (A) (A) (A) (A) (A) (A) (A) (A) (A) (A)
                 (A) (A) (A) (A) (A) (A) (A) (A) (A) (A) (A) (A)
                 (A) (A) (A) (A) (A) (A) (A) (A) (A) (A) (A) (A)
                 (A) (A) (A) (A) (A) (A) (A) (A) (A) (A) (A) (A)
                 (A) (A) (A) (A) (A) (A) (A) (A) (A) (A) (A) (A)
                 (A)
 The electronic state of the initial guess is 1-A.
 Leave Link  401 at Tue Apr  7 09:41:19 2020, MaxMem=13421772800 cpu:       0.3
 (Enter /opt/g09gh/gaussian/g09/l502.exe)
 Closed shell SCF:
 Requested convergence on RMS density matrix=1.00D-08 within 128 cycles.
 Requested convergence on MAX density matrix=1.00D-06.
 Requested convergence on             energy=1.00D-06.
 No special actions if energy rises.
 Using DIIS extrapolation, IDIIS=  1040.
 Integral symmetry usage will be decided dynamically.
        83652 words used for storage of precomputed grid.
 IEnd=      134389 IEndB=      134389 NGot= 13421772800 MDV= 13421665558
 LenX= 13421665558 LenY= 13421654713
 Fock matrices will be formed incrementally for  20 cycles.

 Cycle   1  Pass 1  IDiag  1:
 FoFJK:  IHMeth= 1 ICntrl=     0 DoSepK=T KAlg= 1 I1Cent= 0 FoldK=F
 FoFCou: FMM=F IPFlag=           0 FMFlag=      100000 FMFlg1=           0
         NFxFlg=           0 DoJE=T BraDBF=F KetDBF=F FulRan=T
         Omega=  0.000000  0.000000  1.000000  0.000000  0.000000 ICntrl=     500 IOpCl=  0
         NMat0=    1 NMatS0=    1 NMatT0=    0 NMatD0=    1 NMtDS0=    0 NMtDT0=    0
         I1Cent=           0 NGrid=           0.
 Symmetry not used in FoFCou.
 E= -682.767083998317    
 DIIS: error= 1.45D-02 at cycle   1 NSaved=   1.
 NSaved= 1 IEnMin= 1 EnMin= -682.767083998317     IErMin= 1 ErrMin= 1.45D-02
 ErrMax= 1.45D-02 EMaxC= 1.00D-01 BMatC= 5.75D-02 BMatP= 5.75D-02
 IDIUse=3 WtCom= 8.55D-01 WtEn= 1.45D-01
 Coeff-Com:  0.100D+01
 Coeff-En:   0.100D+01
 Coeff:      0.100D+01
 Gap=     0.466 Goal=   None    Shift=    0.000
 GapD=    0.466 DampG=2.000 DampE=0.500 DampFc=1.0000 IDamp=-1.
 RMSDP=3.48D-03 MaxDP=6.65D-02              OVMax= 5.48D-02

 Cycle   2  Pass 1  IDiag  1:
 RMSU=  2.45D-03    CP:  9.93D-01
 FoFJK:  IHMeth= 1 ICntrl=     0 DoSepK=T KAlg= 1 I1Cent= 0 FoldK=F
 E= -682.857454188733     Delta-E=       -0.090370190417 Rises=F Damp=F
 DIIS: error= 3.70D-03 at cycle   2 NSaved=   2.
 NSaved= 2 IEnMin= 2 EnMin= -682.857454188733     IErMin= 2 ErrMin= 3.70D-03
 ErrMax= 3.70D-03 EMaxC= 1.00D-01 BMatC= 4.89D-03 BMatP= 5.75D-02
 IDIUse=3 WtCom= 9.63D-01 WtEn= 3.70D-02
 Coeff-Com: -0.295D-01 0.103D+01
 Coeff-En:   0.000D+00 0.100D+01
 Coeff:     -0.284D-01 0.103D+01
 Gap=     0.457 Goal=   None    Shift=    0.000
 RMSDP=1.05D-03 MaxDP=2.19D-02 DE=-9.04D-02 OVMax= 2.01D-02

 Cycle   3  Pass 1  IDiag  1:
 RMSU=  6.13D-04    CP:  9.91D-01  1.17D+00
 FoFJK:  IHMeth= 1 ICntrl=     0 DoSepK=T KAlg= 1 I1Cent= 0 FoldK=F
 E= -682.860944096656     Delta-E=       -0.003489907922 Rises=F Damp=F
 DIIS: error= 4.05D-03 at cycle   3 NSaved=   3.
 NSaved= 3 IEnMin= 3 EnMin= -682.860944096656     IErMin= 2 ErrMin= 3.70D-03
 ErrMax= 4.05D-03 EMaxC= 1.00D-01 BMatC= 4.10D-03 BMatP= 4.89D-03
 IDIUse=3 WtCom= 9.60D-01 WtEn= 4.05D-02
 Coeff-Com: -0.107D+00 0.533D+00 0.574D+00
 Coeff-En:   0.000D+00 0.659D-01 0.934D+00
 Coeff:     -0.103D+00 0.514D+00 0.589D+00
 Gap=     0.459 Goal=   None    Shift=    0.000
 RMSDP=4.64D-04 MaxDP=1.19D-02 DE=-3.49D-03 OVMax= 1.03D-02

 Cycle   4  Pass 1  IDiag  1:
 RMSU=  1.96D-04    CP:  9.90D-01  1.23D+00  6.49D-01
 FoFJK:  IHMeth= 1 ICntrl=     0 DoSepK=T KAlg= 1 I1Cent= 0 FoldK=F
 E= -682.863844630699     Delta-E=       -0.002900534044 Rises=F Damp=F
 DIIS: error= 5.47D-04 at cycle   4 NSaved=   4.
 NSaved= 4 IEnMin= 4 EnMin= -682.863844630699     IErMin= 4 ErrMin= 5.47D-04
 ErrMax= 5.47D-04 EMaxC= 1.00D-01 BMatC= 7.99D-05 BMatP= 4.10D-03
 IDIUse=3 WtCom= 9.95D-01 WtEn= 5.47D-03
 Coeff-Com: -0.222D-01 0.699D-01 0.161D+00 0.791D+00
 Coeff-En:   0.000D+00 0.000D+00 0.000D+00 0.100D+01
 Coeff:     -0.221D-01 0.695D-01 0.160D+00 0.793D+00
 Gap=     0.456 Goal=   None    Shift=    0.000
 RMSDP=1.09D-04 MaxDP=2.04D-03 DE=-2.90D-03 OVMax= 2.18D-03

 Cycle   5  Pass 1  IDiag  1:
 RMSU=  5.48D-05    CP:  9.90D-01  1.24D+00  7.25D-01  1.08D+00
 FoFJK:  IHMeth= 1 ICntrl=     0 DoSepK=T KAlg= 1 I1Cent= 0 FoldK=F
 E= -682.863907051170     Delta-E=       -0.000062420470 Rises=F Damp=F
 DIIS: error= 2.61D-04 at cycle   5 NSaved=   5.
 NSaved= 5 IEnMin= 5 EnMin= -682.863907051170     IErMin= 5 ErrMin= 2.61D-04
 ErrMax= 2.61D-04 EMaxC= 1.00D-01 BMatC= 1.86D-05 BMatP= 7.99D-05
 IDIUse=3 WtCom= 9.97D-01 WtEn= 2.61D-03
 Coeff-Com:  0.430D-02-0.417D-01-0.482D-03 0.393D+00 0.645D+00
 Coeff-En:   0.000D+00 0.000D+00 0.000D+00 0.000D+00 0.100D+01
 Coeff:      0.429D-02-0.416D-01-0.480D-03 0.392D+00 0.646D+00
 Gap=     0.456 Goal=   None    Shift=    0.000
 RMSDP=4.51D-05 MaxDP=8.55D-04 DE=-6.24D-05 OVMax= 1.04D-03

 Cycle   6  Pass 1  IDiag  1:
 RMSU=  1.73D-05    CP:  9.90D-01  1.24D+00  7.36D-01  1.19D+00  8.08D-01
 FoFJK:  IHMeth= 1 ICntrl=     0 DoSepK=T KAlg= 1 I1Cent= 0 FoldK=F
 E= -682.863922369330     Delta-E=       -0.000015318161 Rises=F Damp=F
 DIIS: error= 3.89D-05 at cycle   6 NSaved=   6.
 NSaved= 6 IEnMin= 6 EnMin= -682.863922369330     IErMin= 6 ErrMin= 3.89D-05
 ErrMax= 3.89D-05 EMaxC= 1.00D-01 BMatC= 5.63D-07 BMatP= 1.86D-05
 IDIUse=1 WtCom= 1.00D+00 WtEn= 0.00D+00
 Coeff-Com:  0.312D-02-0.168D-01-0.159D-01 0.169D-01 0.157D+00 0.855D+00
 Coeff:      0.312D-02-0.168D-01-0.159D-01 0.169D-01 0.157D+00 0.855D+00
 Gap=     0.456 Goal=   None    Shift=    0.000
 RMSDP=1.61D-05 MaxDP=4.41D-04 DE=-1.53D-05 OVMax= 3.32D-04

 Cycle   7  Pass 1  IDiag  1:
 RMSU=  4.83D-06    CP:  9.90D-01  1.24D+00  7.42D-01  1.22D+00  9.07D-01
                    CP:  1.17D+00
 FoFJK:  IHMeth= 1 ICntrl=     0 DoSepK=T KAlg= 1 I1Cent= 0 FoldK=F
 E= -682.863923067671     Delta-E=       -0.000000698341 Rises=F Damp=F
 DIIS: error= 2.33D-05 at cycle   7 NSaved=   7.
 NSaved= 7 IEnMin= 7 EnMin= -682.863923067671     IErMin= 7 ErrMin= 2.33D-05
 ErrMax= 2.33D-05 EMaxC= 1.00D-01 BMatC= 8.22D-08 BMatP= 5.63D-07
 IDIUse=1 WtCom= 1.00D+00 WtEn= 0.00D+00
 Coeff-Com:  0.106D-02-0.470D-02-0.672D-02-0.139D-01 0.300D-01 0.345D+00
 Coeff-Com:  0.650D+00
 Coeff:      0.106D-02-0.470D-02-0.672D-02-0.139D-01 0.300D-01 0.345D+00
 Coeff:      0.650D+00
 Gap=     0.456 Goal=   None    Shift=    0.000
 RMSDP=4.14D-06 MaxDP=1.13D-04 DE=-6.98D-07 OVMax= 8.60D-05

 Cycle   8  Pass 1  IDiag  1:
 RMSU=  1.66D-06    CP:  9.90D-01  1.24D+00  7.43D-01  1.23D+00  9.25D-01
                    CP:  1.27D+00  9.48D-01
 FoFJK:  IHMeth= 1 ICntrl=     0 DoSepK=T KAlg= 1 I1Cent= 0 FoldK=F
 E= -682.863923144522     Delta-E=       -0.000000076851 Rises=F Damp=F
 DIIS: error= 7.14D-06 at cycle   8 NSaved=   8.
 NSaved= 8 IEnMin= 8 EnMin= -682.863923144522     IErMin= 8 ErrMin= 7.14D-06
 ErrMax= 7.14D-06 EMaxC= 1.00D-01 BMatC= 8.91D-09 BMatP= 8.22D-08
 IDIUse=1 WtCom= 1.00D+00 WtEn= 0.00D+00
 Coeff-Com: -0.257D-03 0.166D-02 0.837D-03-0.707D-02-0.195D-01-0.571D-01
 Coeff-Com:  0.206D+00 0.875D+00
 Coeff:     -0.257D-03 0.166D-02 0.837D-03-0.707D-02-0.195D-01-0.571D-01
 Coeff:      0.206D+00 0.875D+00
 Gap=     0.456 Goal=   None    Shift=    0.000
 RMSDP=2.54D-06 MaxDP=8.38D-05 DE=-7.69D-08 OVMax= 5.17D-05

 Cycle   9  Pass 1  IDiag  1:
 RMSU=  5.50D-07    CP:  9.90D-01  1.24D+00  7.44D-01  1.23D+00  9.36D-01
                    CP:  1.32D+00  1.12D+00  1.07D+00
 FoFJK:  IHMeth= 1 ICntrl=     0 DoSepK=T KAlg= 1 I1Cent= 0 FoldK=F
 E= -682.863923156474     Delta-E=       -0.000000011952 Rises=F Damp=F
 DIIS: error= 1.67D-06 at cycle   9 NSaved=   9.
 NSaved= 9 IEnMin= 9 EnMin= -682.863923156474     IErMin= 9 ErrMin= 1.67D-06
 ErrMax= 1.67D-06 EMaxC= 1.00D-01 BMatC= 5.60D-10 BMatP= 8.91D-09
 IDIUse=1 WtCom= 1.00D+00 WtEn= 0.00D+00
 Coeff-Com: -0.150D-03 0.824D-03 0.729D-03-0.124D-02-0.791D-02-0.405D-01
 Coeff-Com:  0.205D-01 0.267D+00 0.761D+00
 Coeff:     -0.150D-03 0.824D-03 0.729D-03-0.124D-02-0.791D-02-0.405D-01
 Coeff:      0.205D-01 0.267D+00 0.761D+00
 Gap=     0.456 Goal=   None    Shift=    0.000
 RMSDP=5.63D-07 MaxDP=1.82D-05 DE=-1.20D-08 OVMax= 1.17D-05

 Cycle  10  Pass 1  IDiag  1:
 RMSU=  1.57D-07    CP:  9.90D-01  1.24D+00  7.44D-01  1.23D+00  9.39D-01
                    CP:  1.34D+00  1.16D+00  1.16D+00  1.06D+00
 FoFJK:  IHMeth= 1 ICntrl=     0 DoSepK=T KAlg= 1 I1Cent= 0 FoldK=F
 E= -682.863923157274     Delta-E=       -0.000000000799 Rises=F Damp=F
 DIIS: error= 5.08D-07 at cycle  10 NSaved=  10.
 NSaved=10 IEnMin=10 EnMin= -682.863923157274     IErMin=10 ErrMin= 5.08D-07
 ErrMax= 5.08D-07 EMaxC= 1.00D-01 BMatC= 4.96D-11 BMatP= 5.60D-10
 IDIUse=1 WtCom= 1.00D+00 WtEn= 0.00D+00
 Coeff-Com: -0.114D-06-0.264D-04 0.655D-04 0.546D-03 0.575D-03-0.166D-02
 Coeff-Com: -0.199D-01-0.476D-01 0.165D+00 0.903D+00
 Coeff:     -0.114D-06-0.264D-04 0.655D-04 0.546D-03 0.575D-03-0.166D-02
 Coeff:     -0.199D-01-0.476D-01 0.165D+00 0.903D+00
 Gap=     0.456 Goal=   None    Shift=    0.000
 RMSDP=2.26D-07 MaxDP=7.33D-06 DE=-7.99D-10 OVMax= 4.52D-06

 Cycle  11  Pass 1  IDiag  1:
 RMSU=  4.70D-08    CP:  9.90D-01  1.24D+00  7.44D-01  1.23D+00  9.40D-01
                    CP:  1.34D+00  1.17D+00  1.19D+00  1.20D+00  1.08D+00
 FoFJK:  IHMeth= 1 ICntrl=     0 DoSepK=T KAlg= 1 I1Cent= 0 FoldK=F
 E= -682.863923157353     Delta-E=       -0.000000000080 Rises=F Damp=F
 DIIS: error= 1.72D-07 at cycle  11 NSaved=  11.
 NSaved=11 IEnMin=11 EnMin= -682.863923157353     IErMin=11 ErrMin= 1.72D-07
 ErrMax= 1.72D-07 EMaxC= 1.00D-01 BMatC= 8.51D-12 BMatP= 4.96D-11
 IDIUse=1 WtCom= 1.00D+00 WtEn= 0.00D+00
 Coeff-Com:  0.117D-04-0.756D-04-0.301D-04 0.320D-03 0.846D-03 0.254D-02
 Coeff-Com: -0.982D-02-0.401D-01 0.823D-02 0.368D+00 0.670D+00
 Coeff:      0.117D-04-0.756D-04-0.301D-04 0.320D-03 0.846D-03 0.254D-02
 Coeff:     -0.982D-02-0.401D-01 0.823D-02 0.368D+00 0.670D+00
 Gap=     0.456 Goal=   None    Shift=    0.000
 RMSDP=4.88D-08 MaxDP=1.34D-06 DE=-7.98D-11 OVMax= 1.08D-06

 Cycle  12  Pass 1  IDiag  1:
 RMSU=  1.67D-08    CP:  9.90D-01  1.24D+00  7.44D-01  1.23D+00  9.40D-01
                    CP:  1.34D+00  1.17D+00  1.20D+00  1.23D+00  1.17D+00
                    CP:  9.62D-01
 FoFJK:  IHMeth= 1 ICntrl=     0 DoSepK=T KAlg= 1 I1Cent= 0 FoldK=F
 E= -682.863923157362     Delta-E=       -0.000000000009 Rises=F Damp=F
 DIIS: error= 6.39D-08 at cycle  12 NSaved=  12.
 NSaved=12 IEnMin=12 EnMin= -682.863923157362     IErMin=12 ErrMin= 6.39D-08
 ErrMax= 6.39D-08 EMaxC= 1.00D-01 BMatC= 1.08D-12 BMatP= 8.51D-12
 IDIUse=1 WtCom= 1.00D+00 WtEn= 0.00D+00
 Coeff-Com:  0.460D-05-0.263D-04-0.215D-04 0.533D-04 0.257D-03 0.127D-02
 Coeff-Com: -0.119D-02-0.922D-02-0.217D-01 0.209D-01 0.273D+00 0.737D+00
 Coeff:      0.460D-05-0.263D-04-0.215D-04 0.533D-04 0.257D-03 0.127D-02
 Coeff:     -0.119D-02-0.922D-02-0.217D-01 0.209D-01 0.273D+00 0.737D+00
 Gap=     0.456 Goal=   None    Shift=    0.000
 RMSDP=1.81D-08 MaxDP=4.41D-07 DE=-8.64D-12 OVMax= 3.68D-07

 Cycle  13  Pass 1  IDiag  1:
 RMSU=  5.35D-09    CP:  9.90D-01  1.24D+00  7.44D-01  1.23D+00  9.40D-01
                    CP:  1.34D+00  1.17D+00  1.20D+00  1.24D+00  1.20D+00
                    CP:  1.08D+00  9.80D-01
 FoFJK:  IHMeth= 1 ICntrl=     0 DoSepK=T KAlg= 1 I1Cent= 0 FoldK=F
 E= -682.863923157368     Delta-E=       -0.000000000005 Rises=F Damp=F
 DIIS: error= 1.43D-08 at cycle  13 NSaved=  13.
 NSaved=13 IEnMin=13 EnMin= -682.863923157368     IErMin=13 ErrMin= 1.43D-08
 ErrMax= 1.43D-08 EMaxC= 1.00D-01 BMatC= 4.78D-14 BMatP= 1.08D-12
 IDIUse=1 WtCom= 1.00D+00 WtEn= 0.00D+00
 Coeff-Com: -0.261D-06 0.229D-05-0.130D-05-0.197D-04-0.325D-04-0.357D-05
 Coeff-Com:  0.701D-03 0.229D-02-0.535D-02-0.317D-01-0.153D-01 0.143D+00
 Coeff-Com:  0.906D+00
 Coeff:     -0.261D-06 0.229D-05-0.130D-05-0.197D-04-0.325D-04-0.357D-05
 Coeff:      0.701D-03 0.229D-02-0.535D-02-0.317D-01-0.153D-01 0.143D+00
 Coeff:      0.906D+00
 Gap=     0.456 Goal=   None    Shift=    0.000
 RMSDP=6.15D-09 MaxDP=1.08D-07 DE=-5.46D-12 OVMax= 1.31D-07

 Error on total polarization charges =  0.00585
 SCF Done:  E(RwB97XD) =  -682.863923157     A.U. after   13 cycles
             Convg  =    0.6149D-08             -V/T =  2.0060
 KE= 6.787829536740D+02 PE=-2.329257250790D+03 EE= 6.173336383963D+02
 Leave Link  502 at Tue Apr  7 09:41:32 2020, MaxMem=13421772800 cpu:      49.6
 (Enter /opt/g09gh/gaussian/g09/l701.exe)
 Compute integral first derivatives.
 ... and contract with generalized density number  0.
 R6Disp: Adding dispersion energy 1st derivatives to the gradient.
 D1PCM: PCM CHGder 1st derivatives, ID1Alg=3 FixD1E=F DoIter=F DoCFld=F I1PDM=0.
 GePol: Maximum number of non-zero 1st derivatives   =     222
 Leave Link  701 at Tue Apr  7 09:41:32 2020, MaxMem=13421772800 cpu:       2.3
 (Enter /opt/g09gh/gaussian/g09/l702.exe)
 L702 exits ... SP integral derivatives will be done elsewhere.
 Leave Link  702 at Tue Apr  7 09:41:32 2020, MaxMem=13421772800 cpu:       0.1
 (Enter /opt/g09gh/gaussian/g09/l703.exe)
 Compute integral first derivatives, UseDBF=F ICtDFT=           0.
 Integral derivatives from FoFDir, PRISM(SPDF).
 Calling FoFJK, ICntrl=      2127 FMM=F ISym2X=0 I1Cent= 0 IOpClX= 0 NMat=1 NMatS=1 NMatT=0.
 FoFJK:  IHMeth= 1 ICntrl=  2127 DoSepK=T KAlg= 1 I1Cent= 0 FoldK=F
 FoFCou: FMM=F IPFlag=           0 FMFlag=      100000 FMFlg1=         800
         NFxFlg=           0 DoJE=F BraDBF=F KetDBF=F FulRan=T
         Omega=  0.000000  0.000000  1.000000  0.000000  0.000000 ICntrl=    2527 IOpCl=  0
         NMat0=    1 NMatS0=    1 NMatT0=    0 NMatD0=    1 NMtDS0=    0 NMtDT0=    0
         I1Cent=           0 NGrid=           0.
 Symmetry not used in FoFCou.
 Leave Link  703 at Tue Apr  7 09:41:34 2020, MaxMem=13421772800 cpu:       6.5
 (Enter /opt/g09gh/gaussian/g09/l716.exe)
 Dipole        = 2.96868099D+00 1.63648959D+00-7.81307448D-01
 ***** Axes restored to original set *****
 -------------------------------------------------------------------
 Center     Atomic                   Forces (Hartrees/Bohr)
 Number     Number              X              Y              Z
 -------------------------------------------------------------------
      1        1           0.003859218   -0.001871197   -0.000354145
      2        8          -0.003475181    0.061748487   -0.034542494
      3       15           0.008790706   -0.078136956    0.040350299
      4        8           0.001151087    0.004695395   -0.001490217
      5        8          -0.009185802    0.004231487   -0.008761226
      6        8          -0.003413920    0.011459489    0.004132640
      7        6           0.002732640   -0.002606709    0.001371322
      8        1           0.000072959   -0.000027879   -0.000123996
      9        1          -0.000105444   -0.000081754    0.000493193
     10        1          -0.000426264    0.000589637   -0.001075375
 -------------------------------------------------------------------
 Cartesian Forces:  Max     0.078136956 RMS     0.021000210
 Leave Link  716 at Tue Apr  7 09:41:34 2020, MaxMem=13421772800 cpu:       0.1
 (Enter /opt/g09gh/gaussian/g09/l103.exe)

 GradGradGradGradGradGradGradGradGradGradGradGradGradGradGradGradGradGrad
 Berny optimization.
 Using GEDIIS/GDIIS optimizer.
 Internal  Forces:  Max     0.069250649 RMS     0.012802477
 Search for a local minimum.
 Step number   2 out of a maximum of  100
 All quantities printed in internal units (Hartrees-Bohrs-Radians)
 RMS Force = .12802D-01 SwitMx=.10000D-02 MixMth= 1
 Mixed Optimization -- RFO/linear search
 Update second derivatives using D2CorX and points    1    2
 DE= -3.03D-02 DEPred=-2.63D-02 R= 1.15D+00
 SS=  1.41D+00  RLast= 3.00D-01 DXNew= 5.0454D-01 8.9919D-01
 Trust test= 1.15D+00 RLast= 3.00D-01 DXMaxT set to 5.05D-01
 Use linear search instead of GDIIS.
     Eigenvalues ---    0.01446   0.02721   0.05382   0.10029   0.10476
     Eigenvalues ---    0.15438   0.15882   0.16000   0.16000   0.16017
     Eigenvalues ---    0.16602   0.19877   0.21977   0.24951   0.25022
     Eigenvalues ---    0.34481   0.34504   0.34534   0.42617   0.42623
     Eigenvalues ---    0.55682   0.60398   0.68772   0.736181000.00000
     Eigenvalues --- 1000.000001000.000001000.000001000.000001000.00000
     Eigenvalues --- 1000.000001000.00000
 RFO step:  Lambda=-2.65344434D-03 EMin= 1.44572400D-02
 Quartic linear search produced a step of  0.63555.
 Iteration  1 RMS(Cart)=  0.04460442 RMS(Int)=  0.00174295
 Iteration  2 RMS(Cart)=  0.00181085 RMS(Int)=  0.00122041
 Iteration  3 RMS(Cart)=  0.00000226 RMS(Int)=  0.00122041
 Iteration  4 RMS(Cart)=  0.00000001 RMS(Int)=  0.00122041
 Variable       Old X    -DE/DX   Delta X   Delta X   Delta X     New X
                                 (Linear)    (Quad)   (Total)
    R1        1.82935  -0.00283   0.00966  -0.01656  -0.00690   1.82245
    R2        2.92157   0.06925   0.11533   0.01521   0.13054   3.05211
    R3        3.14112  -0.00335   0.01204  -0.02286  -0.01082   3.13030
    R4        2.85084  -0.01232  -0.02056  -0.01131  -0.03187   2.81897
    R5        2.86536  -0.01166  -0.01164  -0.01753  -0.02917   2.83619
    R6        2.67647  -0.00223  -0.00284  -0.00614  -0.00898   2.66749
    R7        2.07735   0.00006   0.00782  -0.00603   0.00179   2.07914
    R8        2.06399   0.00038  -0.00054   0.00223   0.00169   2.06568
    R9        2.07104   0.00018   0.00366  -0.00211   0.00155   2.07258
    A1        2.01241  -0.00039   0.06433  -0.04594   0.01838   2.03079
    A2        1.80331  -0.00127  -0.01518  -0.00651  -0.02231   1.78100
    A3        1.89272  -0.00507  -0.06137  -0.00131  -0.06397   1.82874
    A4        1.93558  -0.00171  -0.03822   0.01435  -0.02440   1.91118
    A5        1.83865  -0.00011   0.01967  -0.01790  -0.00157   1.83707
    A6        1.89145   0.00070   0.04091  -0.02031   0.01861   1.91006
    A7        2.07980   0.00662   0.05768   0.02517   0.07872   2.15852
    A8        2.07622  -0.00135   0.00222  -0.01043  -0.00821   2.06802
    A9        1.95581  -0.00045   0.02174  -0.02007   0.00157   1.95738
   A10        1.88131  -0.00041  -0.00931   0.00241  -0.00689   1.87442
   A11        1.93583   0.00150   0.00904   0.01005   0.01896   1.95479
   A12        1.88148   0.00015  -0.01315   0.00820  -0.00492   1.87656
   A13        1.90551  -0.00092  -0.00915  -0.00386  -0.01322   1.89229
   A14        1.90234   0.00012   0.00009   0.00391   0.00399   1.90633
    D1       -1.05734  -0.00247  -0.02334  -0.05126  -0.07353  -1.13087
    D2       -3.00250   0.00019  -0.01207  -0.02773  -0.04030  -3.04280
    D3        0.96588  -0.00311  -0.00170  -0.07191  -0.07418   0.89170
    D4        1.07865   0.00211   0.01666   0.05317   0.06946   1.14811
    D5        3.06331  -0.00404  -0.04977   0.04231  -0.00962   3.05369
    D6       -0.97573   0.00439   0.04892   0.04901   0.10045  -0.87527
    D7       -1.08598  -0.00052  -0.01655  -0.06658  -0.08333  -1.16931
    D8        3.12979  -0.00018  -0.00747  -0.06644  -0.07388   3.05591
    D9        1.04851  -0.00094  -0.00717  -0.07854  -0.08555   0.96296
         Item               Value     Threshold  Converged?
 Maximum Force            0.069251     0.000450     NO 
 RMS     Force            0.012802     0.000300     NO 
 Maximum Displacement     0.119583     0.001800     NO 
 RMS     Displacement     0.044895     0.001200     NO 
 Predicted change in Energy=-4.231127D-03
 GradGradGradGradGradGradGradGradGradGradGradGradGradGradGradGradGradGrad

 Leave Link  103 at Tue Apr  7 09:41:34 2020, MaxMem=13421772800 cpu:       0.0
 (Enter /opt/g09gh/gaussian/g09/l202.exe)
                          Input orientation:                          
 ---------------------------------------------------------------------
 Center     Atomic      Atomic             Coordinates (Angstroms)
 Number     Number       Type             X           Y           Z
 ---------------------------------------------------------------------
      1          1           0       -0.148938    1.349075   -1.529871
      2          8           0        0.529165    1.251413   -0.851116
      3         15           0        0.499664   -0.121154   -0.000377
      4          8           0       -0.945419   -0.000535    0.800319
      5          8           0        1.545528    0.058424    1.048046
      6          8           0        0.454496   -1.291489   -0.938897
      7          6           0       -2.137640   -0.022779    0.044896
      8          1           0       -2.241798    0.868251   -0.592075
      9          1           0       -2.972046   -0.021819    0.751053
     10          1           0       -2.204210   -0.913486   -0.591578
 ---------------------------------------------------------------------
                    Distance matrix (angstroms):
                    1          2          3          4          5
     1  H    0.000000
     2  O    0.964401   0.000000
     3  P    2.218471   1.615107   0.000000
     4  O    2.808135   2.543426   1.656481   0.000000
     5  O    3.344048   2.462323   1.491733   2.503929   0.000000
     6  O    2.772358   2.545512   1.500848   2.578991   2.638287
     7  C    2.883889   3.088407   2.639527   1.411577   3.818197
     8  H    2.343228   2.809297   2.973995   2.091447   4.205907
     9  H    3.879679   4.055434   3.553490   2.027338   4.528037
    10  H    3.197456   3.496497   2.878932   2.086962   4.206366
                    6          7          8          9         10
     6  O    0.000000
     7  C    3.049040   0.000000
     8  H    3.471997   1.100235   0.000000
     9  H    4.026063   1.093111   1.769034   0.000000
    10  H    2.707810   1.096763   1.782134   1.785301   0.000000
 Stoichiometry    CH4O4P(1-)
 Framework group  C1[X(CH4O4P)]
 Deg. of freedom    24
 Full point group                 C1      NOp   1
 Largest Abelian subgroup         C1      NOp   1
 Largest concise Abelian subgroup C1      NOp   1
                         Standard orientation:                         
 ---------------------------------------------------------------------
 Center     Atomic      Atomic             Coordinates (Angstroms)
 Number     Number       Type             X           Y           Z
 ---------------------------------------------------------------------
      1          1           0        0.125453    1.909184   -0.693026
      2          8           0       -0.550352    1.239362   -0.850177
      3         15           0       -0.502166   -0.064833    0.101308
      4          8           0        0.942450   -0.752528   -0.327748
      5          8           0       -1.548676   -0.975207   -0.447602
      6          8           0       -0.443525    0.365037    1.538082
      7          6           0        2.133741   -0.053591   -0.036434
      8          1           0        2.225633    0.872291   -0.623643
      9          1           0        2.969109   -0.702428   -0.312224
     10          1           0        2.210677    0.201674    1.027432
 ---------------------------------------------------------------------
 Rotational constants (GHZ):      4.4823386      2.5763446      2.5382554
 Leave Link  202 at Tue Apr  7 09:41:34 2020, MaxMem=13421772800 cpu:       0.0
 (Enter /opt/g09gh/gaussian/g09/l301.exe)
 Standard basis: 6-31G(d) (6D, 7F)
 Ernie: Thresh=  0.10000D-02 Tol=  0.10000D-05 Strict=F.
 There are   102 symmetry adapted basis functions of A   symmetry.
[...]
      3       15           0.000010991   -0.000020065   -0.000028921
      4        8           0.000003559   -0.000005008    0.000009492
      5        8           0.000013697   -0.000033641   -0.000040655
      6        8          -0.000030679   -0.000003486   -0.000021792
      7        6           0.000005064    0.000020134    0.000022377
      8        1           0.000002916    0.000020768    0.000026654
      9        1           0.000012929    0.000021286    0.000033333
     10        1          -0.000020209    0.000020189    0.000015031
 -------------------------------------------------------------------
 Cartesian Forces:  Max     0.000040655 RMS     0.000019555
 Leave Link  716 at Tue Apr  7 09:45:12 2020, MaxMem=13421772800 cpu:       0.1
 (Enter /opt/g09gh/gaussian/g09/l103.exe)

 GradGradGradGradGradGradGradGradGradGradGradGradGradGradGradGradGradGrad
 Berny optimization.
 Using GEDIIS/GDIIS optimizer.
 Internal  Forces:  Max     0.000011310 RMS     0.000003581
 Search for a local minimum.
 Step number  18 out of a maximum of  100
 All quantities printed in internal units (Hartrees-Bohrs-Radians)
 RMS Force = .35807D-05 SwitMx=.10000D-02 MixMth= 2
 Mixed Optimization -- En-DIIS/RFO-DIIS
 Swaping is turned off.
 Update second derivatives using D2CorX and points    9   10   11   12   13
                                                     14   15   16   17   18
 DE= -5.40D-08 DEPred=-1.37D-08 R= 3.94D+00
 Trust test= 3.94D+00 RLast= 2.26D-03 DXMaxT set to 1.28D+00
     Eigenvalues ---    0.00230   0.00306   0.00494   0.10126   0.10433
     Eigenvalues ---    0.11093   0.15688   0.15969   0.16141   0.16693
     Eigenvalues ---    0.17878   0.21647   0.23331   0.24575   0.27146
     Eigenvalues ---    0.34304   0.34505   0.34555   0.37910   0.39437
     Eigenvalues ---    0.44123   0.56814   0.69264   0.715401000.00000
     Eigenvalues --- 1000.000001000.000001000.000001000.000001000.00000
     Eigenvalues --- 1000.000001000.00000
 En-DIIS/RFO-DIIS IScMMF=        0 using points:    18   17   16   15   14
 RFO step:  Lambda= 0.00000000D+00.
 DIIS coeffs:      1.24412     -0.23932     -0.07377      0.11105     -0.04208
 Iteration  1 RMS(Cart)=  0.00011763 RMS(Int)=  0.00000001
 Iteration  2 RMS(Cart)=  0.00000001 RMS(Int)=  0.00000000
 Variable       Old X    -DE/DX   Delta X   Delta X   Delta X     New X
                                  (DIIS)     (GDIIS)  (Total)
    R1        1.82438   0.00000   0.00000   0.00000   0.00000   1.82437
    R2        3.12331  -0.00001  -0.00002   0.00000  -0.00002   3.12329
    R3        3.11072   0.00001   0.00002   0.00001   0.00004   3.11075
    R4        2.82533  -0.00001   0.00000   0.00000  -0.00001   2.82532
    R5        2.83738  -0.00001  -0.00001  -0.00001  -0.00001   2.83737
    R6        2.67710   0.00000   0.00000   0.00000   0.00000   2.67710
    R7        2.07383   0.00000   0.00000   0.00000   0.00000   2.07383
    R8        2.06512   0.00000   0.00000   0.00000   0.00000   2.06512
    R9        2.07031   0.00000   0.00001   0.00000   0.00001   2.07032
    A1        1.89003   0.00000   0.00003   0.00002   0.00005   1.89008
    A2        1.76290   0.00001  -0.00001   0.00004   0.00003   1.76293
    A3        1.88691  -0.00001  -0.00001  -0.00002  -0.00004   1.88688
    A4        1.87989   0.00000   0.00001   0.00000   0.00001   1.87991
    A5        1.83754   0.00000  -0.00001   0.00001   0.00000   1.83754
    A6        1.91932   0.00000   0.00000  -0.00002  -0.00001   1.91930
    A7        2.14061   0.00000   0.00001   0.00001   0.00002   2.14063
    A8        2.05381   0.00000   0.00000  -0.00001  -0.00001   2.05380
    A9        1.93863   0.00000  -0.00001   0.00001   0.00000   1.93863
   A10        1.87710   0.00000   0.00000   0.00001   0.00001   1.87711
   A11        1.94236   0.00000   0.00001   0.00000   0.00001   1.94236
   A12        1.89913   0.00000   0.00003  -0.00002   0.00001   1.89914
   A13        1.89990   0.00000   0.00001  -0.00001  -0.00001   1.89990
   A14        1.90599   0.00000  -0.00003   0.00001  -0.00002   1.90597
    D1       -1.84779   0.00000   0.00008   0.00019   0.00028  -1.84751
    D2        2.51114   0.00000   0.00010   0.00018   0.00028   2.51142
    D3        0.16454   0.00000   0.00009   0.00019   0.00028   0.16482
    D4        1.14868   0.00000  -0.00003   0.00003   0.00000   1.14868
    D5        3.11085   0.00000  -0.00005   0.00002  -0.00003   3.11082
    D6       -0.83407   0.00000  -0.00004   0.00002  -0.00002  -0.83409
    D7       -1.04758   0.00000  -0.00012  -0.00006  -0.00018  -1.04776
    D8       -3.12397   0.00000  -0.00015  -0.00005  -0.00020  -3.12416
    D9        1.07229   0.00000  -0.00011  -0.00007  -0.00018   1.07211
         Item               Value     Threshold  Converged?
 Maximum Force            0.000011     0.000450     YES
 RMS     Force            0.000004     0.000300     YES
 Maximum Displacement     0.000273     0.001800     YES
 RMS     Displacement     0.000118     0.001200     YES
 Predicted change in Energy=-7.930502D-10
 Optimization completed.
    -- Stationary point found.
                           ----------------------------
                           !   Optimized Parameters   !
                           ! (Angstroms and Degrees)  !
 --------------------------                            --------------------------
 ! Name  Definition              Value          Derivative Info.                !
 --------------------------------------------------------------------------------
 ! R1    R(1,2)                  0.9654         -DE/DX =    0.0                 !
 ! R2    R(2,3)                  1.6528         -DE/DX =    0.0                 !
 ! R3    R(3,4)                  1.6461         -DE/DX =    0.0                 !
 ! R4    R(3,5)                  1.4951         -DE/DX =    0.0                 !
 ! R5    R(3,6)                  1.5015         -DE/DX =    0.0                 !
 ! R6    R(4,7)                  1.4167         -DE/DX =    0.0                 !
 ! R7    R(7,8)                  1.0974         -DE/DX =    0.0                 !
 ! R8    R(7,9)                  1.0928         -DE/DX =    0.0                 !
 ! R9    R(7,10)                 1.0956         -DE/DX =    0.0                 !
 ! A1    A(1,2,3)              108.2905         -DE/DX =    0.0                 !
 ! A2    A(2,3,4)              101.0067         -DE/DX =    0.0                 !
 ! A3    A(2,3,5)              108.1122         -DE/DX =    0.0                 !
 ! A4    A(2,3,6)              107.71           -DE/DX =    0.0                 !
 ! A5    A(4,3,5)              105.283          -DE/DX =    0.0                 !
 ! A6    A(4,3,6)              109.9688         -DE/DX =    0.0                 !
 ! A7    A(5,3,6)              122.648          -DE/DX =    0.0                 !
 ! A8    A(3,4,7)              117.6745         -DE/DX =    0.0                 !
 ! A9    A(4,7,8)              111.0752         -DE/DX =    0.0                 !
 ! A10   A(4,7,9)              107.5501         -DE/DX =    0.0                 !
 ! A11   A(4,7,10)             111.2889         -DE/DX =    0.0                 !
 ! A12   A(8,7,9)              108.8119         -DE/DX =    0.0                 !
 ! A13   A(8,7,10)             108.8565         -DE/DX =    0.0                 !
 ! A14   A(9,7,10)             109.2054         -DE/DX =    0.0                 !
 ! D1    D(1,2,3,4)           -105.8705         -DE/DX =    0.0                 !
 ! D2    D(1,2,3,5)            143.8777         -DE/DX =    0.0                 !
 ! D3    D(1,2,3,6)              9.4275         -DE/DX =    0.0                 !
 ! D4    D(2,3,4,7)             65.8143         -DE/DX =    0.0                 !
 ! D5    D(5,3,4,7)            178.2387         -DE/DX =    0.0                 !
 ! D6    D(6,3,4,7)            -47.7886         -DE/DX =    0.0                 !
 ! D7    D(3,4,7,8)            -60.0219         -DE/DX =    0.0                 !
 ! D8    D(3,4,7,9)           -178.9902         -DE/DX =    0.0                 !
 ! D9    D(3,4,7,10)            61.4378         -DE/DX =    0.0                 !
 --------------------------------------------------------------------------------
 GradGradGradGradGradGradGradGradGradGradGradGradGradGradGradGradGradGrad

 Largest change from initial coordinates is atom    1       0.288 Angstoms.
 Leave Link  103 at Tue Apr  7 09:45:12 2020, MaxMem=13421772800 cpu:       0.0
 (Enter /opt/g09gh/gaussian/g09/l202.exe)
                          Input orientation:                          
 ---------------------------------------------------------------------
 Center     Atomic      Atomic             Coordinates (Angstroms)
 Number     Number       Type             X           Y           Z
 ---------------------------------------------------------------------
      1          1           0        0.199896    1.225088   -1.709261
      2          8           0        0.398015    1.387436   -0.778441
      3         15           0        0.454602   -0.068670    0.001463
      4          8           0       -0.964499   -0.034139    0.834932
      5          8           0        1.525059    0.003081    1.042762
      6          8           0        0.410419   -1.147606   -1.041791
      7          6           0       -2.167462   -0.051420    0.086927
      8          1           0       -2.227431    0.814926   -0.584035
      9          1           0       -2.997363   -0.005745    0.796446
     10          1           0       -2.252434   -0.967052   -0.508602
 ---------------------------------------------------------------------
                    Distance matrix (angstroms):
                    1          2          3          4          5
     1  H    0.000000
     2  O    0.965419   0.000000
     3  P    2.159921   1.652785   0.000000
     4  O    3.068287   2.545642   1.646120   0.000000
     5  O    3.289830   2.550185   1.495102   2.498495   0.000000
     6  O    2.473764   2.548715   1.501477   2.579205   2.629042
     7  C    3.234215   3.066079   2.623513   1.416662   3.814617
     8  H    2.706711   2.694166   2.883895   2.080715   4.169741
     9  H    4.244524   3.993723   3.542883   2.033427   4.529134
    10  H    3.501568   3.555462   2.897465   2.081871   4.197302
                    6          7          8          9         10
     6  O    0.000000
     7  C    3.020116   0.000000
     8  H    3.319537   1.097425   0.000000
     9  H    4.036823   1.092813   1.781018   0.000000
    10  H    2.721705   1.095562   1.783749   1.783866   0.000000
 Stoichiometry    CH4O4P(1-)
 Framework group  C1[X(CH4O4P)]
 Deg. of freedom    24
 Full point group                 C1      NOp   1
 Largest Abelian subgroup         C1      NOp   1
 Largest concise Abelian subgroup C1      NOp   1
                         Standard orientation:                         
 ---------------------------------------------------------------------
 Center     Atomic      Atomic             Coordinates (Angstroms)
 Number     Number       Type             X           Y           Z
 ---------------------------------------------------------------------
      1          1           0       -0.328854    1.999463   -0.506558
      2          8           0       -0.510748    1.181984   -0.986846
      3         15           0       -0.494223   -0.068885    0.093317
      4          8           0        0.941986   -0.783698   -0.275542
      5          8           0       -1.541580   -1.052931   -0.319025
      6          8           0       -0.434458    0.519977    1.473210
      7          6           0        2.126645   -0.049106   -0.022784
      8          1           0        2.138173    0.889156   -0.591882
      9          1           0        2.970873   -0.665252   -0.341976
     10          1           0        2.231679    0.181891    1.042986
 ---------------------------------------------------------------------
 Rotational constants (GHZ):      4.3989223      2.6005693      2.5359221
 Leave Link  202 at Tue Apr  7 09:45:12 2020, MaxMem=13421772800 cpu:       0.0
 (Enter /opt/g09gh/gaussian/g09/l601.exe)
 Copying SCF densities to generalized density rwf, IOpCl= 0 IROHF=0.

 **********************************************************************

            Population analysis using the SCF density.

 **********************************************************************

 Orbital symmetries:
       Occupied  (A) (A) (A) (A) (A) (A) (A) (A) (A) (A) (A) (A)
                 (A) (A) (A) (A) (A) (A) (A) (A) (A) (A) (A) (A)
                 (A) (A) (A) (A) (A)
       Virtual   (A) (A) (A) (A) (A) (A) (A) (A) (A) (A) (A) (A)
                 (A) (A) (A) (A) (A) (A) (A) (A) (A) (A) (A) (A)
                 (A) (A) (A) (A) (A) (A) (A) (A) (A) (A) (A) (A)
                 (A) (A) (A) (A) (A) (A) (A) (A) (A) (A) (A) (A)
                 (A) (A) (A) (A) (A) (A) (A) (A) (A) (A) (A) (A)
                 (A) (A) (A) (A) (A) (A) (A) (A) (A) (A) (A) (A)
                 (A)
 The electronic state is 1-A.
 Alpha  occ. eigenvalues --  -77.32551 -19.26315 -19.26114 -19.18706 -19.18610
 Alpha  occ. eigenvalues --  -10.32900  -6.73339  -4.88380  -4.88249  -4.88014
 Alpha  occ. eigenvalues --   -1.13936  -1.08977  -1.02657  -0.99254  -0.77462
 Alpha  occ. eigenvalues --   -0.64232  -0.58033  -0.52849  -0.52491  -0.50816
 Alpha  occ. eigenvalues --   -0.46228  -0.43780  -0.41255  -0.38927  -0.36964
 Alpha  occ. eigenvalues --   -0.36239  -0.33774  -0.32749  -0.31494
 Alpha virt. eigenvalues --    0.16819   0.21926   0.22445   0.24909   0.25914
 Alpha virt. eigenvalues --    0.27859   0.30339   0.30914   0.33185   0.43807
 Alpha virt. eigenvalues --    0.44578   0.47463   0.56235   0.62818   0.67001
 Alpha virt. eigenvalues --    0.72172   0.77381   0.79829   0.89030   0.92585
 Alpha virt. eigenvalues --    0.94373   0.95889   0.96222   1.01959   1.02546
 Alpha virt. eigenvalues --    1.07674   1.08857   1.11493   1.13618   1.15391
 Alpha virt. eigenvalues --    1.17222   1.20996   1.23312   1.27478   1.31211
 Alpha virt. eigenvalues --    1.32080   1.32938   1.39833   1.45581   1.52810
 Alpha virt. eigenvalues --    1.60270   1.66286   1.73913   1.77939   1.84650
 Alpha virt. eigenvalues --    1.88495   1.89451   1.94386   1.95281   1.95755
 Alpha virt. eigenvalues --    1.98540   2.07355   2.14047   2.15652   2.21244
 Alpha virt. eigenvalues --    2.24438   2.26017   2.34059   2.40755   2.47364
 Alpha virt. eigenvalues --    2.49941   2.54001   2.62971   2.75446   2.86855
 Alpha virt. eigenvalues --    2.94994   2.99549   3.63120   3.81912   3.87789
 Alpha virt. eigenvalues --    4.03780   4.08858   4.36340
          Condensed to atoms (all electrons):
              1          2          3          4          5          6
     1  H    0.307434   0.247907  -0.002202   0.000471   0.000724   0.004529
     2  O    0.247907   8.353100   0.248914  -0.035058  -0.039082  -0.042609
     3  P   -0.002202   0.248914  12.358792   0.243968   0.583403   0.547218
     4  O    0.000471  -0.035058   0.243968   8.314294  -0.043460  -0.035680
     5  O    0.000724  -0.039082   0.583403  -0.043460   8.223726  -0.033135
     6  O    0.004529  -0.042609   0.547218  -0.035680  -0.033135   8.281132
     7  C   -0.000120  -0.003726  -0.014022   0.229525   0.000822  -0.002553
     8  H   -0.000167   0.010299  -0.005474  -0.037697  -0.000062  -0.001088
     9  H   -0.000009   0.000017   0.001205  -0.034418  -0.000043   0.000142
    10  H   -0.000015  -0.000462  -0.004273  -0.036793  -0.000059   0.008741
              7          8          9         10
     1  H   -0.000120  -0.000167  -0.000009  -0.000015
     2  O   -0.003726   0.010299   0.000017  -0.000462
     3  P   -0.014022  -0.005474   0.001205  -0.004273
     4  O    0.229525  -0.037697  -0.034418  -0.036793
     5  O    0.000822  -0.000062  -0.000043  -0.000059
     6  O   -0.002553  -0.001088   0.000142   0.008741
     7  C    4.923449   0.369103   0.385581   0.370882
     8  H    0.369103   0.580179  -0.032943  -0.040428
     9  H    0.385581  -0.032943   0.536667  -0.031872
    10  H    0.370882  -0.040428  -0.031872   0.569219
 Mulliken atomic charges:
              1
     1  H    0.441448
     2  O   -0.739301
     3  P    1.042470
     4  O   -0.565153
     5  O   -0.692834
     6  O   -0.726697
     7  C   -0.258942
     8  H    0.158278
     9  H    0.175673
    10  H    0.165058
 Sum of Mulliken atomic charges =  -1.00000
 Mulliken charges with hydrogens summed into heavy atoms:
              1
     2  O   -0.297853
     3  P    1.042470
     4  O   -0.565153
     5  O   -0.692834
     6  O   -0.726697
     7  C    0.240067
 Sum of Mulliken charges with hydrogens summed into heavy atoms =  -1.00000
 Electronic spatial extent (au):  <R**2>=            607.2674
 Charge=             -1.0000 electrons
 Dipole moment (field-independent basis, Debye):
    X=              6.1325    Y=              3.6940    Z=             -1.0626  Tot=              7.2376
 Quadrupole moment (field-independent basis, Debye-Ang):
   XX=            -47.3557   YY=            -44.3085   ZZ=            -52.7486
   XY=             -2.8174   XZ=             -0.3101   YZ=             -2.6990
 Traceless Quadrupole moment (field-independent basis, Debye-Ang):
   XX=              0.7819   YY=              3.8291   ZZ=             -4.6110
   XY=             -2.8174   XZ=             -0.3101   YZ=             -2.6990
 Octapole moment (field-independent basis, Debye-Ang**2):
  XXX=             20.4871  YYY=             19.1029  ZZZ=             -8.7996  XYY=              4.0617
  XXY=              8.1752  XXZ=              1.8505  XZZ=              4.7556  YZZ=             -5.6329
  YYZ=             -0.0357  XYZ=              1.2116
 Hexadecapole moment (field-independent basis, Debye-Ang**3):
 XXXX=           -399.7080 YYYY=           -150.5382 ZZZZ=           -186.2619 XXXY=            -19.0001
 XXXZ=             -5.9292 YYYX=             -9.1112 YYYZ=             -7.8680 ZZZX=              4.7106
 ZZZY=             -3.3278 XXYY=           -105.4923 XXZZ=            -98.5129 YYZZ=            -62.0951
 XXYZ=             -1.8326 YYXZ=             -2.5161 ZZXY=              2.7461
 N-N= 3.486571221432D+02 E-N=-2.325990958713D+03  KE= 6.786967340330D+02
 No NMR shielding tensors so no spin-rotation constants.
 Leave Link  601 at Tue Apr  7 09:45:13 2020, MaxMem=13421772800 cpu:       0.4
 (Enter /opt/g09gh/gaussian/g09/l9999.exe)
 1\1\GINC-NODE37\FOpt\RwB97XD\6-31G(d)\C1H4O4P1(1-)\BDW2292\07-Apr-2020
 \0\\#P opt=(maxcycle=400) wB97XD/6-31G* Guess=INDO MaxDisk=150GB SCRF=
 (PCM)\\MonoMethylPhosphate1H Gaussian OPT Calculation on node37.bme.ut
 exas.edu\\-1,1\H,0.1998958355,1.2250876689,-1.7092609984\O,0.398015293
 6,1.3874362198,-0.7784407485\P,0.4546018335,-0.0686698684,0.0014630254
 \O,-0.9644992273,-0.0341392129,0.8349318627\O,1.5250588256,0.003081465
 8,1.0427615577\O,0.4104187349,-1.1476058715,-1.0417912677\C,-2.1674621
 198,-0.0514196791,0.0869268144\H,-2.2274313168,0.8149262002,-0.5840350
 775\H,-2.9973633617,-0.0057453982,0.7964464868\H,-2.2524344974,-0.9670
 515246,-0.5086016549\\Version=EM64L-G09RevA.02\State=1-A\HF=-682.87344
 94\RMSD=4.366e-09\RMSF=1.956e-05\Dipole=-2.4731326,0.8198298,-1.148739
 7\Quadrupole=0.4483502,-1.238575,0.7902249,0.5158826,-1.8964508,-3.677
 3115\PG=C01 [X(C1H4O4P1)]\\@


 IF YOU WISH TO UNDERSTAND THE FRAGRANCE OF THE ROSE, 
 OR THE TENACITY OF THE OAK; 
 IF YOU ARE NOT SATISFIED UNTIL YOU KNOW THE SECRET PATHS 
 BY WHICH THE SUNSHINE AND THE AIR ACHIEVE THESE WONDERS; 
 IF YOU WISH TO SEE THE PATTERN WHICH UNDERLIES ONE LARGE FIELD OF 
 HUMAN EXPERIENCE AND HUMAN MEASUREMENT, THEN TAKE UP CHEMISTRY.

                                         -- C. A. COULSON, 1973.
 Job cpu time:  0 days  0 hours 16 minutes 23.0 seconds.
 File lengths (MBytes):  RWF=     52 Int=      0 D2E=      0 Chk=      3 Scr=      1
 Normal termination of Gaussian 09 at Tue Apr  7 09:45:13 2020.
