MonoMethylPhosphate1H Gaussian SP Calculation on node37.bme.utexas.edu  
SP        RMP2-FC                                                     6-311G(d,p)         
Number of atoms                            I               10
Info1-9                                    I   N=           9
          23          21           0           0           0         110
           1           2           1
Charge                                     I               -1
Multiplicity                               I                1
Number of electrons                        I               58
Number of alpha electrons                  I               29
Number of beta electrons                   I               29
Number of basis functions                  I              140
Number of independent functions            I              140
Number of point charges in /Mol/           I                0
Number of translation vectors              I                0
Atomic numbers                             I   N=          10
           1           8          15           8           8           8
           6           1           1           1
Nuclear charges                            R   N=          10
  1.00000000E+00  8.00000000E+00  1.50000000E+01  8.00000000E+00  8.00000000E+00
  8.00000000E+00  6.00000000E+00  1.00000000E+00  1.00000000E+00  1.00000000E+00
Current cartesian coordinates              R   N=          30
 -6.21443998E-01  3.77843748E+00 -9.57255890E-01 -9.65173843E-01  2.23362605E+00
 -1.86486868E+00 -9.33946119E-01 -1.30173785E-01  1.76343574E-01  1.78009556E+00
 -1.48097459E+00 -5.20698918E-01 -2.91316401E+00 -1.98975123E+00 -6.02869880E-01
 -8.21006636E-01  9.82614125E-01  2.78396344E+00  4.01877663E+00 -9.27968915E-02
 -4.30555202E-02  4.04056139E+00  1.68026133E+00 -1.11849488E+00  5.61413635E+00
 -1.25714409E+00 -6.46240984E-01  4.21726213E+00  3.43724176E-01  1.97095790E+00
Force Field                                I                0
Int Atom Types                             I   N=          10
           0           0           0           0           0           0
           0           0           0           0
MM charges                                 R   N=          10
  0.00000000E+00  0.00000000E+00  0.00000000E+00  0.00000000E+00  0.00000000E+00
  0.00000000E+00  0.00000000E+00  0.00000000E+00  0.00000000E+00  0.00000000E+00
Integer atomic weights                     I   N=          10
           1          16          31          16          16          16
          12           1           1           1
Real atomic weights                        R   N=          10
  1.00782504E+00  1.59949146E+01  3.09737634E+01  1.59949146E+01  1.59949146E+01
  1.59949146E+01  1.20000000E+01  1.00782504E+00  1.00782504E+00  1.00782504E+00
Atom fragment info                         I   N=          10
           0           0           0           0           0           0
           0           0           0           0
Atom residue num                           I   N=          10
           0           0           0           0           0           0
           0           0           0           0
Nuclear spins                              I   N=          10
           1           0           1           0           0           0
           0           1           1           1
Nuclear ZEff                               R   N=          10
 -1.00000000E+00 -5.60000000E+00 -1.29400000E+01 -5.60000000E+00 -5.60000000E+00
 -5.60000000E+00 -3.60000000E+00 -1.00000000E+00 -1.00000000E+00 -1.00000000E+00
Nuclear QMom                               R   N=          10
  0.00000000E+00  0.00000000E+00  0.00000000E+00  0.00000000E+00  0.00000000E+00
  0.00000000E+00  0.00000000E+00  0.00000000E+00  0.00000000E+00  0.00000000E+00
Nuclear GFac                               R   N=          10
  2.79284600E+00  0.00000000E+00  1.13160000E+00  0.00000000E+00  0.00000000E+00
  0.00000000E+00  0.00000000E+00  2.79284600E+00  2.79284600E+00  2.79284600E+00
MicOpt                                     I   N=          10
          -1          -1          -1          -1          -1          -1
          -1          -1          -1          -1
Number of contracted shells                I               53
Number of primitive shells                 I              107
Pure/Cartesian d shells                    I                0
Pure/Cartesian f shells                    I                0
Highest angular momentum                   I                2
Largest degree of contraction              I                6
Shell types                                I   N=          53
           0           0           0           1           0          -1
          -1          -1          -2           0           0           0
           0           0           0           1           1           1
           1           1          -2           0          -1          -1
          -1          -2           0          -1          -1          -1
          -2           0          -1          -1          -1          -2
           0          -1          -1          -1          -2           0
           0           0           1           0           0           0
           1           0           0           0           1
Number of primitives per shell             I   N=          53
           3           1           1           1           6           3
           1           1           1           6           3           1
           1           1           1           4           2           1
           1           1           1           6           3           1
           1           1           6           3           1           1
           1           6           3           1           1           1
           6           3           1           1           1           3
           1           1           1           3           1           1
           1           3           1           1           1
Shell to atom map                          I   N=          53
           1           1           1           1           2           2
           2           2           2           3           3           3
           3           3           3           3           3           3
           3           3           3           4           4           4
           4           4           5           5           5           5
           5           6           6           6           6           6
           7           7           7           7           7           8
           8           8           8           9           9           9
           9          10          10          10          10
Primitive exponents                        R   N=         107
  3.38650000E+01  5.09479000E+00  1.15879000E+00  3.25840000E-01  1.02741000E-01
  7.50000000E-01  8.58850000E+03  1.29723000E+03  2.99296000E+02  8.73771000E+01
  2.56789000E+01  3.74004000E+00  4.21175000E+01  9.62837000E+00  2.85332000E+00
  9.05661000E-01  2.55611000E-01  1.29200000E+00  7.74924000E+04  1.16058000E+04
  2.64596000E+03  7.54976000E+02  2.48755000E+02  9.11565000E+01  9.11565000E+01
  3.62257000E+01  1.52113000E+01  4.79417000E+00  1.80793000E+00  3.56816000E-01
  1.14783000E-01  3.84843000E+02  9.05521000E+01  2.91339000E+01  1.08862000E+01
  4.35259000E+00  1.77706000E+00  6.97005000E-01  2.53532000E-01  6.84930000E-02
  5.50000000E-01  8.58850000E+03  1.29723000E+03  2.99296000E+02  8.73771000E+01
  2.56789000E+01  3.74004000E+00  4.21175000E+01  9.62837000E+00  2.85332000E+00
  9.05661000E-01  2.55611000E-01  1.29200000E+00  8.58850000E+03  1.29723000E+03
  2.99296000E+02  8.73771000E+01  2.56789000E+01  3.74004000E+00  4.21175000E+01
  9.62837000E+00  2.85332000E+00  9.05661000E-01  2.55611000E-01  1.29200000E+00
  8.58850000E+03  1.29723000E+03  2.99296000E+02  8.73771000E+01  2.56789000E+01
  3.74004000E+00  4.21175000E+01  9.62837000E+00  2.85332000E+00  9.05661000E-01
  2.55611000E-01  1.29200000E+00  4.56324000E+03  6.82024000E+02  1.54973000E+02
  4.44553000E+01  1.30290000E+01  1.82773000E+00  2.09642000E+01  4.80331000E+00
  1.45933000E+00  4.83456000E-01  1.45585000E-01  6.26000000E-01  3.38650000E+01
  5.09479000E+00  1.15879000E+00  3.25840000E-01  1.02741000E-01  7.50000000E-01
  3.38650000E+01  5.09479000E+00  1.15879000E+00  3.25840000E-01  1.02741000E-01
  7.50000000E-01  3.38650000E+01  5.09479000E+00  1.15879000E+00  3.25840000E-01
  1.02741000E-01  7.50000000E-01
Contraction coefficients                   R   N=         107
  2.54938145E-02  1.90373109E-01  8.52161486E-01  1.00000000E+00  1.00000000E+00
  1.00000000E+00  1.89515008E-03  1.43859006E-02  7.07320031E-02  2.40001011E-01
  5.94797026E-01  2.80802012E-01  1.13889012E-01  9.20811101E-01 -3.27447036E-03
  1.00000000E+00  1.00000000E+00  1.00000000E+00  7.81000147E-04  6.06800114E-03
  3.11600059E-02  1.23431023E-01  3.78209071E-01  5.63262106E-01  1.60255011E-01
  6.27647045E-01  2.63849019E-01  1.00000000E+00  1.00000000E+00  1.00000000E+00
  1.00000000E+00  9.20599888E-03  6.98739915E-02  2.92469964E-01  7.28102911E-01
  6.28348873E-01  4.28043913E-01  1.00000000E+00  1.00000000E+00  1.00000000E+00
  1.00000000E+00  1.89515008E-03  1.43859006E-02  7.07320031E-02  2.40001011E-01
  5.94797026E-01  2.80802012E-01  1.13889012E-01  9.20811101E-01 -3.27447036E-03
  1.00000000E+00  1.00000000E+00  1.00000000E+00  1.89515008E-03  1.43859006E-02
  7.07320031E-02  2.40001011E-01  5.94797026E-01  2.80802012E-01  1.13889012E-01
  9.20811101E-01 -3.27447036E-03  1.00000000E+00  1.00000000E+00  1.00000000E+00
  1.89515008E-03  1.43859006E-02  7.07320031E-02  2.40001011E-01  5.94797026E-01
  2.80802012E-01  1.13889012E-01  9.20811101E-01 -3.27447036E-03  1.00000000E+00
  1.00000000E+00  1.00000000E+00  1.96665025E-03  1.52306019E-02  7.61269097E-02
  2.60801033E-01  6.16462078E-01  2.21006028E-01  1.14660081E-01  9.19999648E-01
 -3.03068213E-03  1.00000000E+00  1.00000000E+00  1.00000000E+00  2.54938145E-02
  1.90373109E-01  8.52161486E-01  1.00000000E+00  1.00000000E+00  1.00000000E+00
  2.54938145E-02  1.90373109E-01  8.52161486E-01  1.00000000E+00  1.00000000E+00
  1.00000000E+00  2.54938145E-02  1.90373109E-01  8.52161486E-01  1.00000000E+00
  1.00000000E+00  1.00000000E+00
P(S=P) Contraction coefficients            R   N=         107
  0.00000000E+00  0.00000000E+00  0.00000000E+00  0.00000000E+00  0.00000000E+00
  0.00000000E+00  0.00000000E+00  0.00000000E+00  0.00000000E+00  0.00000000E+00
  0.00000000E+00  0.00000000E+00  3.65113974E-02  2.37152983E-01  8.19701941E-01
  1.00000000E+00  1.00000000E+00  0.00000000E+00  0.00000000E+00  0.00000000E+00
  0.00000000E+00  0.00000000E+00  0.00000000E+00  0.00000000E+00  0.00000000E+00
  0.00000000E+00  0.00000000E+00  0.00000000E+00  0.00000000E+00  0.00000000E+00
  0.00000000E+00  0.00000000E+00  0.00000000E+00  0.00000000E+00  0.00000000E+00
  0.00000000E+00  0.00000000E+00  0.00000000E+00  0.00000000E+00  0.00000000E+00
  0.00000000E+00  0.00000000E+00  0.00000000E+00  0.00000000E+00  0.00000000E+00
  0.00000000E+00  0.00000000E+00  3.65113974E-02  2.37152983E-01  8.19701941E-01
  1.00000000E+00  1.00000000E+00  0.00000000E+00  0.00000000E+00  0.00000000E+00
  0.00000000E+00  0.00000000E+00  0.00000000E+00  0.00000000E+00  3.65113974E-02
  2.37152983E-01  8.19701941E-01  1.00000000E+00  1.00000000E+00  0.00000000E+00
  0.00000000E+00  0.00000000E+00  0.00000000E+00  0.00000000E+00  0.00000000E+00
  0.00000000E+00  3.65113974E-02  2.37152983E-01  8.19701941E-01  1.00000000E+00
  1.00000000E+00  0.00000000E+00  0.00000000E+00  0.00000000E+00  0.00000000E+00
  0.00000000E+00  0.00000000E+00  0.00000000E+00  4.02486927E-02  2.37593957E-01
  8.15853851E-01  1.00000000E+00  1.00000000E+00  0.00000000E+00  0.00000000E+00
  0.00000000E+00  0.00000000E+00  0.00000000E+00  0.00000000E+00  0.00000000E+00
  0.00000000E+00  0.00000000E+00  0.00000000E+00  0.00000000E+00  0.00000000E+00
  0.00000000E+00  0.00000000E+00  0.00000000E+00  0.00000000E+00  0.00000000E+00
  0.00000000E+00  0.00000000E+00
Coordinates of each shell                  R   N=         159
 -6.21444781E-01  3.77843723E+00 -9.57255791E-01 -6.21444781E-01  3.77843723E+00
 -9.57255791E-01 -6.21444781E-01  3.77843723E+00 -9.57255791E-01 -6.21444781E-01
  3.77843723E+00 -9.57255791E-01 -9.65174252E-01  2.23362572E+00 -1.86486858E+00
 -9.65174252E-01  2.23362572E+00 -1.86486858E+00 -9.65174252E-01  2.23362572E+00
 -1.86486858E+00 -9.65174252E-01  2.23362572E+00 -1.86486858E+00 -9.65174252E-01
  2.23362572E+00 -1.86486858E+00 -9.33945954E-01 -1.30174111E-01  1.76343673E-01
 -9.33945954E-01 -1.30174111E-01  1.76343673E-01 -9.33945954E-01 -1.30174111E-01
  1.76343673E-01 -9.33945954E-01 -1.30174111E-01  1.76343673E-01 -9.33945954E-01
 -1.30174111E-01  1.76343673E-01 -9.33945954E-01 -1.30174111E-01  1.76343673E-01
 -9.33945954E-01 -1.30174111E-01  1.76343673E-01 -9.33945954E-01 -1.30174111E-01
  1.76343673E-01 -9.33945954E-01 -1.30174111E-01  1.76343673E-01 -9.33945954E-01
 -1.30174111E-01  1.76343673E-01 -9.33945954E-01 -1.30174111E-01  1.76343673E-01
 -9.33945954E-01 -1.30174111E-01  1.76343673E-01  1.78009605E+00 -1.48097426E+00
 -5.20698819E-01  1.78009605E+00 -1.48097426E+00 -5.20698819E-01  1.78009605E+00
 -1.48097426E+00 -5.20698819E-01  1.78009605E+00 -1.48097426E+00 -5.20698819E-01
  1.78009605E+00 -1.48097426E+00 -5.20698819E-01 -2.91316340E+00 -1.98975203E+00
 -6.02869780E-01 -2.91316340E+00 -1.98975203E+00 -6.02869780E-01 -2.91316340E+00
 -1.98975203E+00 -6.02869780E-01 -2.91316340E+00 -1.98975203E+00 -6.02869780E-01
 -2.91316340E+00 -1.98975203E+00 -6.02869780E-01 -8.21006742E-01  9.82613827E-01
  2.78396354E+00 -8.21006742E-01  9.82613827E-01  2.78396354E+00 -8.21006742E-01
  9.82613827E-01  2.78396354E+00 -8.21006742E-01  9.82613827E-01  2.78396354E+00
 -8.21006742E-01  9.82613827E-01  2.78396354E+00  4.01877679E+00 -9.27960167E-02
 -4.30554208E-02  4.01877679E+00 -9.27960167E-02 -4.30554208E-02  4.01877679E+00
 -9.27960167E-02 -4.30554208E-02  4.01877679E+00 -9.27960167E-02 -4.30554208E-02
  4.01877679E+00 -9.27960167E-02 -4.30554208E-02  4.04056112E+00  1.68026221E+00
 -1.11849478E+00  4.04056112E+00  1.68026221E+00 -1.11849478E+00  4.04056112E+00
  1.68026221E+00 -1.11849478E+00  4.04056112E+00  1.68026221E+00 -1.11849478E+00
  5.61413678E+00 -1.25714283E+00 -6.46240885E-01  5.61413678E+00 -1.25714283E+00
 -6.46240885E-01  5.61413678E+00 -1.25714283E+00 -6.46240885E-01  5.61413678E+00
 -1.25714283E+00 -6.46240885E-01  4.21726218E+00  3.43725099E-01  1.97095800E+00
  4.21726218E+00  3.43725099E-01  1.97095800E+00  4.21726218E+00  3.43725099E-01
  1.97095800E+00  4.21726218E+00  3.43725099E-01  1.97095800E+00
Constraint Structure                       R   N=          30
 -6.21444781E-01  3.77843723E+00 -9.57255791E-01 -9.65174252E-01  2.23362572E+00
 -1.86486858E+00 -9.33945954E-01 -1.30174111E-01  1.76343673E-01  1.78009605E+00
 -1.48097426E+00 -5.20698819E-01 -2.91316340E+00 -1.98975203E+00 -6.02869780E-01
 -8.21006742E-01  9.82613827E-01  2.78396354E+00  4.01877679E+00 -9.27960167E-02
 -4.30554208E-02  4.04056112E+00  1.68026221E+00 -1.11849478E+00  5.61413678E+00
 -1.25714283E+00 -6.46240885E-01  4.21726218E+00  3.43725099E-01  1.97095800E+00
Num ILSW                                   I              100
ILSW                                       I   N=         100
           0           0           0           0           2           0
           0           0           0           0           0 20132659200
           0           0           0           0           0           0
           0           0           0           0           0           0
           1           0           0           0           0           0
           0           0      100000           0          -1           0
           0           0           0           0           0           0
           0           0           0           1           0           0
           0           0           1           0           0           0
           0           0           4          40           0           0
           0           0           0           0           0           0
           0           0           0           0           0           0
           0           0           0           0           0           0
           0           0           0           0           0           0
           0           0           0           0           0           0
           0           0           0           0           0           0
           0           0           0           0
Num RLSW                                   I               40
RLSW                                       R   N=          40
  1.00000000E+00  1.00000000E+00  1.00000000E+00  1.00000000E+00  1.00000000E+00
  0.00000000E+00  0.00000000E+00  1.00000000E+00  0.00000000E+00  0.00000000E+00
  0.00000000E+00  0.00000000E+00  1.00000000E+00  0.00000000E+00  0.00000000E+00
  0.00000000E+00  0.00000000E+00  1.00000000E+00  0.00000000E+00  0.00000000E+00
  0.00000000E+00  0.00000000E+00  1.00000000E+00  0.00000000E+00  0.00000000E+00
  0.00000000E+00  0.00000000E+00  1.00000000E+00  0.00000000E+00  0.00000000E+00
  0.00000000E+00  0.00000000E+00  0.00000000E+00  0.00000000E+00  0.00000000E+00
  0.00000000E+00  0.00000000E+00  0.00000000E+00  1.00000000E+00  1.00000000E+00
MxBond                                     I                4
NBond                                      I   N=          10
           1           2           4           2           1           1
           4           1           1           1
IBond                                      I   N=          40
           2           0           0           0           1           3
           0           0           2           4           5           6
           3           7           0           0           3           0
           0           0           3           0           0           0
           4           8           9          10           7           0
           0           0           7           0           0           0
           7           0           0           0
RBond                                      R   N=          40
  1.00000000E+00  0.00000000E+00  0.00000000E+00  0.00000000E+00  1.00000000E+00
  1.00000000E+00  0.00000000E+00  0.00000000E+00  1.00000000E+00  1.00000000E+00
  2.00000000E+00  2.00000000E+00  1.00000000E+00  1.00000000E+00  0.00000000E+00
  0.00000000E+00  2.00000000E+00  0.00000000E+00  0.00000000E+00  0.00000000E+00
  2.00000000E+00  0.00000000E+00  0.00000000E+00  0.00000000E+00  1.00000000E+00
  1.00000000E+00  1.00000000E+00  1.00000000E+00  1.00000000E+00  0.00000000E+00
  0.00000000E+00  0.00000000E+00  1.00000000E+00  0.00000000E+00  0.00000000E+00
  0.00000000E+00  1.00000000E+00  0.00000000E+00  0.00000000E+00  0.00000000E+00
Virial Ratio                               R      2.000350646065547E+00
SCF Energy                                 R     -6.806122287562358E+02
MP2 Energy                                 R     -6.816793533528626E+02
Total Energy                               R     -6.816793533528626E+02
Post-SCF wavefunction norm                 R      1.135829709979461E+00
RMS Density                                R      3.309376993446060E-09
External E-field                           R   N=          35
  0.00000000E+00  0.00000000E+00  0.00000000E+00  0.00000000E+00  0.00000000E+00
  0.00000000E+00  0.00000000E+00  0.00000000E+00  0.00000000E+00  0.00000000E+00
  0.00000000E+00  0.00000000E+00  0.00000000E+00  0.00000000E+00  0.00000000E+00
  0.00000000E+00  0.00000000E+00  0.00000000E+00  0.00000000E+00  0.00000000E+00
  0.00000000E+00  0.00000000E+00  0.00000000E+00  0.00000000E+00  0.00000000E+00
  0.00000000E+00  0.00000000E+00  0.00000000E+00  0.00000000E+00  0.00000000E+00
  0.00000000E+00  0.00000000E+00  0.00000000E+00  0.00000000E+00  0.00000000E+00
IOpCl                                      I                0
IROHF                                      I                0
Alpha Orbital Energies                     R   N=         140
 -7.98718743E+01 -2.03969382E+01 -2.03936842E+01 -2.02933317E+01 -2.02798466E+01
 -1.11394276E+01 -7.39492481E+00 -5.29341516E+00 -5.29287450E+00 -5.29239627E+00
 -1.23492293E+00 -1.18256538E+00 -1.09475022E+00 -1.05452806E+00 -7.91405747E-01
 -6.03881232E-01 -5.31718049E-01 -4.87839233E-01 -4.74615214E-01 -4.59930488E-01
 -4.00289812E-01 -3.81787101E-01 -3.41355761E-01 -3.30967752E-01 -3.06224731E-01
 -2.77622463E-01 -2.58598077E-01 -2.39421154E-01 -2.23453840E-01  2.85070437E-01
  3.17107031E-01  3.55864660E-01  3.68286619E-01  4.22409519E-01  4.39621496E-01
  4.53794003E-01  4.67416624E-01  5.71023258E-01  5.91740816E-01  6.14571448E-01
  6.22099635E-01  6.42756990E-01  6.74040380E-01  7.57853276E-01  8.22430631E-01
  8.71577712E-01  9.02574076E-01  9.17530265E-01  9.24672113E-01  1.04239667E+00
  1.07784652E+00  1.10051699E+00  1.14642298E+00  1.16504825E+00  1.20823775E+00
  1.22704337E+00  1.28042224E+00  1.30960385E+00  1.34653337E+00  1.38529952E+00
  1.38810734E+00  1.41348866E+00  1.44261843E+00  1.46982474E+00  1.49298805E+00
  1.52871517E+00  1.62337970E+00  1.64532374E+00  1.68032522E+00  1.69493455E+00
  1.76325811E+00  1.81028666E+00  1.84169348E+00  1.85003675E+00  1.86583532E+00
  1.89296890E+00  1.95297055E+00  1.99918215E+00  2.05487254E+00  2.06786128E+00
  2.11965539E+00  2.14334712E+00  2.21405829E+00  2.34399675E+00  2.43092917E+00
  2.46045926E+00  2.53270645E+00  2.55652061E+00  2.77983115E+00  2.84258820E+00
  2.88875405E+00  2.95110255E+00  2.96493904E+00  2.96565725E+00  3.23504662E+00
  3.35017694E+00  3.42250605E+00  3.43343869E+00  3.44593173E+00  3.45616556E+00
  3.46396447E+00  3.48135984E+00  3.48825171E+00  3.55972073E+00  3.63104105E+00
  3.65282046E+00  3.67507573E+00  3.68944734E+00  3.72803347E+00  3.76094816E+00
  3.81207438E+00  3.93657217E+00  4.11130586E+00  4.15418715E+00  4.30272289E+00
  4.32719877E+00  4.34176940E+00  4.57902865E+00  5.53208262E+00  5.56519279E+00
  5.60527707E+00  5.62270673E+00  5.64581278E+00  5.66128529E+00  5.66558251E+00
  5.75851039E+00  5.88262965E+00  5.97894881E+00  6.17547187E+00  6.19705900E+00
  7.85765147E+00  1.49970840E+01  1.50933663E+01  1.52747850E+01  2.51478052E+01
  5.16884096E+01  5.17091146E+01  5.17431950E+01  5.18347386E+01  1.66372421E+02
Alpha MO coefficients                      R   N=       19600
 -3.55127862E-06  4.39903107E-05  8.48005507E-06 -2.06819248E-06 -1.68817437E-05
  4.37778925E-06  3.63030810E-07  1.41429165E-07  1.06391691E-07 -3.02994282E-06
  2.97564587E-06  1.17810815E-05 -8.75739034E-07  6.02345500E-06 -8.77287089E-06
 -5.33987190E-05 -2.80299306E-06  2.75583953E-06 -3.81988025E-05 -4.27763554E-06
 -1.85089867E-06  9.43052489E-06  1.08614137E-05 -1.59129753E-06  4.19271994E-01
  6.46642700E-01  1.07500889E-02 -1.06094464E-03  4.39282457E-04 -8.70176029E-05
  5.39207807E-05  2.57617216E-05 -4.62183852E-05 -1.84978429E-05 -8.94244366E-06
  1.52667501E-05  1.48777397E-05  7.89426324E-06 -1.02616225E-05 -1.63228324E-05
 -9.31427956E-06  1.30101509E-05 -3.17883489E-05 -2.10932728E-05  7.83895467E-07
  1.06233734E-06  4.08349830E-06  1.03315006E-05 -1.77085131E-06  9.11780626E-06
  6.27447835E-07 -1.04606072E-06 -3.51720172E-06  1.28923991E-06  1.98482373E-07
  1.95942967E-05  9.34820902E-06 -2.65022005E-06  1.69004002E-07 -6.97777688E-05
  1.58350773E-05 -3.45850177E-05 -2.01198428E-05  8.67372735E-06  4.99780650E-06
 -4.73095952E-06 -7.76033402E-06  8.75540143E-06  2.73317123E-07  8.10606253E-07
  4.59739017E-06  3.67670389E-06  7.34884872E-07  1.41674109E-05 -2.02032222E-05
 -1.70521201E-05 -4.73633542E-06 -7.63971307E-05 -2.89710493E-05 -3.08971822E-05
 -1.83726095E-05  8.63751962E-06 -7.30080095E-06 -6.80812519E-06 -1.37579333E-06
 -1.78151997E-05  7.28930375E-08  1.94093208E-06 -6.47922973E-08 -1.43148519E-06
 -4.49118907E-06  6.46044047E-06  6.17254347E-07  7.36892564E-06  2.10806262E-05
 -4.74215368E-05  4.37647050E-06  2.36516310E-05  4.26583575E-05 -1.70569707E-05
 -8.96907082E-07 -1.39869628E-05  2.19311416E-06 -7.28687925E-07 -1.86754564E-07
  4.35272792E-07  1.97995831E-06 -3.36614309E-08 -6.09499867E-07 -9.15022318E-06
 -6.89564900E-06  1.34474042E-07  2.71935467E-06  5.68606064E-05 -5.33353196E-05
  1.83561341E-05  1.01522720E-05 -6.81642813E-07  9.33987358E-07 -2.62452156E-06
  6.12088639E-06  3.50940677E-06  1.55210494E-06 -1.84671492E-05  6.45773213E-06
  2.46284057E-06 -8.18268451E-07 -2.77657688E-06 -5.03265668E-07  1.32782563E-05
  8.12321588E-06 -2.03889139E-07  2.40720950E-06  1.04998179E-06  2.12406968E-06
 -2.17426181E-05  8.35882215E-06  3.28332841E-06 -2.03859944E-06  1.90713003E-06
  1.97242241E-04  7.01297131E-05  2.49630073E-05 -1.28332928E-05 -9.01531320E-05
 -1.50741156E-05  5.51452370E-01  4.71662132E-01  3.56910655E-04  3.56036382E-04
  1.42205570E-03  5.59795886E-03 -1.32178500E-04 -2.14159906E-04 -4.67736021E-04
 -6.45849767E-04  3.47247829E-05  2.06790473E-04  2.30401894E-05  1.36357000E-05
 -1.97033278E-05 -1.58404264E-05  1.03172973E-04 -2.72471811E-05  2.44508591E-06
  5.65255816E-06 -3.13768915E-06 -5.94459163E-05  2.85230977E-05  5.64107584E-04
 -9.23575433E-07 -7.08604686E-06  6.19389747E-06  2.77506287E-06 -2.79343162E-05
  2.20921012E-05 -1.34005481E-05  3.61962338E-05 -2.59497040E-05  1.76360847E-05
  1.66715555E-04 -1.38837355E-04  4.53416493E-05  7.68039296E-05 -1.56468298E-04
  6.25092903E-06 -1.32470308E-06 -8.23809799E-05 -5.79045974E-05 -4.52729816E-07
 -1.21946238E-03 -1.04374804E-03  4.08989708E-06 -1.93942707E-06  2.16314101E-06
 -8.51378985E-07 -6.00580042E-06 -1.84338814E-05 -8.28599257E-06 -8.01499592E-05
  8.11952602E-05  3.06737269E-06  4.75458693E-05  1.65103241E-07 -2.90761592E-06
  2.90906088E-06  2.68147818E-06  6.19078455E-06 -3.45664087E-05 -3.31175438E-05
 -2.49478350E-06 -4.15717842E-06  3.59418590E-06  3.39368094E-05  6.73515786E-06
 -4.86516468E-07 -7.16367408E-06 -1.35711942E-04 -3.47986540E-05 -4.98346078E-05
  4.06127931E-05  1.51794550E-06  3.85474569E-06  2.87212755E-06  2.31104586E-06
  3.53274087E-07 -5.12250504E-05 -4.78739657E-05 -3.42327056E-07 -3.99525889E-06
  1.11092856E-05  3.69697460E-05  1.84872933E-06  4.11943365E-06 -2.19434250E-05
 -1.27900568E-04 -6.53347205E-06 -3.73933129E-05  1.10850953E-04 -7.37489120E-06
  2.78222425E-07  8.29241340E-06 -1.64601552E-06  5.64942742E-07  1.15095762E-07
  6.44648005E-07 -4.02120696E-06 -3.33478167E-07 -2.77345816E-07  1.21543477E-05
  1.19264700E-05 -1.56246119E-06  2.45035226E-06 -1.47557769E-04  6.21496637E-05
 -2.51084309E-05 -3.21970474E-05  6.90687204E-07  2.09006540E-06  3.01701376E-06
 -6.50871796E-07  1.03297468E-06 -2.27833568E-06  2.59454588E-05 -4.95588116E-06
  4.73330276E-07 -4.89359519E-06  8.32528020E-06  4.77894316E-07 -1.45628899E-06
 -1.84978215E-05  1.19336149E-06 -3.23033562E-07  1.74047399E-06 -4.56556302E-06
  4.22635206E-05  2.52090723E-05 -4.36870550E-06  5.50540821E-07 -5.42637217E-06
  6.56295950E-06 -8.39992522E-06  1.78064541E-06 -1.58398170E-07 -9.56275994E-07
 -1.69990443E-06  1.22121868E-03  1.04206750E-03 -2.27693297E-06  4.39460039E-06
  3.32095943E-06  4.01552610E-05 -9.99430060E-08 -5.37105938E-07 -7.60479213E-06
 -1.29340845E-04 -3.96364458E-05  6.13063975E-05 -1.54345308E-05  3.11037455E-06
 -5.21688922E-06  1.46971668E-06  2.53427308E-06  5.02727425E-06  2.49613548E-06
  5.72033093E-06 -2.89019206E-06 -6.15186462E-05  5.33990491E-05  4.25374666E-04
 -8.50000553E-06  3.12864919E-06  2.54287897E-06 -3.19868341E-05  1.53147021E-05
  6.51750083E-06  4.20769361E-05 -3.50445332E-05 -6.21689635E-06  1.74891787E-04
 -2.32137232E-05 -3.92603254E-05  1.06012411E-04 -7.42440690E-05 -6.02412892E-05
 -2.96251088E-05 -2.72642656E-05  9.08938042E-07  6.05533429E-05 -5.24425791E-05
  5.51454585E-01  4.71655673E-01  2.37103352E-04  1.38841866E-03  5.68935696E-04
  5.64658478E-03 -1.68745878E-04 -4.90775448E-04 -2.00009672E-04 -7.84290095E-04
  4.10115347E-05  3.28460726E-05  1.80741733E-05  9.97097456E-05 -1.97114656E-05
 -4.13890737E-05 -7.57118449E-05 -7.43137930E-05 -3.57919113E-05 -3.38095164E-05
 -5.90802180E-06 -2.52727717E-07  3.99496494E-07  2.86416010E-05  5.01003848E-06
  1.85975005E-06 -1.11238083E-06 -1.01899076E-04 -4.63504172E-05  4.02586501E-06
  1.22141191E-05 -1.14893719E-06  1.84058743E-06  2.94759776E-06 -1.25389627E-06
  2.04922503E-06 -4.53597114E-05 -4.19023976E-05 -5.84046262E-06  4.16560913E-06
  5.31036458E-06  2.97309213E-05  7.88295667E-06 -5.57807312E-06 -8.70936197E-06
 -1.08805037E-04 -5.89792496E-05  4.36835001E-05  5.95348665E-05  7.80325357E-07
  7.92002812E-06 -3.29009408E-06  6.26682173E-08  3.83849899E-06 -2.98238184E-06
 -2.96535662E-05 -1.66589086E-05 -2.54754686E-05 -9.57872241E-06  8.74191324E-05
 -2.17591161E-04 -7.48566775E-05 -2.35853218E-05  2.77056076E-04 -4.99903871E-05
 -1.24504306E-04 -5.44895568E-05 -4.91776347E-05  3.01828714E-05 -5.46088755E-07
  7.19453112E-05  8.81197558E-05  9.28107243E-06 -4.15538053E-05 -1.05876930E-05
  1.82440052E-05  8.72239725E-06  1.66965409E-05  2.17408951E-05 -6.07953499E-05
 -3.87199176E-05 -1.27357911E-05  1.45013625E-05  7.29733560E-06  8.59555918E-06
 -3.66317209E-05  2.32464006E-06  1.43870052E-05  1.81169957E-05 -9.22899348E-06
  5.38875623E-06  5.11325208E-05 -6.17349927E-05 -5.80341914E-06 -1.20985010E-05
 -1.61640156E-05  5.31957776E-05  4.30596232E-05 -6.67267473E-08  5.12586466E-06
 -8.37568623E-06  3.25226020E-05  2.71778599E-07 -1.20239305E-05  8.25720540E-06
 -1.70285534E-04 -1.80014867E-05  7.72712033E-06 -1.17118880E-04 -6.32430138E-06
 -2.40236311E-06 -4.13319220E-06  4.74474566E-06 -1.25479642E-06  4.59310654E-06
  1.03519494E-05 -5.49374666E-06 -1.07472107E-04  9.23454054E-05  5.57708187E-04
 -1.57213907E-06 -5.11037436E-06 -1.00186237E-05  2.65003278E-07 -2.37049010E-05
 -6.07060777E-05 -1.32050111E-05  2.37530059E-05  9.07988470E-05  4.48412663E-05
  1.28365896E-04  1.90165499E-04  8.14311317E-05  1.34215652E-04  1.54989540E-04