 Entering Gaussian System, Link 0=g09
 Input=MonoMethylPhosphate1H-dma.com
 Output=MonoMethylPhosphate1H-dma.log
 Initial command:
 /opt/g09gh/gaussian/g09/l1.exe /scratch/bdw2292/Gau-MonoMethylPhosphate1H/Gau-6359.inp -scrdir=/scratch/bdw2292/Gau-MonoMethylPhosphate1H/
 Entering Link 1 = /opt/g09gh/gaussian/g09/l1.exe PID=      6360.
  
 Copyright (c) 1988,1990,1992,1993,1995,1998,2003,2009, Gaussian, Inc.
                  All Rights Reserved.
  
 This is part of the Gaussian(R) 09 program.  It is based on
 the Gaussian(R) 03 system (copyright 2003, Gaussian, Inc.),
 the Gaussian(R) 98 system (copyright 1998, Gaussian, Inc.),
 the Gaussian(R) 94 system (copyright 1995, Gaussian, Inc.),
 the Gaussian 92(TM) system (copyright 1992, Gaussian, Inc.),
 the Gaussian 90(TM) system (copyright 1990, Gaussian, Inc.),
 the Gaussian 88(TM) system (copyright 1988, Gaussian, Inc.),
 the Gaussian 86(TM) system (copyright 1986, Carnegie Mellon
 University), and the Gaussian 82(TM) system (copyright 1983,
 Carnegie Mellon University). Gaussian is a federally registered
 trademark of Gaussian, Inc.
  
 This software contains proprietary and confidential information,
 including trade secrets, belonging to Gaussian, Inc.
  
 This software is provided under written license and may be
 used, copied, transmitted, or stored only in accord with that
 written license.
  
 The following legend is applicable only to US Government
 contracts under FAR:
  
                    RESTRICTED RIGHTS LEGEND
  
 Use, reproduction and disclosure by the US Government is
 subject to restrictions as set forth in subparagraphs (a)
 and (c) of the Commercial Computer Software - Restricted
 Rights clause in FAR 52.227-19.
  
 Gaussian, Inc.
 340 Quinnipiac St., Bldg. 40, Wallingford CT 06492
  
  
 ---------------------------------------------------------------
 Warning -- This program may not be used in any manner that
 competes with the business of Gaussian, Inc. or will provide
 assistance to any competitor of Gaussian, Inc.  The licensee
 of this program is prohibited from giving any competitor of
 Gaussian, Inc. access to this program.  By using this program,
 the user acknowledges that Gaussian, Inc. is engaged in the
 business of creating and licensing software in the field of
 computational chemistry and represents and warrants to the
 licensee that it is not a competitor of Gaussian, Inc. and that
 it will not use this program in any manner prohibited above.
 ---------------------------------------------------------------
  

 Cite this work as:
 Gaussian 09, Revision A.02,
 M. J. Frisch, G. W. Trucks, H. B. Schlegel, G. E. Scuseria, 
 M. A. Robb, J. R. Cheeseman, G. Scalmani, V. Barone, B. Mennucci, 
 G. A. Petersson, H. Nakatsuji, M. Caricato, X. Li, H. P. Hratchian, 
 A. F. Izmaylov, J. Bloino, G. Zheng, J. L. Sonnenberg, M. Hada, 
 M. Ehara, K. Toyota, R. Fukuda, J. Hasegawa, M. Ishida, T. Nakajima, 
 Y. Honda, O. Kitao, H. Nakai, T. Vreven, J. A. Montgomery, Jr., 
 J. E. Peralta, F. Ogliaro, M. Bearpark, J. J. Heyd, E. Brothers, 
 K. N. Kudin, V. N. Staroverov, R. Kobayashi, J. Normand, 
 K. Raghavachari, A. Rendell, J. C. Burant, S. S. Iyengar, J. Tomasi, 
 M. Cossi, N. Rega, J. M. Millam, M. Klene, J. E. Knox, J. B. Cross, 
 V. Bakken, C. Adamo, J. Jaramillo, R. Gomperts, R. E. Stratmann, 
 O. Yazyev, A. J. Austin, R. Cammi, C. Pomelli, J. W. Ochterski, 
 R. L. Martin, K. Morokuma, V. G. Zakrzewski, G. A. Voth, 
 P. Salvador, J. J. Dannenberg, S. Dapprich, A. D. Daniels, 
 O. Farkas, J. B. Foresman, J. V. Ortiz, J. Cioslowski, 
 and D. J. Fox, Gaussian, Inc., Wallingford CT, 2009.
 
 ******************************************
 Gaussian 09:  EM64L-G09RevA.02 11-Jun-2009
                 7-Apr-2020 
 ******************************************
 %RWF=/scratch/bdw2292/Gau-MonoMethylPhosphate1H/,150GB
 %Nosave
 %Chk=MonoMethylPhosphate1H-dma.chk
 %Mem=100GB
 %Nproc=4
 Will use up to    4 processors via shared memory.
 --------------------------------------------
 #P MP2/6-311G** Sp Density=MP2 MaxDisk=150GB
 --------------------------------------------
 1/30=1,38=1/1;
 2/12=2,17=6,18=5,40=1/2;
 3/5=4,6=6,7=101,11=9,16=1,25=1,30=1,71=1/1,2,3;
 4//1;
 5/5=2,38=5/2;
 8/6=4,10=2/1;
 9/15=1,16=-3/6;
 10/5=1,13=10/2;
 6/7=2,8=2,9=2,10=2,22=2/1;
 99/5=1,9=1/99;
 Leave Link    1 at Tue Apr  7 09:47:36 2020, MaxMem=13421772800 cpu:       0.2
 (Enter /opt/g09gh/gaussian/g09/l101.exe)
 ----------------------------------------------------------------------
 MonoMethylPhosphate1H Gaussian SP Calculation on node37.bme.utexas.edu
 ----------------------------------------------------------------------
 Symbolic Z-matrix:
 Charge = -1 Multiplicity = 1
 H                    -0.32885   1.99946  -0.50656 
 O                    -0.51075   1.18198  -0.98685 
 P                    -0.49422  -0.06889   0.09332 
 O                     0.94199  -0.7837   -0.27554 
 O                    -1.54158  -1.05293  -0.31903 
 O                    -0.43446   0.51998   1.47321 
 C                     2.12664  -0.04911  -0.02278 
 H                     2.13817   0.88916  -0.59188 
 H                     2.97087  -0.66525  -0.34198 
 H                     2.23168   0.18189   1.04299 
 
 NAtoms=     10 NQM=     10 NQMF=      0 NMic=      0 NMicF=      0 NTot=     10.
                    Isotopes and Nuclear Properties:
 (Nuclear quadrupole moments (NQMom) in fm**2, nuclear magnetic moments (NMagM)
  in nuclear magnetons)

  Atom         1           2           3           4           5           6           7           8           9          10
 IAtWgt=           1          16          31          16          16          16          12           1           1           1
 AtmWgt=   1.0078250  15.9949146  30.9737634  15.9949146  15.9949146  15.9949146  12.0000000   1.0078250   1.0078250   1.0078250
 NucSpn=           1           0           1           0           0           0           0           1           1           1
 AtZEff=   0.0000000   0.0000000   0.0000000   0.0000000   0.0000000   0.0000000   0.0000000   0.0000000   0.0000000   0.0000000
 NQMom=    0.0000000   0.0000000   0.0000000   0.0000000   0.0000000   0.0000000   0.0000000   0.0000000   0.0000000   0.0000000
 NMagM=    2.7928460   0.0000000   1.1316000   0.0000000   0.0000000   0.0000000   0.0000000   2.7928460   2.7928460   2.7928460
 Leave Link  101 at Tue Apr  7 09:47:37 2020, MaxMem=13421772800 cpu:       0.2
 (Enter /opt/g09gh/gaussian/g09/l202.exe)
                          Input orientation:                          
 ---------------------------------------------------------------------
 Center     Atomic      Atomic             Coordinates (Angstroms)
 Number     Number       Type             X           Y           Z
 ---------------------------------------------------------------------
      1          1           0       -0.328854    1.999463   -0.506558
      2          8           0       -0.510748    1.181984   -0.986846
      3         15           0       -0.494223   -0.068885    0.093317
      4          8           0        0.941986   -0.783698   -0.275542
      5          8           0       -1.541580   -1.052931   -0.319025
      6          8           0       -0.434458    0.519977    1.473210
      7          6           0        2.126645   -0.049106   -0.022784
      8          1           0        2.138173    0.889156   -0.591882
      9          1           0        2.970873   -0.665252   -0.341976
     10          1           0        2.231679    0.181891    1.042986
 ---------------------------------------------------------------------
                    Distance matrix (angstroms):
                    1          2          3          4          5
     1  H    0.000000
     2  O    0.965419   0.000000
     3  P    2.159921   1.652785   0.000000
     4  O    3.068287   2.545642   1.646120   0.000000
     5  O    3.289830   2.550185   1.495102   2.498495   0.000000
     6  O    2.473765   2.548715   1.501478   2.579205   2.629043
     7  C    3.234215   3.066079   2.623513   1.416661   3.814616
     8  H    2.706711   2.694165   2.883895   2.080715   4.169740
     9  H    4.244525   3.993723   3.542884   2.033427   4.529134
    10  H    3.501569   3.555462   2.897465   2.081871   4.197302
                    6          7          8          9         10
     6  O    0.000000
     7  C    3.020116   0.000000
     8  H    3.319537   1.097425   0.000000
     9  H    4.036824   1.092813   1.781018   0.000000
    10  H    2.721706   1.095563   1.783749   1.783866   0.000000
 Stoichiometry    CH4O4P(1-)
 Framework group  C1[X(CH4O4P)]
 Deg. of freedom    24
 Full point group                 C1      NOp   1
 Largest Abelian subgroup         C1      NOp   1
 Largest concise Abelian subgroup C1      NOp   1
                         Standard orientation:                         
 ---------------------------------------------------------------------
 Center     Atomic      Atomic             Coordinates (Angstroms)
 Number     Number       Type             X           Y           Z
 ---------------------------------------------------------------------
      1          1           0       -0.328854    1.999463   -0.506558
      2          8           0       -0.510748    1.181984   -0.986846
      3         15           0       -0.494223   -0.068885    0.093317
      4          8           0        0.941986   -0.783698   -0.275542
      5          8           0       -1.541580   -1.052931   -0.319025
      6          8           0       -0.434458    0.519977    1.473210
      7          6           0        2.126645   -0.049106   -0.022784
      8          1           0        2.138173    0.889156   -0.591882
      9          1           0        2.970873   -0.665251   -0.341976
     10          1           0        2.231679    0.181891    1.042986
 ---------------------------------------------------------------------
 Rotational constants (GHZ):      4.3989207      2.6005691      2.5359221
 Leave Link  202 at Tue Apr  7 09:47:37 2020, MaxMem=13421772800 cpu:       0.0
 (Enter /opt/g09gh/gaussian/g09/l301.exe)
 Standard basis: 6-311G(d,p) (5D, 7F)
 Ernie: Thresh=  0.10000D-02 Tol=  0.10000D-05 Strict=F.
 There are   140 symmetry adapted basis functions of A   symmetry.
 Integral buffers will be    131072 words long.
 Raffenetti 1 integral format.
 Two-electron integral symmetry is turned on.
   140 basis functions,   238 primitive gaussians,   146 cartesian basis functions
    29 alpha electrons       29 beta electrons
       nuclear repulsion energy       348.6602436878 Hartrees.
 IExCor=    0 DFT=F Ex=HF Corr=None ExCW=0 ScaHFX=  1.000000
 ScaDFX=  1.000000  1.000000  1.000000  1.000000 ScalE2=  1.000000  1.000000
 IRadAn=      0 IRanWt=     -1 IRanGd=            0 ICorTp=0
 NAtoms=   10 NActive=   10 NUniq=   10 SFac= 7.50D-01 NAtFMM=   80 NAOKFM=F Big=F
 Leave Link  301 at Tue Apr  7 09:47:37 2020, MaxMem=13421772800 cpu:       0.2
 (Enter /opt/g09gh/gaussian/g09/l302.exe)
 NPDir=0 NMtPBC=     1 NCelOv=     1 NCel=       1 NClECP=     1 NCelD=      1
         NCelK=      1 NCelE2=     1 NClLst=     1 CellRange=     0.0.
 One-electron integrals computed using PRISM.
 NBasis=   140 RedAO= T  NBF=   140
 NBsUse=   140 1.00D-06 NBFU=   140
 Leave Link  302 at Tue Apr  7 09:47:37 2020, MaxMem=13421772800 cpu:       0.7
 (Enter /opt/g09gh/gaussian/g09/l303.exe)
 DipDrv:  MaxL=1.
 Leave Link  303 at Tue Apr  7 09:47:37 2020, MaxMem=13421772800 cpu:       0.1
 (Enter /opt/g09gh/gaussian/g09/l401.exe)
 Harris functional with IExCor=  205 diagonalized for initial guess.
 ExpMin= 6.85D-02 ExpMax= 7.75D+04 ExpMxC= 2.65D+03 IAcc=2 IRadAn=         0 AccDes= 0.00D+00
 HarFok:  IExCor=  205 AccDes= 0.00D+00 IRadAn=         0 IDoV= 1
 ScaDFX=  1.000000  1.000000  1.000000  1.000000
 FoFCou: FMM=F IPFlag=           0 FMFlag=      100000 FMFlg1=           0
         NFxFlg=           0 DoJE=T BraDBF=F KetDBF=T FulRan=T
         Omega=  0.000000  0.000000  1.000000  0.000000  0.000000 ICntrl=     500 IOpCl=  0
         NMat0=    1 NMatS0=    1 NMatT0=    0 NMatD0=    1 NMtDS0=    0 NMtDT0=    0
         I1Cent=           4 NGrid=           0.
 Petite list used in FoFCou.
 Harris En= -680.804507911921    
 Initial guess orbital symmetries:
       Occupied  (A) (A) (A) (A) (A) (A) (A) (A) (A) (A) (A) (A)
                 (A) (A) (A) (A) (A) (A) (A) (A) (A) (A) (A) (A)
                 (A) (A) (A) (A) (A)
       Virtual   (A) (A) (A) (A) (A) (A) (A) (A) (A) (A) (A) (A)
                 (A) (A) (A) (A) (A) (A) (A) (A) (A) (A) (A) (A)
                 (A) (A) (A) (A) (A) (A) (A) (A) (A) (A) (A) (A)
                 (A) (A) (A) (A) (A) (A) (A) (A) (A) (A) (A) (A)
                 (A) (A) (A) (A) (A) (A) (A) (A) (A) (A) (A) (A)
                 (A) (A) (A) (A) (A) (A) (A) (A) (A) (A) (A) (A)
                 (A) (A) (A) (A) (A) (A) (A) (A) (A) (A) (A) (A)
                 (A) (A) (A) (A) (A) (A) (A) (A) (A) (A) (A) (A)
                 (A) (A) (A) (A) (A) (A) (A) (A) (A) (A) (A) (A)
                 (A) (A) (A)
 The electronic state of the initial guess is 1-A.
 Leave Link  401 at Tue Apr  7 09:47:37 2020, MaxMem=13421772800 cpu:       1.5
 (Enter /opt/g09gh/gaussian/g09/l502.exe)
 Closed shell SCF:
 Requested convergence on RMS density matrix=1.00D-08 within 128 cycles.
 Requested convergence on MAX density matrix=1.00D-06.
 Requested convergence on             energy=1.00D-06.
 No special actions if energy rises.
 Using DIIS extrapolation, IDIIS=  1040.
 Integral symmetry usage will be decided dynamically.
 Keep R1 ints in memory in canonical form, NReq=59254807.
 IEnd=       84059 IEndB=       84059 NGot= 13421772800 MDV= 13364144270
 LenX= 13364144270 LenY= 13364122513
 Symmetry not used in FoFDir.
 MinBra= 0 MaxBra= 2 Meth= 1.
 IRaf=       0 NMat=   1 IRICut=       1 DoRegI=T DoRafI=F ISym2E= 0 JSym2E=0.

 Cycle   1  Pass 1  IDiag  1:
 E= -680.234460611262    
 DIIS: error= 7.72D-02 at cycle   1 NSaved=   1.
 NSaved= 1 IEnMin= 1 EnMin= -680.234460611262     IErMin= 1 ErrMin= 7.72D-02
 ErrMax= 7.72D-02 EMaxC= 1.00D-01 BMatC= 1.21D+00 BMatP= 1.21D+00
 IDIUse=3 WtCom= 2.28D-01 WtEn= 7.72D-01
 Coeff-Com:  0.100D+01
 Coeff-En:   0.100D+01
 Coeff:      0.100D+01
 Gap=     0.601 Goal=   None    Shift=    0.000
 GapD=    0.601 DampG=2.000 DampE=0.500 DampFc=1.0000 IDamp=-1.
 RMSDP=4.05D-03 MaxDP=9.43D-02              OVMax= 1.37D-01

 Cycle   2  Pass 1  IDiag  1:
 E= -680.492868604282     Delta-E=       -0.258407993020 Rises=F Damp=F
 DIIS: error= 2.24D-02 at cycle   2 NSaved=   2.
 NSaved= 2 IEnMin= 2 EnMin= -680.492868604282     IErMin= 2 ErrMin= 2.24D-02
 ErrMax= 2.24D-02 EMaxC= 1.00D-01 BMatC= 1.90D-01 BMatP= 1.21D+00
 IDIUse=3 WtCom= 7.76D-01 WtEn= 2.24D-01
 Coeff-Com:  0.232D+00 0.768D+00
 Coeff-En:   0.524D-01 0.948D+00
 Coeff:      0.192D+00 0.808D+00
 Gap=     0.551 Goal=   None    Shift=    0.000
 RMSDP=2.34D-03 MaxDP=6.83D-02 DE=-2.58D-01 OVMax= 6.84D-02

 Cycle   3  Pass 1  IDiag  1:
 E= -680.596624786363     Delta-E=       -0.103756182081 Rises=F Damp=F
 DIIS: error= 9.31D-03 at cycle   3 NSaved=   3.
 NSaved= 3 IEnMin= 3 EnMin= -680.596624786363     IErMin= 3 ErrMin= 9.31D-03
 ErrMax= 9.31D-03 EMaxC= 1.00D-01 BMatC= 2.55D-02 BMatP= 1.90D-01
 IDIUse=3 WtCom= 9.07D-01 WtEn= 9.31D-02
 Coeff-Com: -0.141D-01 0.251D+00 0.763D+00
 Coeff-En:   0.000D+00 0.000D+00 0.100D+01
 Coeff:     -0.128D-01 0.228D+00 0.785D+00
 Gap=     0.503 Goal=   None    Shift=    0.000
 RMSDP=6.53D-04 MaxDP=2.38D-02 DE=-1.04D-01 OVMax= 2.35D-02

 Cycle   4  Pass 1  IDiag  1:
 E= -680.611861343061     Delta-E=       -0.015236556698 Rises=F Damp=F
 DIIS: error= 1.08D-03 at cycle   4 NSaved=   4.
 NSaved= 4 IEnMin= 4 EnMin= -680.611861343061     IErMin= 4 ErrMin= 1.08D-03
 ErrMax= 1.08D-03 EMaxC= 1.00D-01 BMatC= 4.40D-04 BMatP= 2.55D-02
 IDIUse=3 WtCom= 9.89D-01 WtEn= 1.08D-02
 Coeff-Com: -0.673D-02 0.457D-01 0.211D+00 0.750D+00
 Coeff-En:   0.000D+00 0.000D+00 0.000D+00 0.100D+01
 Coeff:     -0.665D-02 0.452D-01 0.209D+00 0.752D+00
 Gap=     0.509 Goal=   None    Shift=    0.000
 RMSDP=1.08D-04 MaxDP=2.96D-03 DE=-1.52D-02 OVMax= 3.82D-03

 Cycle   5  Pass 1  IDiag  1:
 E= -680.612195357677     Delta-E=       -0.000334014617 Rises=F Damp=F
 DIIS: error= 3.71D-04 at cycle   5 NSaved=   5.
 NSaved= 5 IEnMin= 5 EnMin= -680.612195357677     IErMin= 5 ErrMin= 3.71D-04
 ErrMax= 3.71D-04 EMaxC= 1.00D-01 BMatC= 2.76D-05 BMatP= 4.40D-04
 IDIUse=3 WtCom= 9.96D-01 WtEn= 3.71D-03
 Coeff-Com:  0.271D-03-0.134D-01-0.353D-01 0.131D+00 0.917D+00
 Coeff-En:   0.000D+00 0.000D+00 0.000D+00 0.000D+00 0.100D+01
 Coeff:      0.270D-03-0.133D-01-0.352D-01 0.130D+00 0.918D+00
 Gap=     0.508 Goal=   None    Shift=    0.000
 RMSDP=3.82D-05 MaxDP=7.39D-04 DE=-3.34D-04 OVMax= 1.21D-03

 Cycle   6  Pass 1  IDiag  1:
 E= -680.612224955308     Delta-E=       -0.000029597631 Rises=F Damp=F
 DIIS: error= 1.21D-04 at cycle   6 NSaved=   6.
 NSaved= 6 IEnMin= 6 EnMin= -680.612224955308     IErMin= 6 ErrMin= 1.21D-04
 ErrMax= 1.21D-04 EMaxC= 1.00D-01 BMatC= 2.13D-06 BMatP= 2.76D-05
 IDIUse=3 WtCom= 9.99D-01 WtEn= 1.21D-03
 Coeff-Com:  0.646D-03-0.641D-02-0.257D-01-0.522D-01 0.985D-01 0.985D+00
 Coeff-En:   0.000D+00 0.000D+00 0.000D+00 0.000D+00 0.000D+00 0.100D+01
 Coeff:      0.646D-03-0.641D-02-0.257D-01-0.522D-01 0.984D-01 0.985D+00
 Gap=     0.508 Goal=   None    Shift=    0.000
 RMSDP=1.54D-05 MaxDP=3.52D-04 DE=-2.96D-05 OVMax= 5.26D-04

 Cycle   7  Pass 1  IDiag  1:
 E= -680.612228382954     Delta-E=       -0.000003427645 Rises=F Damp=F
 DIIS: error= 2.67D-05 at cycle   7 NSaved=   7.
 NSaved= 7 IEnMin= 7 EnMin= -680.612228382954     IErMin= 7 ErrMin= 2.67D-05
 ErrMax= 2.67D-05 EMaxC= 1.00D-01 BMatC= 1.66D-07 BMatP= 2.13D-06
 IDIUse=1 WtCom= 1.00D+00 WtEn= 0.00D+00
 Coeff-Com:  0.557D-04 0.588D-03 0.115D-02-0.155D-01-0.773D-01 0.664D-01
 Coeff-Com:  0.102D+01
 Coeff:      0.557D-04 0.588D-03 0.115D-02-0.155D-01-0.773D-01 0.664D-01
 Coeff:      0.102D+01
 Gap=     0.508 Goal=   None    Shift=    0.000
 RMSDP=5.07D-06 MaxDP=8.94D-05 DE=-3.43D-06 OVMax= 2.12D-04

 Cycle   8  Pass 1  IDiag  1:
 E= -680.612228723596     Delta-E=       -0.000000340642 Rises=F Damp=F
 DIIS: error= 8.09D-06 at cycle   8 NSaved=   8.
 NSaved= 8 IEnMin= 8 EnMin= -680.612228723596     IErMin= 8 ErrMin= 8.09D-06
 ErrMax= 8.09D-06 EMaxC= 1.00D-01 BMatC= 1.24D-08 BMatP= 1.66D-07
 IDIUse=1 WtCom= 1.00D+00 WtEn= 0.00D+00
 Coeff-Com: -0.541D-04 0.451D-03 0.193D-02 0.508D-02-0.338D-02-0.713D-01
 Coeff-Com: -0.996D-01 0.117D+01
 Coeff:     -0.541D-04 0.451D-03 0.193D-02 0.508D-02-0.338D-02-0.713D-01
 Coeff:     -0.996D-01 0.117D+01
 Gap=     0.509 Goal=   None    Shift=    0.000
 RMSDP=1.55D-06 MaxDP=3.49D-05 DE=-3.41D-07 OVMax= 7.21D-05

 Cycle   9  Pass 1  IDiag  1:
 E= -680.612228753878     Delta-E=       -0.000000030282 Rises=F Damp=F
 DIIS: error= 2.27D-06 at cycle   9 NSaved=   9.
 NSaved= 9 IEnMin= 9 EnMin= -680.612228753878     IErMin= 9 ErrMin= 2.27D-06
 ErrMax= 2.27D-06 EMaxC= 1.00D-01 BMatC= 1.20D-09 BMatP= 1.24D-08
 IDIUse=1 WtCom= 1.00D+00 WtEn= 0.00D+00
 Coeff-Com: -0.944D-05 0.430D-05 0.668D-04 0.151D-02 0.532D-02-0.921D-02
 Coeff-Com: -0.915D-01 0.902D-01 0.100D+01
 Coeff:     -0.944D-05 0.430D-05 0.668D-04 0.151D-02 0.532D-02-0.921D-02
 Coeff:     -0.915D-01 0.902D-01 0.100D+01
 Gap=     0.509 Goal=   None    Shift=    0.000
 RMSDP=4.04D-07 MaxDP=1.04D-05 DE=-3.03D-08 OVMax= 1.73D-05

 Cycle  10  Pass 1  IDiag  1:
 E= -680.612228756021     Delta-E=       -0.000000002143 Rises=F Damp=F
 DIIS: error= 8.06D-07 at cycle  10 NSaved=  10.
 NSaved=10 IEnMin=10 EnMin= -680.612228756021     IErMin=10 ErrMin= 8.06D-07
 ErrMax= 8.06D-07 EMaxC= 1.00D-01 BMatC= 1.48D-10 BMatP= 1.20D-09
 IDIUse=1 WtCom= 1.00D+00 WtEn= 0.00D+00
 Coeff-Com:  0.338D-05-0.440D-04-0.183D-03-0.196D-03 0.162D-02 0.489D-02
 Coeff-Com: -0.112D-01-0.880D-01 0.212D+00 0.881D+00
 Coeff:      0.338D-05-0.440D-04-0.183D-03-0.196D-03 0.162D-02 0.489D-02
 Coeff:     -0.112D-01-0.880D-01 0.212D+00 0.881D+00
 Gap=     0.509 Goal=   None    Shift=    0.000
 RMSDP=1.03D-07 MaxDP=1.41D-06 DE=-2.14D-09 OVMax= 3.85D-06

 Cycle  11  Pass 1  IDiag  1:
 E= -680.612228756212     Delta-E=       -0.000000000191 Rises=F Damp=F
 DIIS: error= 3.20D-07 at cycle  11 NSaved=  11.
 NSaved=11 IEnMin=11 EnMin= -680.612228756212     IErMin=11 ErrMin= 3.20D-07
 ErrMax= 3.20D-07 EMaxC= 1.00D-01 BMatC= 1.45D-11 BMatP= 1.48D-10
 IDIUse=1 WtCom= 1.00D+00 WtEn= 0.00D+00
 Coeff-Com:  0.151D-05-0.839D-05-0.386D-04-0.185D-03-0.174D-03 0.175D-02
 Coeff-Com:  0.698D-02-0.236D-01-0.654D-01 0.153D+00 0.928D+00
 Coeff:      0.151D-05-0.839D-05-0.386D-04-0.185D-03-0.174D-03 0.175D-02
 Coeff:      0.698D-02-0.236D-01-0.654D-01 0.153D+00 0.928D+00
 Gap=     0.509 Goal=   None    Shift=    0.000
 RMSDP=3.55D-08 MaxDP=5.51D-07 DE=-1.91D-10 OVMax= 1.19D-06

 Cycle  12  Pass 1  IDiag  1:
 E= -680.612228756229     Delta-E=       -0.000000000018 Rises=F Damp=F
 DIIS: error= 8.30D-08 at cycle  12 NSaved=  12.
 NSaved=12 IEnMin=12 EnMin= -680.612228756229     IErMin=12 ErrMin= 8.30D-08
 ErrMax= 8.30D-08 EMaxC= 1.00D-01 BMatC= 1.34D-12 BMatP= 1.45D-11
 IDIUse=1 WtCom= 1.00D+00 WtEn= 0.00D+00
 Coeff-Com: -0.364D-06 0.558D-05 0.220D-04 0.962D-05-0.241D-03-0.494D-03
 Coeff-Com:  0.222D-02 0.863D-02-0.327D-01-0.871D-01 0.946D-01 0.102D+01
 Coeff:     -0.364D-06 0.558D-05 0.220D-04 0.962D-05-0.241D-03-0.494D-03
 Coeff:      0.222D-02 0.863D-02-0.327D-01-0.871D-01 0.946D-01 0.102D+01
 Gap=     0.509 Goal=   None    Shift=    0.000
 RMSDP=1.19D-08 MaxDP=1.60D-07 DE=-1.77D-11 OVMax= 4.57D-07

 Cycle  13  Pass 1  IDiag  1:
 E= -680.612228756236     Delta-E=       -0.000000000007 Rises=F Damp=F
 DIIS: error= 2.22D-08 at cycle  13 NSaved=  13.
 NSaved=13 IEnMin=13 EnMin= -680.612228756236     IErMin=13 ErrMin= 2.22D-08
 ErrMax= 2.22D-08 EMaxC= 1.00D-01 BMatC= 1.09D-13 BMatP= 1.34D-12
 IDIUse=1 WtCom= 1.00D+00 WtEn= 0.00D+00
 Coeff-Com: -0.119D-06 0.906D-06 0.365D-05 0.160D-04-0.306D-05-0.171D-03
 Coeff-Com: -0.364D-03 0.246D-02 0.191D-02-0.182D-01-0.575D-01 0.793D-01
 Coeff-Com:  0.993D+00
 Coeff:     -0.119D-06 0.906D-06 0.365D-05 0.160D-04-0.306D-05-0.171D-03
 Coeff:     -0.364D-03 0.246D-02 0.191D-02-0.182D-01-0.575D-01 0.793D-01
 Coeff:      0.993D+00
 Gap=     0.509 Goal=   None    Shift=    0.000
 RMSDP=3.31D-09 MaxDP=5.48D-08 DE=-6.59D-12 OVMax= 1.18D-07

 SCF Done:  E(RHF) =  -680.612228756     A.U. after   13 cycles
             Convg  =    0.3309D-08             -V/T =  2.0004
 KE= 6.803736584098D+02 PE=-2.326269423306D+03 EE= 6.166232924523D+02
 Leave Link  502 at Tue Apr  7 09:47:39 2020, MaxMem=13421772800 cpu:       8.0
 (Enter /opt/g09gh/gaussian/g09/l801.exe)
 ExpMin= 6.85D-02 ExpMax= 7.75D+04 ExpMxC= 2.65D+03 IAcc=3 IRadAn=         5 AccDes= 0.00D+00
 HarFok:  IExCor=  205 AccDes= 0.00D+00 IRadAn=         5 IDoV=-2
 ScaDFX=  1.000000  1.000000  1.000000  1.000000
 Largest valence mixing into a core orbital is  4.37D-04
 Largest core mixing into a valence orbital is  6.97D-05
 Range of M.O.s used for correlation:    11   140
 NBasis=   140 NAE=    29 NBE=    29 NFC=    10 NFV=     0
 NROrb=    130 NOA=    19 NOB=    19 NVA=   111 NVB=   111
 Leave Link  801 at Tue Apr  7 09:47:39 2020, MaxMem=13421772800 cpu:       0.5
 (Enter /opt/g09gh/gaussian/g09/l906.exe)
 Frozen-core derivative calculation, NFC=  10 NFV=   0.
 FulOut=F Deriv=T AODrv=F NAtomX=    10
   MMem=        8589  MDisk=          19 MDiskD=          19
  W3Min=      592760 MinDsk=      853657 NBas6D=         146
 NBas2D=       10938    NTT=       10731    LW2=     2040000
    MDV= 13421536584 MDiskM=     1276592 NBas2p=       10701
 Fully in-core method, ICMem=   126686944.
 IMap=   1   2   3   4   5   6   7   8   9  10  11  12  13  14  15  16  17  18  19  20
 IMap=  21  22  23  24  25  26  27  28  29
 JobTyp=1 Pass  1 fully in-core, NPsUse=  4.
 Compute canonical integrals, IntTyp=   4.
 Symmetry not used in FoFDir.
 MinBra= 0 MaxBra= 2 Meth= 1.
 IRaf=       0 NMat=   1 IRICut=       1 DoRegI=T DoRafI=F ISym2E= 0 JSym2E=0.
 Spin components of T(2) and E(2):
     alpha-alpha T2 =       0.3920466342D-01 E2=     -0.1418940026D+00
     alpha-beta  T2 =       0.2116998032D+00 E2=     -0.7833365915D+00
     beta-beta   T2 =       0.3920466342D-01 E2=     -0.1418940026D+00
 The integrals were generated   1 times.
 ANorm=    0.1135829710D+01
 E2 =    -0.1067124597D+01 EUMP2 =    -0.68167935335286D+03
 Leave Link  906 at Tue Apr  7 09:47:51 2020, MaxMem=13421772800 cpu:      45.8
 (Enter /opt/g09gh/gaussian/g09/l1002.exe)
 Minotr:  Closed shell wavefunction.
          Computing MP2/KS-MP2 derivatives.
          Using Z-Vector for PSCF gradient.
          Skipping F1 and S1 gradient terms here.
          Frozen-core window.
          Direct CPHF calculation.
          Differentiating once with respect to electric field.
                with respect to dipole field.
          Electric field/nuclear overlap derivatives assumed to be zero.
          Requested convergence is 1.0D-10 RMS, and 1.0D-09 maximum.
          NewPWx=F KeepS1=T KeepF1=T KeepIn=T MapXYZ=F SortEE=F KeepMc=T.
          MDV=   13421772716 using IRadAn=       0.
          Keep R1 ints in memory in canonical form, NReq=58403528.
 Symmetry not used in FoFDir.
 MinBra= 0 MaxBra= 2 Meth= 1.
 IRaf=       0 NMat=   1 IRICut=       1 DoRegI=T DoRafI=F ISym2E= 0 JSym2E=0.
          Solving linear equations separately, MaxMat=       0.
          There are     1 degrees of freedom in the 1st order CPHF.  IDoFFX=0.
 LinEq1:  Iter=  0 NonCon=     1 RMS=5.07D-03 Max=7.15D-02
 AX will form     1 AO Fock derivatives at one time.
 LinEq1:  Iter=  1 NonCon=     1 RMS=9.34D-04 Max=6.87D-03
 LinEq1:  Iter=  2 NonCon=     1 RMS=3.01D-04 Max=3.33D-03
 LinEq1:  Iter=  3 NonCon=     1 RMS=1.26D-04 Max=1.43D-03
 LinEq1:  Iter=  4 NonCon=     1 RMS=3.33D-05 Max=2.86D-04
 LinEq1:  Iter=  5 NonCon=     1 RMS=8.67D-06 Max=7.98D-05
 LinEq1:  Iter=  6 NonCon=     1 RMS=3.51D-06 Max=3.19D-05
 LinEq1:  Iter=  7 NonCon=     1 RMS=7.72D-07 Max=8.36D-06
 LinEq1:  Iter=  8 NonCon=     1 RMS=2.84D-07 Max=2.84D-06
 LinEq1:  Iter=  9 NonCon=     1 RMS=9.11D-08 Max=9.59D-07
 LinEq1:  Iter= 10 NonCon=     1 RMS=2.95D-08 Max=3.10D-07
 LinEq1:  Iter= 11 NonCon=     1 RMS=1.00D-08 Max=1.49D-07
 LinEq1:  Iter= 12 NonCon=     1 RMS=3.32D-09 Max=3.56D-08
 LinEq1:  Iter= 13 NonCon=     1 RMS=1.39D-09 Max=1.84D-08
 LinEq1:  Iter= 14 NonCon=     1 RMS=2.97D-10 Max=2.82D-09
 LinEq1:  Iter= 15 NonCon=     0 RMS=5.36D-11 Max=4.73D-10
 Linear equations converged to 1.000D-10 1.000D-09 after    15 iterations.
 End of Minotr Frequency-dependent properties file   721 does not exist.
 End of Minotr Frequency-dependent properties file   722 does not exist.
 Leave Link 1002 at Tue Apr  7 09:47:53 2020, MaxMem=13421772800 cpu:       9.4
 (Enter /opt/g09gh/gaussian/g09/l601.exe)
 Copying SCF densities to generalized density rwf, IOpCl= 0 IROHF=0.

 **********************************************************************

            Population analysis using the MP2 density.

 **********************************************************************

 Orbital symmetries:
       Occupied  (A) (A) (A) (A) (A) (A) (A) (A) (A) (A) (A) (A)
                 (A) (A) (A) (A) (A) (A) (A) (A) (A) (A) (A) (A)
                 (A) (A) (A) (A) (A)
       Virtual   (A) (A) (A) (A) (A) (A) (A) (A) (A) (A) (A) (A)
                 (A) (A) (A) (A) (A) (A) (A) (A) (A) (A) (A) (A)
                 (A) (A) (A) (A) (A) (A) (A) (A) (A) (A) (A) (A)
                 (A) (A) (A) (A) (A) (A) (A) (A) (A) (A) (A) (A)
                 (A) (A) (A) (A) (A) (A) (A) (A) (A) (A) (A) (A)
                 (A) (A) (A) (A) (A) (A) (A) (A) (A) (A) (A) (A)
                 (A) (A) (A) (A) (A) (A) (A) (A) (A) (A) (A) (A)
                 (A) (A) (A) (A) (A) (A) (A) (A) (A) (A) (A) (A)
                 (A) (A) (A) (A) (A) (A) (A) (A) (A) (A) (A) (A)
                 (A) (A) (A)
 The electronic state is 1-A.
 Alpha  occ. eigenvalues --  -79.87187 -20.39694 -20.39368 -20.29333 -20.27985
 Alpha  occ. eigenvalues --  -11.13943  -7.39492  -5.29342  -5.29287  -5.29240
 Alpha  occ. eigenvalues --   -1.23492  -1.18257  -1.09475  -1.05453  -0.79141
 Alpha  occ. eigenvalues --   -0.60388  -0.53172  -0.48784  -0.47462  -0.45993
 Alpha  occ. eigenvalues --   -0.40029  -0.38179  -0.34136  -0.33097  -0.30622
 Alpha  occ. eigenvalues --   -0.27762  -0.25860  -0.23942  -0.22345
 Alpha virt. eigenvalues --    0.28507   0.31711   0.35586   0.36829   0.42241
 Alpha virt. eigenvalues --    0.43962   0.45379   0.46742   0.57102   0.59174
 Alpha virt. eigenvalues --    0.61457   0.62210   0.64276   0.67404   0.75785
 Alpha virt. eigenvalues --    0.82243   0.87158   0.90257   0.91753   0.92467
 Alpha virt. eigenvalues --    1.04240   1.07785   1.10052   1.14642   1.16505
 Alpha virt. eigenvalues --    1.20824   1.22704   1.28042   1.30960   1.34653
 Alpha virt. eigenvalues --    1.38530   1.38811   1.41349   1.44262   1.46982
 Alpha virt. eigenvalues --    1.49299   1.52872   1.62338   1.64532   1.68033
 Alpha virt. eigenvalues --    1.69493   1.76326   1.81029   1.84169   1.85004
 Alpha virt. eigenvalues --    1.86584   1.89297   1.95297   1.99918   2.05487
 Alpha virt. eigenvalues --    2.06786   2.11966   2.14335   2.21406   2.34400
 Alpha virt. eigenvalues --    2.43093   2.46046   2.53271   2.55652   2.77983
 Alpha virt. eigenvalues --    2.84259   2.88875   2.95110   2.96494   2.96566
 Alpha virt. eigenvalues --    3.23505   3.35018   3.42251   3.43344   3.44593
 Alpha virt. eigenvalues --    3.45617   3.46396   3.48136   3.48825   3.55972
 Alpha virt. eigenvalues --    3.63104   3.65282   3.67508   3.68945   3.72803
 Alpha virt. eigenvalues --    3.76095   3.81207   3.93657   4.11131   4.15419
 Alpha virt. eigenvalues --    4.30272   4.32720   4.34177   4.57903   5.53208
 Alpha virt. eigenvalues --    5.56519   5.60528   5.62271   5.64581   5.66129
 Alpha virt. eigenvalues --    5.66558   5.75851   5.88263   5.97895   6.17547
 Alpha virt. eigenvalues --    6.19706   7.85765  14.99708  15.09337  15.27478
 Alpha virt. eigenvalues --   25.14781  51.68841  51.70911  51.74320  51.83474
 Alpha virt. eigenvalues --  166.37242
          Condensed to atoms (all electrons):
              1          2          3          4          5          6
     1  H    0.486361   0.286333  -0.023735   0.000980  -0.000198   0.007366
     2  O    0.286333   8.221996   0.193816  -0.034301  -0.036655  -0.042530
     3  P   -0.023735   0.193816  12.379318   0.217829   0.577083   0.518816
     4  O    0.000980  -0.034301   0.217829   8.315016  -0.041201  -0.037332
     5  O   -0.000198  -0.036655   0.577083  -0.041201   8.218852  -0.032394
     6  O    0.007366  -0.042530   0.518816  -0.037332  -0.032394   8.322290
     7  C    0.000802  -0.004442  -0.040709   0.228544   0.000857   0.001063
     8  H   -0.000510   0.019597  -0.016663  -0.038967  -0.000438  -0.002744
     9  H   -0.000036  -0.000136   0.000431  -0.029428  -0.000226   0.000392
    10  H   -0.000214  -0.001363  -0.012166  -0.036680  -0.000424   0.015304
              7          8          9         10
     1  H    0.000802  -0.000510  -0.000036  -0.000214
     2  O   -0.004442   0.019597  -0.000136  -0.001363
     3  P   -0.040709  -0.016663   0.000431  -0.012166
     4  O    0.228544  -0.038967  -0.029428  -0.036680
     5  O    0.000857  -0.000438  -0.000226  -0.000424
     6  O    0.001063  -0.002744   0.000392   0.015304
     7  C    4.753781   0.368929   0.376931   0.381826
     8  H    0.368929   0.709213  -0.042295  -0.050978
     9  H    0.376931  -0.042295   0.672126  -0.038451
    10  H    0.381826  -0.050978  -0.038451   0.657678
 Mulliken atomic charges:
              1
     1  H    0.242850
     2  O   -0.602315
     3  P    1.205981
     4  O   -0.544461
     5  O   -0.685256
     6  O   -0.750231
     7  C   -0.067583
     8  H    0.054856
     9  H    0.060692
    10  H    0.085468
 Sum of Mulliken atomic charges =  -1.00000
 Mulliken charges with hydrogens summed into heavy atoms:
              1
     2  O   -0.359465
     3  P    1.205981
     4  O   -0.544461
     5  O   -0.685256
     6  O   -0.750231
     7  C    0.133432
 Sum of Mulliken charges with hydrogens summed into heavy atoms =  -1.00000
 Electronic spatial extent (au):  <R**2>=            613.1353
 Charge=             -1.0000 electrons
 Dipole moment (field-independent basis, Debye):
    X=              4.9619    Y=              2.9406    Z=             -0.9051  Tot=              5.8384
 Quadrupole moment (field-independent basis, Debye-Ang):
   XX=            -50.9630   YY=            -46.8805   ZZ=            -54.4617
   XY=             -2.6942   XZ=             -0.2307   YZ=             -2.4834
 Traceless Quadrupole moment (field-independent basis, Debye-Ang):
   XX=             -0.1946   YY=              3.8879   ZZ=             -3.6933
   XY=             -2.6942   XZ=             -0.2307   YZ=             -2.4834
 Octapole moment (field-independent basis, Debye-Ang**2):
  XXX=             11.1973  YYY=             16.2321  ZZZ=             -9.3263  XYY=              3.3527
  XXY=              8.2213  XXZ=              2.4385  XZZ=              3.9025  YZZ=             -6.7773
  YYZ=              0.8316  XYZ=              1.0871
 Hexadecapole moment (field-independent basis, Debye-Ang**3):
 XXXX=           -445.3360 YYYY=           -166.5314 ZZZZ=           -197.4536 XXXY=            -18.6081
 XXXZ=             -4.6235 YYYX=             -8.9124 YYYZ=             -6.3491 ZZZX=              4.6620
 ZZZY=             -3.2595 XXYY=           -113.0810 XXZZ=           -104.8645 YYZZ=            -66.6760
 XXYZ=             -1.9298 YYXZ=             -2.3576 ZZXY=              2.7403
 N-N= 3.486602436878D+02 E-N=-2.327370593425D+03  KE= 6.819075262899D+02
 No NMR shielding tensors so no spin-rotation constants.
 Leave Link  601 at Tue Apr  7 09:47:54 2020, MaxMem=13421772800 cpu:       0.5
 (Enter /opt/g09gh/gaussian/g09/l9999.exe)
 1\1\GINC-NODE37\SP\RMP2-FC\6-311G(d,p)\C1H4O4P1(1-)\BDW2292\07-Apr-202
 0\0\\#P MP2/6-311G** Sp Density=MP2 MaxDisk=150GB\\MonoMethylPhosphate
 1H Gaussian SP Calculation on node37.bme.utexas.edu\\-1,1\H,0,-0.32885
 4,1.999463,-0.506558\O,0,-0.510748,1.181984,-0.986846\P,0,-0.494223,-0
 .068885,0.093317\O,0,0.941986,-0.783698,-0.275542\O,0,-1.54158,-1.0529
 31,-0.319025\O,0,-0.434458,0.519977,1.47321\C,0,2.126645,-0.049106,-0.
 022784\H,0,2.138173,0.889156,-0.591882\H,0,2.970873,-0.665252,-0.34197
 6\H,0,2.231679,0.181891,1.042986\\Version=EM64L-G09RevA.02\State=1-A\H
 F=-680.6122288\MP2=-681.6793534\RMSD=3.309e-09\Dipole=1.952154,1.15692
 2,-0.356076\Quadrupole=-0.1446958,2.8905693,-2.7458735,-2.0030814,-0.1
 715394,-1.8463099\PG=C01 [X(C1H4O4P1)]\\@


 MAN IS THE MEASURE OF ALL THINGS.
  -- PROTAGORAS (5TH CENTURY B.C.)
 Job cpu time:  0 days  0 hours  1 minutes  7.7 seconds.
 File lengths (MBytes):  RWF=     10 Int=      0 D2E=      0 Chk=      2 Scr=      1
 Normal termination of Gaussian 09 at Tue Apr  7 09:47:54 2020.
