 Entering Gaussian System, Link 0=g09
 Input=MonoMethylPhosphate1H-esp.com
 Output=MonoMethylPhosphate1H-esp.log
 Initial command:
 /opt/g09gh/gaussian/g09/l1.exe /scratch/bdw2292/Gau-MonoMethylPhosphate1H/Gau-6561.inp -scrdir=/scratch/bdw2292/Gau-MonoMethylPhosphate1H/
 Entering Link 1 = /opt/g09gh/gaussian/g09/l1.exe PID=      6562.
  
 Copyright (c) 1988,1990,1992,1993,1995,1998,2003,2009, Gaussian, Inc.
                  All Rights Reserved.
  
 This is part of the Gaussian(R) 09 program.  It is based on
 the Gaussian(R) 03 system (copyright 2003, Gaussian, Inc.),
 the Gaussian(R) 98 system (copyright 1998, Gaussian, Inc.),
 the Gaussian(R) 94 system (copyright 1995, Gaussian, Inc.),
 the Gaussian 92(TM) system (copyright 1992, Gaussian, Inc.),
 the Gaussian 90(TM) system (copyright 1990, Gaussian, Inc.),
 the Gaussian 88(TM) system (copyright 1988, Gaussian, Inc.),
 the Gaussian 86(TM) system (copyright 1986, Carnegie Mellon
 University), and the Gaussian 82(TM) system (copyright 1983,
 Carnegie Mellon University). Gaussian is a federally registered
 trademark of Gaussian, Inc.
  
 This software contains proprietary and confidential information,
 including trade secrets, belonging to Gaussian, Inc.
  
 This software is provided under written license and may be
 used, copied, transmitted, or stored only in accord with that
 written license.
  
 The following legend is applicable only to US Government
 contracts under FAR:
  
                    RESTRICTED RIGHTS LEGEND
  
 Use, reproduction and disclosure by the US Government is
 subject to restrictions as set forth in subparagraphs (a)
 and (c) of the Commercial Computer Software - Restricted
 Rights clause in FAR 52.227-19.
  
 Gaussian, Inc.
 340 Quinnipiac St., Bldg. 40, Wallingford CT 06492
  
  
 ---------------------------------------------------------------
 Warning -- This program may not be used in any manner that
 competes with the business of Gaussian, Inc. or will provide
 assistance to any competitor of Gaussian, Inc.  The licensee
 of this program is prohibited from giving any competitor of
 Gaussian, Inc. access to this program.  By using this program,
 the user acknowledges that Gaussian, Inc. is engaged in the
 business of creating and licensing software in the field of
 computational chemistry and represents and warrants to the
 licensee that it is not a competitor of Gaussian, Inc. and that
 it will not use this program in any manner prohibited above.
 ---------------------------------------------------------------
  

 Cite this work as:
 Gaussian 09, Revision A.02,
 M. J. Frisch, G. W. Trucks, H. B. Schlegel, G. E. Scuseria, 
 M. A. Robb, J. R. Cheeseman, G. Scalmani, V. Barone, B. Mennucci, 
 G. A. Petersson, H. Nakatsuji, M. Caricato, X. Li, H. P. Hratchian, 
 A. F. Izmaylov, J. Bloino, G. Zheng, J. L. Sonnenberg, M. Hada, 
 M. Ehara, K. Toyota, R. Fukuda, J. Hasegawa, M. Ishida, T. Nakajima, 
 Y. Honda, O. Kitao, H. Nakai, T. Vreven, J. A. Montgomery, Jr., 
 J. E. Peralta, F. Ogliaro, M. Bearpark, J. J. Heyd, E. Brothers, 
 K. N. Kudin, V. N. Staroverov, R. Kobayashi, J. Normand, 
 K. Raghavachari, A. Rendell, J. C. Burant, S. S. Iyengar, J. Tomasi, 
 M. Cossi, N. Rega, J. M. Millam, M. Klene, J. E. Knox, J. B. Cross, 
 V. Bakken, C. Adamo, J. Jaramillo, R. Gomperts, R. E. Stratmann, 
 O. Yazyev, A. J. Austin, R. Cammi, C. Pomelli, J. W. Ochterski, 
 R. L. Martin, K. Morokuma, V. G. Zakrzewski, G. A. Voth, 
 P. Salvador, J. J. Dannenberg, S. Dapprich, A. D. Daniels, 
 O. Farkas, J. B. Foresman, J. V. Ortiz, J. Cioslowski, 
 and D. J. Fox, Gaussian, Inc., Wallingford CT, 2009.
 
 ******************************************
 Gaussian 09:  EM64L-G09RevA.02 11-Jun-2009
                 7-Apr-2020 
 ******************************************
 %RWF=/scratch/bdw2292/Gau-MonoMethylPhosphate1H/,150GB
 %Nosave
 %Chk=MonoMethylPhosphate1H-esp.chk
 %Mem=100GB
 %Nproc=4
 Will use up to    4 processors via shared memory.
 ----------------------------------------------------------------------
 #P MP2/6-311++G(2d,2p) Sp Density=MP2 SCF=Save Guess=Huckel MaxDisk=15
 0GB Pop=NBORead
 ----------------------------------------------------------------------
 1/30=1,38=1/1;
 2/12=2,17=6,18=5,40=1/2;
 3/5=4,6=6,7=1212,11=9,16=1,25=1,30=1,71=1/1,2,3;
 4/11=4/1;
 5/5=2,36=1,38=5/2;
 8/6=4,10=2/1;
 9/15=1,16=-3/6;
 10/5=1,13=10/2;
 6/7=2,8=2,9=2,10=2,22=2,40=1/1,7;
 99/5=1,9=1/99;
 Leave Link    1 at Tue Apr  7 09:47:55 2020, MaxMem=13421772800 cpu:       0.2
 (Enter /opt/g09gh/gaussian/g09/l101.exe)
 ----------------------------------------------------------------------
 MonoMethylPhosphate1H Gaussian SP Calculation on node37.bme.utexas.edu
 ----------------------------------------------------------------------
 Symbolic Z-matrix:
 Charge = -1 Multiplicity = 1
 H                    -0.32885   1.99946  -0.50656 
 O                    -0.51075   1.18198  -0.98685 
 P                    -0.49422  -0.06889   0.09332 
 O                     0.94199  -0.7837   -0.27554 
 O                    -1.54158  -1.05293  -0.31903 
 O                    -0.43446   0.51998   1.47321 
 C                     2.12664  -0.04911  -0.02278 
 H                     2.13817   0.88916  -0.59188 
 H                     2.97087  -0.66525  -0.34198 
 H                     2.23168   0.18189   1.04299 
 
 NAtoms=     10 NQM=     10 NQMF=      0 NMic=      0 NMicF=      0 NTot=     10.
                    Isotopes and Nuclear Properties:
 (Nuclear quadrupole moments (NQMom) in fm**2, nuclear magnetic moments (NMagM)
  in nuclear magnetons)

  Atom         1           2           3           4           5           6           7           8           9          10
 IAtWgt=           1          16          31          16          16          16          12           1           1           1
 AtmWgt=   1.0078250  15.9949146  30.9737634  15.9949146  15.9949146  15.9949146  12.0000000   1.0078250   1.0078250   1.0078250
 NucSpn=           1           0           1           0           0           0           0           1           1           1
 AtZEff=   0.0000000   0.0000000   0.0000000   0.0000000   0.0000000   0.0000000   0.0000000   0.0000000   0.0000000   0.0000000
 NQMom=    0.0000000   0.0000000   0.0000000   0.0000000   0.0000000   0.0000000   0.0000000   0.0000000   0.0000000   0.0000000
 NMagM=    2.7928460   0.0000000   1.1316000   0.0000000   0.0000000   0.0000000   0.0000000   2.7928460   2.7928460   2.7928460
 Leave Link  101 at Tue Apr  7 09:47:55 2020, MaxMem=13421772800 cpu:       0.5
 (Enter /opt/g09gh/gaussian/g09/l202.exe)
                          Input orientation:                          
 ---------------------------------------------------------------------
 Center     Atomic      Atomic             Coordinates (Angstroms)
 Number     Number       Type             X           Y           Z
 ---------------------------------------------------------------------
      1          1           0       -0.328854    1.999463   -0.506558
      2          8           0       -0.510748    1.181984   -0.986846
      3         15           0       -0.494223   -0.068885    0.093317
      4          8           0        0.941986   -0.783698   -0.275542
      5          8           0       -1.541580   -1.052931   -0.319025
      6          8           0       -0.434458    0.519977    1.473210
      7          6           0        2.126645   -0.049106   -0.022784
      8          1           0        2.138173    0.889156   -0.591882
      9          1           0        2.970873   -0.665252   -0.341976
     10          1           0        2.231679    0.181891    1.042986
 ---------------------------------------------------------------------
                    Distance matrix (angstroms):
                    1          2          3          4          5
     1  H    0.000000
     2  O    0.965419   0.000000
     3  P    2.159921   1.652785   0.000000
     4  O    3.068287   2.545642   1.646120   0.000000
     5  O    3.289830   2.550185   1.495102   2.498495   0.000000
     6  O    2.473765   2.548715   1.501478   2.579205   2.629043
     7  C    3.234215   3.066079   2.623513   1.416661   3.814616
     8  H    2.706711   2.694165   2.883895   2.080715   4.169740
     9  H    4.244525   3.993723   3.542884   2.033427   4.529134
    10  H    3.501569   3.555462   2.897465   2.081871   4.197302
                    6          7          8          9         10
     6  O    0.000000
     7  C    3.020116   0.000000
     8  H    3.319537   1.097425   0.000000
     9  H    4.036824   1.092813   1.781018   0.000000
    10  H    2.721706   1.095563   1.783749   1.783866   0.000000
 Stoichiometry    CH4O4P(1-)
 Framework group  C1[X(CH4O4P)]
 Deg. of freedom    24
 Full point group                 C1      NOp   1
 Largest Abelian subgroup         C1      NOp   1
 Largest concise Abelian subgroup C1      NOp   1
                         Standard orientation:                         
 ---------------------------------------------------------------------
 Center     Atomic      Atomic             Coordinates (Angstroms)
 Number     Number       Type             X           Y           Z
 ---------------------------------------------------------------------
      1          1           0       -0.328854    1.999463   -0.506558
      2          8           0       -0.510748    1.181984   -0.986846
      3         15           0       -0.494223   -0.068885    0.093317
      4          8           0        0.941986   -0.783698   -0.275542
      5          8           0       -1.541580   -1.052931   -0.319025
      6          8           0       -0.434458    0.519977    1.473210
      7          6           0        2.126645   -0.049106   -0.022784
      8          1           0        2.138173    0.889156   -0.591882
      9          1           0        2.970873   -0.665251   -0.341976
     10          1           0        2.231679    0.181891    1.042986
 ---------------------------------------------------------------------
 Rotational constants (GHZ):      4.3989207      2.6005691      2.5359221
 Leave Link  202 at Tue Apr  7 09:47:55 2020, MaxMem=13421772800 cpu:       0.0
 (Enter /opt/g09gh/gaussian/g09/l301.exe)
 Standard basis: 6-311++G(2d,2p) (5D, 7F)
 Ernie: Thresh=  0.10000D-02 Tol=  0.10000D-05 Strict=F.
 There are   210 symmetry adapted basis functions of A   symmetry.
 Integral buffers will be    131072 words long.
 Raffenetti 1 integral format.
 Two-electron integral symmetry is turned on.
   210 basis functions,   314 primitive gaussians,   222 cartesian basis functions
    29 alpha electrons       29 beta electrons
       nuclear repulsion energy       348.6602436878 Hartrees.
 IExCor=    0 DFT=F Ex=HF Corr=None ExCW=0 ScaHFX=  1.000000
 ScaDFX=  1.000000  1.000000  1.000000  1.000000 ScalE2=  1.000000  1.000000
 IRadAn=      0 IRanWt=     -1 IRanGd=            0 ICorTp=0
 NAtoms=   10 NActive=   10 NUniq=   10 SFac= 7.50D-01 NAtFMM=   80 NAOKFM=F Big=F
 Leave Link  301 at Tue Apr  7 09:47:55 2020, MaxMem=13421772800 cpu:       0.3
 (Enter /opt/g09gh/gaussian/g09/l302.exe)
 NPDir=0 NMtPBC=     1 NCelOv=     1 NCel=       1 NClECP=     1 NCelD=      1
         NCelK=      1 NCelE2=     1 NClLst=     1 CellRange=     0.0.
 One-electron integrals computed using PRISM.
 NBasis=   210 RedAO= T  NBF=   210
 NBsUse=   210 1.00D-06 NBFU=   210
 Leave Link  302 at Tue Apr  7 09:47:55 2020, MaxMem=13421772800 cpu:       0.6
 (Enter /opt/g09gh/gaussian/g09/l303.exe)
 DipDrv:  MaxL=1.
 Leave Link  303 at Tue Apr  7 09:47:55 2020, MaxMem=13421772800 cpu:       0.2
 (Enter /opt/g09gh/gaussian/g09/l401.exe)
 Projected New-EHT guess.
 Enter ItEHT:  IZDO=4 IZDPar=0 Conv= 1.00D-06 N=   28
 It=   1                  EEH= -56.1841698821     EQH= 0.000000000000E+00 EH= -56.1841698821    
 Initial guess orbital symmetries:
       Occupied  (A) (A) (A) (A) (A) (A) (A) (A) (A) (A) (A) (A)
                 (A) (A) (A) (A) (A) (A) (A) (A) (A) (A) (A) (A)
                 (A) (A) (A) (A) (A)
       Virtual   (A) (A) (A) (A) (A) (A) (A) (A) (A) (A) (A) (A)
                 (A) (A) (A) (A) (A) (A) (A) (A) (A) (A) (A) (A)
                 (A) (A) (A) (A) (A) (A) (A) (A) (A) (A) (A) (A)
                 (A) (A) (A) (A) (A) (A) (A) (A) (A) (A) (A) (A)
                 (A) (A) (A) (A) (A) (A) (A) (A) (A) (A) (A) (A)
                 (A) (A) (A) (A) (A) (A) (A) (A) (A) (A) (A) (A)
                 (A) (A) (A) (A) (A) (A) (A) (A) (A) (A) (A) (A)
                 (A) (A) (A) (A) (A) (A) (A) (A) (A) (A) (A) (A)
                 (A) (A) (A) (A) (A) (A) (A) (A) (A) (A) (A) (A)
                 (A) (A) (A) (A) (A) (A) (A) (A) (A) (A) (A) (A)
                 (A) (A) (A) (A) (A) (A) (A) (A) (A) (A) (A) (A)
                 (A) (A) (A) (A) (A) (A) (A) (A) (A) (A) (A) (A)
                 (A) (A) (A) (A) (A) (A) (A) (A) (A) (A) (A) (A)
                 (A) (A) (A) (A) (A) (A) (A) (A) (A) (A) (A) (A)
                 (A) (A) (A) (A) (A) (A) (A) (A) (A) (A) (A) (A)
                 (A)
 The electronic state of the initial guess is 1-A.
 Leave Link  401 at Tue Apr  7 09:47:56 2020, MaxMem=13421772800 cpu:       0.5
 (Enter /opt/g09gh/gaussian/g09/l502.exe)
 Closed shell SCF:
 Requested convergence on RMS density matrix=1.00D-08 within 128 cycles.
 Requested convergence on MAX density matrix=1.00D-06.
 Requested convergence on             energy=1.00D-06.
 No special actions if energy rises.
 Using DIIS extrapolation, IDIIS=  1040.
 Integral symmetry usage will be decided dynamically.
 Keep R1 ints in memory in canonical form, NReq=312081532.
 IEnd=      168965 IEndB=      168965 NGot= 13421772800 MDV= 13115302073
 LenX= 13115302073 LenY= 13115252348
 Symmetry not used in FoFDir.
 MinBra= 0 MaxBra= 2 Meth= 1.
 IRaf=       0 NMat=   1 IRICut=       1 DoRegI=T DoRafI=F ISym2E= 0 JSym2E=0.

 Cycle   1  Pass 1  IDiag  1:
 E= -676.162576794165    
 DIIS: error= 3.48D-01 at cycle   1 NSaved=   1.
 NSaved= 1 IEnMin= 1 EnMin= -676.162576794165     IErMin= 1 ErrMin= 3.48D-01
 ErrMax= 3.48D-01 EMaxC= 1.00D-01 BMatC= 2.17D+01 BMatP= 2.17D+01
 IDIUse=3 WtCom= 0.00D+00 WtEn= 1.00D+00
 Coeff-Com:  0.100D+01
 Coeff-En:   0.100D+01
 Coeff:      0.100D+01
 Gap=     0.909 Goal=   None    Shift=    0.000
 GapD=    0.909 DampG=2.000 DampE=0.250 DampFc=0.5000 IDamp=-1.
 Damping current iteration by 5.00D-01
 RMSDP=9.15D-03 MaxDP=2.83D-01              OVMax= 3.55D-01

 Cycle   2  Pass 1  IDiag  1:
 E= -678.326320838854     Delta-E=       -2.163744044689 Rises=F Damp=T
 DIIS: error= 1.77D-01 at cycle   2 NSaved=   2.
 NSaved= 2 IEnMin= 2 EnMin= -678.326320838854     IErMin= 2 ErrMin= 1.77D-01
 ErrMax= 1.77D-01 EMaxC= 1.00D-01 BMatC= 5.82D+00 BMatP= 2.17D+01
 IDIUse=3 WtCom= 0.00D+00 WtEn= 1.00D+00
 Coeff-Com: -0.995D+00 0.199D+01
 Coeff-En:   0.000D+00 0.100D+01
 Coeff:      0.000D+00 0.100D+01
 Gap=     0.295 Goal=   None    Shift=    0.000
 RMSDP=4.00D-03 MaxDP=1.18D-01 DE=-2.16D+00 OVMax= 9.97D-02

 Cycle   3  Pass 1  IDiag  1:
 E= -680.640910081163     Delta-E=       -2.314589242309 Rises=F Damp=F
 DIIS: error= 5.87D-03 at cycle   3 NSaved=   3.
 NSaved= 3 IEnMin= 3 EnMin= -680.640910081163     IErMin= 3 ErrMin= 5.87D-03
 ErrMax= 5.87D-03 EMaxC= 1.00D-01 BMatC= 3.80D-02 BMatP= 5.82D+00
 IDIUse=3 WtCom= 9.41D-01 WtEn= 5.87D-02
 Coeff-Com:  0.179D+00-0.391D+00 0.121D+01
 Coeff-En:   0.000D+00 0.000D+00 0.100D+01
 Coeff:      0.168D+00-0.368D+00 0.120D+01
 Gap=     0.352 Goal=   None    Shift=    0.000
 RMSDP=8.92D-04 MaxDP=3.27D-02 DE=-2.31D+00 OVMax= 2.46D-02

 Cycle   4  Pass 1  IDiag  1:
 E= -680.661642385501     Delta-E=       -0.020732304338 Rises=F Damp=F
 DIIS: error= 2.32D-03 at cycle   4 NSaved=   4.
 NSaved= 4 IEnMin= 4 EnMin= -680.661642385501     IErMin= 4 ErrMin= 2.32D-03
 ErrMax= 2.32D-03 EMaxC= 1.00D-01 BMatC= 3.30D-03 BMatP= 3.80D-02
 IDIUse=3 WtCom= 9.77D-01 WtEn= 2.32D-02
 Coeff-Com:  0.761D-01-0.157D+00 0.237D+00 0.844D+00
 Coeff-En:   0.000D+00 0.000D+00 0.000D+00 0.100D+01
 Coeff:      0.744D-01-0.153D+00 0.231D+00 0.848D+00
 Gap=     0.371 Goal=   None    Shift=    0.000
 RMSDP=2.55D-04 MaxDP=1.06D-02 DE=-2.07D-02 OVMax= 1.03D-02

 Cycle   5  Pass 1  IDiag  1:
 E= -680.664088254159     Delta-E=       -0.002445868658 Rises=F Damp=F
 DIIS: error= 9.20D-04 at cycle   5 NSaved=   5.
 NSaved= 5 IEnMin= 5 EnMin= -680.664088254159     IErMin= 5 ErrMin= 9.20D-04
 ErrMax= 9.20D-04 EMaxC= 1.00D-01 BMatC= 4.96D-04 BMatP= 3.30D-03
 IDIUse=3 WtCom= 9.91D-01 WtEn= 9.20D-03
 Coeff-Com:  0.183D-01-0.346D-01-0.248D-01 0.251D+00 0.790D+00
 Coeff-En:   0.000D+00 0.000D+00 0.000D+00 0.000D+00 0.100D+01
 Coeff:      0.182D-01-0.343D-01-0.246D-01 0.249D+00 0.792D+00
 Gap=     0.370 Goal=   None    Shift=    0.000
 RMSDP=9.33D-05 MaxDP=4.47D-03 DE=-2.45D-03 OVMax= 3.96D-03

 Cycle   6  Pass 1  IDiag  1:
 E= -680.664489109288     Delta-E=       -0.000400855129 Rises=F Damp=F
 DIIS: error= 2.18D-04 at cycle   6 NSaved=   6.
 NSaved= 6 IEnMin= 6 EnMin= -680.664489109288     IErMin= 6 ErrMin= 2.18D-04
 ErrMax= 2.18D-04 EMaxC= 1.00D-01 BMatC= 2.04D-05 BMatP= 4.96D-04
 IDIUse=3 WtCom= 9.98D-01 WtEn= 2.18D-03
 Coeff-Com: -0.366D-02 0.751D-02-0.795D-02-0.972D-01-0.114D+00 0.121D+01
 Coeff-En:   0.000D+00 0.000D+00 0.000D+00 0.000D+00 0.000D+00 0.100D+01
 Coeff:     -0.365D-02 0.749D-02-0.793D-02-0.970D-01-0.113D+00 0.121D+01
 Gap=     0.371 Goal=   None    Shift=    0.000
 RMSDP=4.58D-05 MaxDP=9.86D-04 DE=-4.01D-04 OVMax= 1.89D-03

 Cycle   7  Pass 1  IDiag  1:
 E= -680.664528829397     Delta-E=       -0.000039720108 Rises=F Damp=F
 DIIS: error= 6.25D-05 at cycle   7 NSaved=   7.
 NSaved= 7 IEnMin= 7 EnMin= -680.664528829397     IErMin= 7 ErrMin= 6.25D-05
 ErrMax= 6.25D-05 EMaxC= 1.00D-01 BMatC= 1.11D-06 BMatP= 2.04D-05
 IDIUse=1 WtCom= 1.00D+00 WtEn= 0.00D+00
 Coeff-Com: -0.124D-02 0.233D-02 0.165D-02-0.942D-02-0.449D-01-0.384D-01
 Coeff-Com:  0.109D+01
 Coeff:     -0.124D-02 0.233D-02 0.165D-02-0.942D-02-0.449D-01-0.384D-01
 Coeff:      0.109D+01
 Gap=     0.371 Goal=   None    Shift=    0.000
 RMSDP=1.14D-05 MaxDP=2.22D-04 DE=-3.97D-05 OVMax= 4.55D-04

 Cycle   8  Pass 1  IDiag  1:
 E= -680.664531033996     Delta-E=       -0.000002204599 Rises=F Damp=F
 DIIS: error= 1.67D-05 at cycle   8 NSaved=   8.
 NSaved= 8 IEnMin= 8 EnMin= -680.664531033996     IErMin= 8 ErrMin= 1.67D-05
 ErrMax= 1.67D-05 EMaxC= 1.00D-01 BMatC= 1.64D-07 BMatP= 1.11D-06
 IDIUse=1 WtCom= 1.00D+00 WtEn= 0.00D+00
 Coeff-Com: -0.132D-03 0.219D-03 0.617D-03 0.591D-02 0.465D-03-0.101D+00
 Coeff-Com:  0.191D+00 0.903D+00
 Coeff:     -0.132D-03 0.219D-03 0.617D-03 0.591D-02 0.465D-03-0.101D+00
 Coeff:      0.191D+00 0.903D+00
 Gap=     0.371 Goal=   None    Shift=    0.000
 RMSDP=2.98D-06 MaxDP=7.42D-05 DE=-2.20D-06 OVMax= 1.51D-04

 Cycle   9  Pass 1  IDiag  1:
 E= -680.664531259346     Delta-E=       -0.000000225350 Rises=F Damp=F
 DIIS: error= 7.31D-06 at cycle   9 NSaved=   9.
 NSaved= 9 IEnMin= 9 EnMin= -680.664531259346     IErMin= 9 ErrMin= 7.31D-06
 ErrMax= 7.31D-06 EMaxC= 1.00D-01 BMatC= 2.49D-08 BMatP= 1.64D-07
 IDIUse=1 WtCom= 1.00D+00 WtEn= 0.00D+00
 Coeff-Com:  0.111D-03-0.208D-03-0.256D-03 0.298D-02 0.768D-02-0.179D-01
 Coeff-Com: -0.133D+00 0.215D+00 0.925D+00
 Coeff:      0.111D-03-0.208D-03-0.256D-03 0.298D-02 0.768D-02-0.179D-01
 Coeff:     -0.133D+00 0.215D+00 0.925D+00
 Gap=     0.371 Goal=   None    Shift=    0.000
 RMSDP=1.26D-06 MaxDP=3.05D-05 DE=-2.25D-07 OVMax= 5.38D-05

 Cycle  10  Pass 1  IDiag  1:
 E= -680.664531292244     Delta-E=       -0.000000032898 Rises=F Damp=F
 DIIS: error= 1.37D-06 at cycle  10 NSaved=  10.
 NSaved=10 IEnMin=10 EnMin= -680.664531292244     IErMin=10 ErrMin= 1.37D-06
 ErrMax= 1.37D-06 EMaxC= 1.00D-01 BMatC= 1.12D-09 BMatP= 2.49D-08
 IDIUse=1 WtCom= 1.00D+00 WtEn= 0.00D+00
 Coeff-Com:  0.146D-04-0.253D-04-0.907D-04 0.943D-04 0.113D-02 0.265D-02
 Coeff-Com: -0.289D-01-0.216D-01 0.116D+00 0.931D+00
 Coeff:      0.146D-04-0.253D-04-0.907D-04 0.943D-04 0.113D-02 0.265D-02
 Coeff:     -0.289D-01-0.216D-01 0.116D+00 0.931D+00
 Gap=     0.371 Goal=   None    Shift=    0.000
 RMSDP=3.12D-07 MaxDP=9.56D-06 DE=-3.29D-08 OVMax= 1.56D-05

 Cycle  11  Pass 1  IDiag  1:
 E= -680.664531294111     Delta-E=       -0.000000001867 Rises=F Damp=F
 DIIS: error= 6.13D-07 at cycle  11 NSaved=  11.
 NSaved=11 IEnMin=11 EnMin= -680.664531294111     IErMin=11 ErrMin= 6.13D-07
 ErrMax= 6.13D-07 EMaxC= 1.00D-01 BMatC= 1.54D-10 BMatP= 1.12D-09
 IDIUse=1 WtCom= 1.00D+00 WtEn= 0.00D+00
 Coeff-Com: -0.138D-04 0.264D-04 0.227D-04-0.369D-03-0.829D-03 0.263D-02
 Coeff-Com:  0.131D-01-0.287D-01-0.102D+00 0.970D-01 0.102D+01
 Coeff:     -0.138D-04 0.264D-04 0.227D-04-0.369D-03-0.829D-03 0.263D-02
 Coeff:      0.131D-01-0.287D-01-0.102D+00 0.970D-01 0.102D+01
 Gap=     0.371 Goal=   None    Shift=    0.000
 RMSDP=1.45D-07 MaxDP=3.99D-06 DE=-1.87D-09 OVMax= 6.36D-06

 Cycle  12  Pass 1  IDiag  1:
 E= -680.664531294420     Delta-E=       -0.000000000309 Rises=F Damp=F
 DIIS: error= 1.67D-07 at cycle  12 NSaved=  12.
 NSaved=12 IEnMin=12 EnMin= -680.664531294420     IErMin=12 ErrMin= 1.67D-07
 ErrMax= 1.67D-07 EMaxC= 1.00D-01 BMatC= 2.01D-11 BMatP= 1.54D-10
 IDIUse=1 WtCom= 1.00D+00 WtEn= 0.00D+00
 Coeff-Com: -0.389D-05 0.724D-05 0.122D-04-0.740D-04-0.266D-03 0.218D-03
 Coeff-Com:  0.538D-02-0.337D-02-0.298D-01-0.745D-01 0.187D+00 0.915D+00
 Coeff:     -0.389D-05 0.724D-05 0.122D-04-0.740D-04-0.266D-03 0.218D-03
 Coeff:      0.538D-02-0.337D-02-0.298D-01-0.745D-01 0.187D+00 0.915D+00
 Gap=     0.371 Goal=   None    Shift=    0.000
 RMSDP=4.30D-08 MaxDP=1.45D-06 DE=-3.09D-10 OVMax= 2.64D-06

 Cycle  13  Pass 1  IDiag  1:
 E= -680.664531294452     Delta-E=       -0.000000000032 Rises=F Damp=F
 DIIS: error= 7.65D-08 at cycle  13 NSaved=  13.
 NSaved=13 IEnMin=13 EnMin= -680.664531294452     IErMin=13 ErrMin= 7.65D-08
 ErrMax= 7.65D-08 EMaxC= 1.00D-01 BMatC= 2.67D-12 BMatP= 2.01D-11
 IDIUse=1 WtCom= 1.00D+00 WtEn= 0.00D+00
 Coeff-Com:  0.182D-05-0.351D-05-0.142D-05 0.449D-04 0.790D-04-0.367D-03
 Coeff-Com: -0.964D-03 0.352D-02 0.998D-02-0.260D-01-0.125D+00 0.137D+00
 Coeff-Com:  0.100D+01
 Coeff:      0.182D-05-0.351D-05-0.142D-05 0.449D-04 0.790D-04-0.367D-03
 Coeff:     -0.964D-03 0.352D-02 0.998D-02-0.260D-01-0.125D+00 0.137D+00
 Coeff:      0.100D+01
 Gap=     0.371 Goal=   None    Shift=    0.000
 RMSDP=1.96D-08 MaxDP=6.60D-07 DE=-3.18D-11 OVMax= 1.10D-06

 Cycle  14  Pass 1  IDiag  1:
 E= -680.664531294457     Delta-E=       -0.000000000005 Rises=F Damp=F
 DIIS: error= 2.00D-08 at cycle  14 NSaved=  14.
 NSaved=14 IEnMin=14 EnMin= -680.664531294457     IErMin=14 ErrMin= 2.00D-08
 ErrMax= 2.00D-08 EMaxC= 1.00D-01 BMatC= 1.73D-13 BMatP= 2.67D-12
 IDIUse=1 WtCom= 1.00D+00 WtEn= 0.00D+00
 Coeff-Com:  0.619D-07-0.122D-06 0.459D-07-0.655D-05-0.116D-05 0.826D-04
 Coeff-Com: -0.249D-03-0.521D-03 0.424D-03 0.122D-01 0.838D-02-0.113D+00
 Coeff-Com: -0.174D+00 0.127D+01
 Coeff:      0.619D-07-0.122D-06 0.459D-07-0.655D-05-0.116D-05 0.826D-04
 Coeff:     -0.249D-03-0.521D-03 0.424D-03 0.122D-01 0.838D-02-0.113D+00
 Coeff:     -0.174D+00 0.127D+01
 Gap=     0.371 Goal=   None    Shift=    0.000
 RMSDP=7.54D-09 MaxDP=2.18D-07 DE=-5.00D-12 OVMax= 3.81D-07

 SCF Done:  E(RHF) =  -680.664531294     A.U. after   14 cycles
             Convg  =    0.7538D-08             -V/T =  2.0009
 KE= 6.800802799783D+02 PE=-2.325768475436D+03 EE= 6.163634204756D+02
 Leave Link  502 at Tue Apr  7 09:48:06 2020, MaxMem=13421772800 cpu:      43.1
 (Enter /opt/g09gh/gaussian/g09/l801.exe)
 ExpMin= 3.48D-02 ExpMax= 7.75D+04 ExpMxC= 2.65D+03 IAcc=3 IRadAn=         5 AccDes= 0.00D+00
 HarFok:  IExCor=  205 AccDes= 0.00D+00 IRadAn=         5 IDoV=-2
 ScaDFX=  1.000000  1.000000  1.000000  1.000000
 Largest valence mixing into a core orbital is  4.38D-04
 Largest core mixing into a valence orbital is  6.40D-05
 Range of M.O.s used for correlation:    11   210
 NBasis=   210 NAE=    29 NBE=    29 NFC=    10 NFV=     0
 NROrb=    200 NOA=    19 NOB=    19 NVA=   181 NVB=   181

 **** Warning!!: The largest alpha MO coefficient is  0.16842956D+02

 Leave Link  801 at Tue Apr  7 09:48:07 2020, MaxMem=13421772800 cpu:       0.5
 (Enter /opt/g09gh/gaussian/g09/l906.exe)
 Frozen-core derivative calculation, NFC=  10 NFV=   0.
 FulOut=F Deriv=T AODrv=F NAtomX=    10
   MMem=        2476  MDisk=          19 MDiskD=          19
  W3Min=     1351980 MinDsk=     1904699 NBas6D=         222
 NBas2D=       25098    NTT=       24753    LW2=     2040000
    MDV= 13421289763 MDiskM=      839545 NBas2p=       24405
 Fully in-core method, ICMem=   638143044.
 IMap=   1   2   3   4   5   6   7   8   9  10  11  12  13  14  15  16  17  18  19  20
 IMap=  21  22  23  24  25  26  27  28  29
 JobTyp=1 Pass  1 fully in-core, NPsUse=  4.
 Compute canonical integrals, IntTyp=   4.
 Symmetry not used in FoFDir.
 MinBra= 0 MaxBra= 2 Meth= 1.
 IRaf=       0 NMat=   1 IRICut=       1 DoRegI=T DoRafI=F ISym2E= 0 JSym2E=0.
 Spin components of T(2) and E(2):
     alpha-alpha T2 =       0.4537056421D-01 E2=     -0.1576264866D+00
     alpha-beta  T2 =       0.2360676322D+00 E2=     -0.8620324664D+00
     beta-beta   T2 =       0.4537056421D-01 E2=     -0.1576264866D+00
 The integrals were generated   1 times.
 ANorm=    0.1151871851D+01
 E2 =    -0.1177285440D+01 EUMP2 =    -0.68184181673403D+03
 Leave Link  906 at Tue Apr  7 09:49:05 2020, MaxMem=13421772800 cpu:     233.4
 (Enter /opt/g09gh/gaussian/g09/l1002.exe)
 Minotr:  Closed shell wavefunction.
          Computing MP2/KS-MP2 derivatives.
          Using Z-Vector for PSCF gradient.
          Skipping F1 and S1 gradient terms here.
          Frozen-core window.
          Direct CPHF calculation.
          Differentiating once with respect to electric field.
                with respect to dipole field.
          Electric field/nuclear overlap derivatives assumed to be zero.
          Requested convergence is 1.0D-10 RMS, and 1.0D-09 maximum.
          NewPWx=F KeepS1=T KeepF1=T KeepIn=T MapXYZ=F SortEE=F KeepMc=T.
          MDV=   13421772716 using IRadAn=       0.
          Keep R1 ints in memory in canonical form, NReq=307189163.
 Symmetry not used in FoFDir.
 MinBra= 0 MaxBra= 2 Meth= 1.
 IRaf=       0 NMat=   1 IRICut=       1 DoRegI=T DoRafI=F ISym2E= 0 JSym2E=0.
          Solving linear equations separately, MaxMat=       0.
          There are     1 degrees of freedom in the 1st order CPHF.  IDoFFX=0.
 LinEq1:  Iter=  0 NonCon=     1 RMS=4.32D-03 Max=4.46D-02
 AX will form     1 AO Fock derivatives at one time.
 LinEq1:  Iter=  1 NonCon=     1 RMS=7.48D-04 Max=7.72D-03
 LinEq1:  Iter=  2 NonCon=     1 RMS=2.78D-04 Max=3.66D-03
 LinEq1:  Iter=  3 NonCon=     1 RMS=1.00D-04 Max=1.15D-03
 LinEq1:  Iter=  4 NonCon=     1 RMS=3.21D-05 Max=3.86D-04
 LinEq1:  Iter=  5 NonCon=     1 RMS=9.52D-06 Max=9.34D-05
 LinEq1:  Iter=  6 NonCon=     1 RMS=3.56D-06 Max=3.30D-05
 LinEq1:  Iter=  7 NonCon=     1 RMS=7.41D-07 Max=7.85D-06
 LinEq1:  Iter=  8 NonCon=     1 RMS=2.65D-07 Max=2.72D-06
 LinEq1:  Iter=  9 NonCon=     1 RMS=9.52D-08 Max=8.92D-07
 LinEq1:  Iter= 10 NonCon=     1 RMS=2.58D-08 Max=2.23D-07
 LinEq1:  Iter= 11 NonCon=     1 RMS=8.50D-09 Max=1.04D-07
 LinEq1:  Iter= 12 NonCon=     1 RMS=2.05D-09 Max=1.71D-08
 LinEq1:  Iter= 13 NonCon=     1 RMS=5.18D-10 Max=4.01D-09
 LinEq1:  Iter= 14 NonCon=     1 RMS=2.14D-10 Max=2.51D-09
 LinEq1:  Iter= 15 NonCon=     0 RMS=8.36D-11 Max=8.40D-10
 Linear equations converged to 1.000D-10 1.000D-09 after    15 iterations.
 End of Minotr Frequency-dependent properties file   721 does not exist.
 End of Minotr Frequency-dependent properties file   722 does not exist.
 Leave Link 1002 at Tue Apr  7 09:49:18 2020, MaxMem=13421772800 cpu:      48.9
 (Enter /opt/g09gh/gaussian/g09/l601.exe)
 Copying SCF densities to generalized density rwf, IOpCl= 0 IROHF=0.

 **********************************************************************

            Population analysis using the MP2 density.

 **********************************************************************

 Orbital symmetries:
       Occupied  (A) (A) (A) (A) (A) (A) (A) (A) (A) (A) (A) (A)
                 (A) (A) (A) (A) (A) (A) (A) (A) (A) (A) (A) (A)
                 (A) (A) (A) (A) (A)
       Virtual   (A) (A) (A) (A) (A) (A) (A) (A) (A) (A) (A) (A)
                 (A) (A) (A) (A) (A) (A) (A) (A) (A) (A) (A) (A)
                 (A) (A) (A) (A) (A) (A) (A) (A) (A) (A) (A) (A)
                 (A) (A) (A) (A) (A) (A) (A) (A) (A) (A) (A) (A)
                 (A) (A) (A) (A) (A) (A) (A) (A) (A) (A) (A) (A)
                 (A) (A) (A) (A) (A) (A) (A) (A) (A) (A) (A) (A)
                 (A) (A) (A) (A) (A) (A) (A) (A) (A) (A) (A) (A)
                 (A) (A) (A) (A) (A) (A) (A) (A) (A) (A) (A) (A)
                 (A) (A) (A) (A) (A) (A) (A) (A) (A) (A) (A) (A)
                 (A) (A) (A) (A) (A) (A) (A) (A) (A) (A) (A) (A)
                 (A) (A) (A) (A) (A) (A) (A) (A) (A) (A) (A) (A)
                 (A) (A) (A) (A) (A) (A) (A) (A) (A) (A) (A) (A)
                 (A) (A) (A) (A) (A) (A) (A) (A) (A) (A) (A) (A)
                 (A) (A) (A) (A) (A) (A) (A) (A) (A) (A) (A) (A)
                 (A) (A) (A) (A) (A) (A) (A) (A) (A) (A) (A) (A)
                 (A)
 The electronic state is 1-A.
 Alpha  occ. eigenvalues --  -79.87268 -20.40693 -20.40248 -20.31052 -20.29749
 Alpha  occ. eigenvalues --  -11.13886  -7.39250  -5.29193  -5.29118  -5.29012
 Alpha  occ. eigenvalues --   -1.23768  -1.18619  -1.10200  -1.06339  -0.79203
 Alpha  occ. eigenvalues --   -0.60758  -0.53547  -0.48946  -0.47766  -0.46588
 Alpha  occ. eigenvalues --   -0.40791  -0.38569  -0.35065  -0.33678  -0.31073
 Alpha  occ. eigenvalues --   -0.28746  -0.26584  -0.24983  -0.23375
 Alpha virt. eigenvalues --    0.13683   0.16250   0.18052   0.18554   0.22362
 Alpha virt. eigenvalues --    0.23439   0.23692   0.24785   0.27122   0.28132
 Alpha virt. eigenvalues --    0.29411   0.30454   0.38674   0.40397   0.40930
 Alpha virt. eigenvalues --    0.42437   0.43442   0.45471   0.46287   0.46969
 Alpha virt. eigenvalues --    0.47284   0.48118   0.50339   0.50474   0.52123
 Alpha virt. eigenvalues --    0.53765   0.54220   0.54811   0.55324   0.56305
 Alpha virt. eigenvalues --    0.57050   0.59102   0.60302   0.62632   0.63678
 Alpha virt. eigenvalues --    0.67004   0.68515   0.68808   0.70877   0.72613
 Alpha virt. eigenvalues --    0.76129   0.78618   0.84916   0.86070   0.86622
 Alpha virt. eigenvalues --    0.89328   0.90641   0.93742   0.94712   1.02828
 Alpha virt. eigenvalues --    1.06983   1.10927   1.12290   1.13694   1.18122
 Alpha virt. eigenvalues --    1.21516   1.25116   1.26927   1.30872   1.33884
 Alpha virt. eigenvalues --    1.36617   1.37999   1.40724   1.42619   1.44940
 Alpha virt. eigenvalues --    1.48820   1.50193   1.52630   1.55275   1.57204
 Alpha virt. eigenvalues --    1.61346   1.61465   1.61982   1.64097   1.66072
 Alpha virt. eigenvalues --    1.66829   1.68117   1.71033   1.74623   1.78732
 Alpha virt. eigenvalues --    1.80273   1.81571   1.88741   1.91566   1.93202
 Alpha virt. eigenvalues --    1.95901   1.99837   2.00250   2.02001   2.06113
 Alpha virt. eigenvalues --    2.07171   2.11548   2.15425   2.17599   2.20740
 Alpha virt. eigenvalues --    2.24268   2.26267   2.31015   2.37259   2.40246
 Alpha virt. eigenvalues --    2.46513   2.49810   2.54190   2.55766   2.65449
 Alpha virt. eigenvalues --    2.67245   2.71425   2.73456   2.86102   2.89315
 Alpha virt. eigenvalues --    2.99052   3.04956   3.07287   3.12368   3.25101
 Alpha virt. eigenvalues --    3.33800   3.35259   3.39644   3.51441   3.65420
 Alpha virt. eigenvalues --    3.72323   3.83958   3.87321   3.93035   4.10418
 Alpha virt. eigenvalues --    4.14314   4.19857   4.27800   4.33278   4.46485
 Alpha virt. eigenvalues --    4.48781   4.48962   4.60640   4.61871   4.66780
 Alpha virt. eigenvalues --    4.73836   4.90942   5.55272   5.57232   5.73300
 Alpha virt. eigenvalues --    5.76047   5.77626   5.80468   5.83459   5.84121
 Alpha virt. eigenvalues --    5.84863   5.91653   5.97697   6.05230   6.29813
 Alpha virt. eigenvalues --    6.50734   7.51820   7.52573   7.54975   7.57103
 Alpha virt. eigenvalues --    7.58751   7.59926   7.61534   7.65089   7.71037
 Alpha virt. eigenvalues --    7.74159   7.75043   7.77740   7.85659   7.88195
 Alpha virt. eigenvalues --    7.97752   8.03572   8.11475   8.14841   8.17604
 Alpha virt. eigenvalues --    8.25326   8.38888  15.22896  15.30765  15.42758
 Alpha virt. eigenvalues --   25.25895  51.84594  51.85918  51.89933  51.92624
 Alpha virt. eigenvalues --  166.89177
          Condensed to atoms (all electrons):
              1          2          3          4          5          6
     1  H    0.599586   0.163807   0.001474   0.001388   0.009297  -0.031109
     2  O    0.163807   8.488973   0.003380   0.017002  -0.057395  -0.024948
     3  P    0.001474   0.003380  12.889661   0.045495   0.413457   0.419464
     4  O    0.001388   0.017002   0.045495   8.662590  -0.039371   0.001851
     5  O    0.009297  -0.057395   0.413457  -0.039371   8.459616  -0.073194
     6  O   -0.031109  -0.024948   0.419464   0.001851  -0.073194   8.560447
     7  C    0.011028   0.023295  -0.099512  -0.012733   0.008558  -0.024381
     8  H   -0.005659  -0.010790   0.021783  -0.043903  -0.000457  -0.001388
     9  H    0.001895   0.000190   0.005410  -0.067561   0.001079   0.005072
    10  H    0.004572   0.006551  -0.024495  -0.037602  -0.001084  -0.003673
              7          8          9         10
     1  H    0.011028  -0.005659   0.001895   0.004572
     2  O    0.023295  -0.010790   0.000190   0.006551
     3  P   -0.099512   0.021783   0.005410  -0.024495
     4  O   -0.012733  -0.043903  -0.067561  -0.037602
     5  O    0.008558  -0.000457   0.001079  -0.001084
     6  O   -0.024381  -0.001388   0.005072  -0.003673
     7  C    5.049706   0.337147   0.373091   0.417964
     8  H    0.337147   0.782020  -0.040886  -0.096930
     9  H    0.373091  -0.040886   0.709352  -0.033124
    10  H    0.417964  -0.096930  -0.033124   0.669941
 Mulliken atomic charges:
              1
     1  H    0.243720
     2  O   -0.610066
     3  P    1.323884
     4  O   -0.527154
     5  O   -0.720507
     6  O   -0.828142
     7  C   -0.084162
     8  H    0.059064
     9  H    0.045483
    10  H    0.097880
 Sum of Mulliken atomic charges =  -1.00000
 Mulliken charges with hydrogens summed into heavy atoms:
              1
     2  O   -0.366345
     3  P    1.323884
     4  O   -0.527154
     5  O   -0.720507
     6  O   -0.828142
     7  C    0.118264
 Sum of Mulliken charges with hydrogens summed into heavy atoms =  -1.00000
 Electronic spatial extent (au):  <R**2>=            615.6109
 Charge=             -1.0000 electrons
 Dipole moment (field-independent basis, Debye):
    X=              4.9888    Y=              2.7700    Z=             -1.0159  Tot=              5.7960
 Quadrupole moment (field-independent basis, Debye-Ang):
   XX=            -52.1712   YY=            -48.0613   ZZ=            -55.4023
   XY=             -2.8125   XZ=             -0.2168   YZ=             -2.5895
 Traceless Quadrupole moment (field-independent basis, Debye-Ang):
   XX=             -0.2929   YY=              3.8169   ZZ=             -3.5240
   XY=             -2.8125   XZ=             -0.2168   YZ=             -2.5895
 Octapole moment (field-independent basis, Debye-Ang**2):
  XXX=             12.1661  YYY=             15.8164  ZZZ=             -9.8424  XYY=              4.0594
  XXY=              7.3894  XXZ=              2.0418  XZZ=              4.4849  YZZ=             -6.6255
  YYZ=              0.3333  XYZ=              1.2020
 Hexadecapole moment (field-independent basis, Debye-Ang**3):
 XXXX=           -463.6345 YYYY=           -178.8313 ZZZZ=           -210.2309 XXXY=            -19.9008
 XXXZ=             -4.9268 YYYX=             -9.9599 YYYZ=             -7.3791 ZZZX=              4.7418
 ZZZY=             -4.1004 XXYY=           -117.4479 XXZZ=           -109.5786 YYZZ=            -71.3864
 XXYZ=             -2.1178 YYXZ=             -2.4890 ZZXY=              2.2268
 N-N= 3.486602436878D+02 E-N=-2.326291377552D+03  KE= 6.816109169345D+02
 No NMR shielding tensors so no spin-rotation constants.
 Leave Link  601 at Tue Apr  7 09:49:18 2020, MaxMem=13421772800 cpu:       0.5
 (Enter /opt/g09gh/gaussian/g09/l607.exe)
 ******************************Gaussian NBO Version 3.1******************************
             N A T U R A L   A T O M I C   O R B I T A L   A N D
          N A T U R A L   B O N D   O R B I T A L   A N A L Y S I S
 ******************************Gaussian NBO Version 3.1******************************

       /RESON  / : Allow strongly delocalized NBO set
       /BNDIDX / : Print bond indices based on the NAO density matrix

 Analyzing the MP2 density

 Job title: MonoMethylPhosphate1H Gaussian SP Calculation on node37.bme.utex

 Storage needed:    133350 in NPA,    177165 in NBO (********** available)


 NATURAL POPULATIONS:  Natural atomic orbital occupancies 
                                                          
   NAO  Atom  No  lang   Type(AO)    Occupancy
 --------------------------------------------
     1    H    1  S      Val( 1S)     0.51864
     2    H    1  S      Ryd( 2S)     0.00189
     3    H    1  S      Ryd( 3S)     0.00088
     4    H    1  S      Ryd( 4S)     0.00031
     5    H    1  px     Ryd( 2p)     0.00210
     6    H    1  px     Ryd( 3p)     0.00020
     7    H    1  py     Ryd( 2p)     0.00057
     8    H    1  py     Ryd( 3p)     0.00054
     9    H    1  pz     Ryd( 2p)     0.00103
    10    H    1  pz     Ryd( 3p)     0.00024

    11    O    2  S      Cor( 1S)     1.99966
    12    O    2  S      Val( 2S)     1.75376
    13    O    2  S      Ryd( 3S)     0.00724
    14    O    2  S      Ryd( 4S)     0.00077
    15    O    2  S      Ryd( 5S)     0.00001
    16    O    2  px     Val( 2p)     1.89634
    17    O    2  px     Ryd( 3p)     0.01791
    18    O    2  px     Ryd( 4p)     0.00040
    19    O    2  px     Ryd( 5p)     0.00011
    20    O    2  py     Val( 2p)     1.51461
    21    O    2  py     Ryd( 3p)     0.00804
    22    O    2  py     Ryd( 4p)     0.00064
    23    O    2  py     Ryd( 5p)     0.00028
    24    O    2  pz     Val( 2p)     1.76488
    25    O    2  pz     Ryd( 3p)     0.01327
    26    O    2  pz     Ryd( 4p)     0.00069
    27    O    2  pz     Ryd( 5p)     0.00036
    28    O    2  dxy    Ryd( 3d)     0.00639
    29    O    2  dxy    Ryd( 4d)     0.00040
    30    O    2  dxz    Ryd( 3d)     0.00954
    31    O    2  dxz    Ryd( 4d)     0.00049
    32    O    2  dyz    Ryd( 3d)     0.01354
    33    O    2  dyz    Ryd( 4d)     0.00043
    34    O    2  dx2y2  Ryd( 3d)     0.00711
    35    O    2  dx2y2  Ryd( 4d)     0.00040
    36    O    2  dz2    Ryd( 3d)     0.00957
    37    O    2  dz2    Ryd( 4d)     0.00049

    38    P    3  S      Cor( 1S)     2.00000
    39    P    3  S      Cor( 2S)     1.99894
    40    P    3  S      Val( 3S)     0.68561
    41    P    3  S      Ryd( 4S)     0.00737
    42    P    3  S      Ryd( 5S)     0.00044
    43    P    3  S      Ryd( 6S)     0.00026
    44    P    3  S      Ryd( 7S)     0.00000
    45    P    3  px     Cor( 2p)     1.99980
    46    P    3  px     Val( 3p)     0.55108
    47    P    3  px     Ryd( 4p)     0.01010
    48    P    3  px     Ryd( 5p)     0.00085
    49    P    3  px     Ryd( 6p)     0.00025
    50    P    3  px     Ryd( 7p)     0.00003
    51    P    3  py     Cor( 2p)     1.99982
    52    P    3  py     Val( 3p)     0.55054
    53    P    3  py     Ryd( 4p)     0.01239
    54    P    3  py     Ryd( 5p)     0.00112
    55    P    3  py     Ryd( 6p)     0.00020
    56    P    3  py     Ryd( 7p)     0.00003
    57    P    3  pz     Cor( 2p)     1.99982
    58    P    3  pz     Val( 3p)     0.54102
    59    P    3  pz     Ryd( 4p)     0.01667
    60    P    3  pz     Ryd( 5p)     0.00116
    61    P    3  pz     Ryd( 6p)     0.00021
    62    P    3  pz     Ryd( 7p)     0.00003
    63    P    3  dxy    Ryd( 3d)     0.02223
    64    P    3  dxy    Ryd( 4d)     0.00072
    65    P    3  dxz    Ryd( 3d)     0.03193
    66    P    3  dxz    Ryd( 4d)     0.00032
    67    P    3  dyz    Ryd( 3d)     0.03167
    68    P    3  dyz    Ryd( 4d)     0.00067
    69    P    3  dx2y2  Ryd( 3d)     0.03433
    70    P    3  dx2y2  Ryd( 4d)     0.00050
    71    P    3  dz2    Ryd( 3d)     0.02547
    72    P    3  dz2    Ryd( 4d)     0.00070

    73    O    4  S      Cor( 1S)     1.99963
    74    O    4  S      Val( 2S)     1.68857
    75    O    4  S      Ryd( 3S)     0.01004
    76    O    4  S      Ryd( 4S)     0.00151
    77    O    4  S      Ryd( 5S)     0.00001
    78    O    4  px     Val( 2p)     1.46119
    79    O    4  px     Ryd( 3p)     0.00548
    80    O    4  px     Ryd( 4p)     0.00146
    81    O    4  px     Ryd( 5p)     0.00042
    82    O    4  py     Val( 2p)     1.74737
    83    O    4  py     Ryd( 3p)     0.01392
    84    O    4  py     Ryd( 4p)     0.00068
    85    O    4  py     Ryd( 5p)     0.00038
    86    O    4  pz     Val( 2p)     1.86471
    87    O    4  pz     Ryd( 3p)     0.01678
    88    O    4  pz     Ryd( 4p)     0.00112
    89    O    4  pz     Ryd( 5p)     0.00043
    90    O    4  dxy    Ryd( 3d)     0.01143
    91    O    4  dxy    Ryd( 4d)     0.00044
    92    O    4  dxz    Ryd( 3d)     0.00647
    93    O    4  dxz    Ryd( 4d)     0.00038
    94    O    4  dyz    Ryd( 3d)     0.00850
    95    O    4  dyz    Ryd( 4d)     0.00045
    96    O    4  dx2y2  Ryd( 3d)     0.00706
    97    O    4  dx2y2  Ryd( 4d)     0.00041
    98    O    4  dz2    Ryd( 3d)     0.00818
    99    O    4  dz2    Ryd( 4d)     0.00043

   100    O    5  S      Cor( 1S)     1.99961
   101    O    5  S      Val( 2S)     1.80738
   102    O    5  S      Ryd( 3S)     0.00825
   103    O    5  S      Ryd( 4S)     0.00077
   104    O    5  S      Ryd( 5S)     0.00001
   105    O    5  px     Val( 2p)     1.71486
   106    O    5  px     Ryd( 3p)     0.01359
   107    O    5  px     Ryd( 4p)     0.00059
   108    O    5  px     Ryd( 5p)     0.00024
   109    O    5  py     Val( 2p)     1.73041
   110    O    5  py     Ryd( 3p)     0.01417
   111    O    5  py     Ryd( 4p)     0.00054
   112    O    5  py     Ryd( 5p)     0.00018
   113    O    5  pz     Val( 2p)     1.79061
   114    O    5  pz     Ryd( 3p)     0.01620
   115    O    5  pz     Ryd( 4p)     0.00051
   116    O    5  pz     Ryd( 5p)     0.00014
   117    O    5  dxy    Ryd( 3d)     0.01406
   118    O    5  dxy    Ryd( 4d)     0.00046
   119    O    5  dxz    Ryd( 3d)     0.00944
   120    O    5  dxz    Ryd( 4d)     0.00043
   121    O    5  dyz    Ryd( 3d)     0.00870
   122    O    5  dyz    Ryd( 4d)     0.00042
   123    O    5  dx2y2  Ryd( 3d)     0.01095
   124    O    5  dx2y2  Ryd( 4d)     0.00046
   125    O    5  dz2    Ryd( 3d)     0.00856
   126    O    5  dz2    Ryd( 4d)     0.00043

   127    O    6  S      Cor( 1S)     1.99961
   128    O    6  S      Val( 2S)     1.81193
   129    O    6  S      Ryd( 3S)     0.00792
   130    O    6  S      Ryd( 4S)     0.00101
   131    O    6  S      Ryd( 5S)     0.00001
   132    O    6  px     Val( 2p)     1.80426
   133    O    6  px     Ryd( 3p)     0.01656
   134    O    6  px     Ryd( 4p)     0.00047
   135    O    6  px     Ryd( 5p)     0.00010
   136    O    6  py     Val( 2p)     1.78687
   137    O    6  py     Ryd( 3p)     0.01650
   138    O    6  py     Ryd( 4p)     0.00051
   139    O    6  py     Ryd( 5p)     0.00015
   140    O    6  pz     Val( 2p)     1.67208
   141    O    6  pz     Ryd( 3p)     0.01172
   142    O    6  pz     Ryd( 4p)     0.00062
   143    O    6  pz     Ryd( 5p)     0.00029
   144    O    6  dxy    Ryd( 3d)     0.00620
   145    O    6  dxy    Ryd( 4d)     0.00041
   146    O    6  dxz    Ryd( 3d)     0.01037
   147    O    6  dxz    Ryd( 4d)     0.00044
   148    O    6  dyz    Ryd( 3d)     0.01322
   149    O    6  dyz    Ryd( 4d)     0.00047
   150    O    6  dx2y2  Ryd( 3d)     0.00631
   151    O    6  dx2y2  Ryd( 4d)     0.00041
   152    O    6  dz2    Ryd( 3d)     0.01521
   153    O    6  dz2    Ryd( 4d)     0.00048

   154    C    7  S      Cor( 1S)     1.99915
   155    C    7  S      Val( 2S)     1.06092
   156    C    7  S      Ryd( 3S)     0.00598
   157    C    7  S      Ryd( 4S)     0.00051
   158    C    7  S      Ryd( 5S)     0.00004
   159    C    7  px     Val( 2p)     0.85842
   160    C    7  px     Ryd( 3p)     0.00611
   161    C    7  px     Ryd( 4p)     0.00079
   162    C    7  px     Ryd( 5p)     0.00027
   163    C    7  py     Val( 2p)     1.04433
   164    C    7  py     Ryd( 3p)     0.00758
   165    C    7  py     Ryd( 4p)     0.00048
   166    C    7  py     Ryd( 5p)     0.00026
   167    C    7  pz     Val( 2p)     1.14910
   168    C    7  pz     Ryd( 3p)     0.00605
   169    C    7  pz     Ryd( 4p)     0.00038
   170    C    7  pz     Ryd( 5p)     0.00024
   171    C    7  dxy    Ryd( 3d)     0.00557
   172    C    7  dxy    Ryd( 4d)     0.00040
   173    C    7  dxz    Ryd( 3d)     0.00664
   174    C    7  dxz    Ryd( 4d)     0.00045
   175    C    7  dyz    Ryd( 3d)     0.00547
   176    C    7  dyz    Ryd( 4d)     0.00043
   177    C    7  dx2y2  Ryd( 3d)     0.00633
   178    C    7  dx2y2  Ryd( 4d)     0.00040
   179    C    7  dz2    Ryd( 3d)     0.00567
   180    C    7  dz2    Ryd( 4d)     0.00034

   181    H    8  S      Val( 1S)     0.84980
   182    H    8  S      Ryd( 2S)     0.00376
   183    H    8  S      Ryd( 3S)     0.00049
   184    H    8  S      Ryd( 4S)     0.00025
   185    H    8  px     Ryd( 2p)     0.00081
   186    H    8  px     Ryd( 3p)     0.00015
   187    H    8  py     Ryd( 2p)     0.00054
   188    H    8  py     Ryd( 3p)     0.00032
   189    H    8  pz     Ryd( 2p)     0.00070
   190    H    8  pz     Ryd( 3p)     0.00015

   191    H    9  S      Val( 1S)     0.84999
   192    H    9  S      Ryd( 2S)     0.00296
   193    H    9  S      Ryd( 3S)     0.00040
   194    H    9  S      Ryd( 4S)     0.00025
   195    H    9  px     Ryd( 2p)     0.00048
   196    H    9  px     Ryd( 3p)     0.00032
   197    H    9  py     Ryd( 2p)     0.00067
   198    H    9  py     Ryd( 3p)     0.00019
   199    H    9  pz     Ryd( 2p)     0.00079
   200    H    9  pz     Ryd( 3p)     0.00014

   201    H   10  S      Val( 1S)     0.83226
   202    H   10  S      Ryd( 2S)     0.00324
   203    H   10  S      Ryd( 3S)     0.00045
   204    H   10  S      Ryd( 4S)     0.00025
   205    H   10  px     Ryd( 2p)     0.00176
   206    H   10  px     Ryd( 3p)     0.00024
   207    H   10  py     Ryd( 2p)     0.00134
   208    H   10  py     Ryd( 3p)     0.00016
   209    H   10  pz     Ryd( 2p)     0.00082
   210    H   10  pz     Ryd( 3p)     0.00049

 WARNING:  1 low occupancy (<1.9990e) core orbital  found on  P    3


 Summary of Natural Population Analysis:                  
                                                          
                                       Natural Population 
                Natural  -----------------------------------------------
    Atom  No    Charge         Core      Valence    Rydberg      Total
 -----------------------------------------------------------------------
      H    1    0.47361      0.00000     0.51864    0.00775     0.52639
      O    2   -1.02736      1.99966     6.92959    0.09811     9.02736
      P    3    2.47376      9.99838     2.32824    0.19961    12.52624
      O    4   -0.85746      1.99963     6.76184    0.09598     8.85746
      O    5   -1.15196      1.99961     7.04326    0.10910     9.15196
      O    6   -1.18414      1.99961     7.07513    0.10940     9.18414
      C    7   -0.17228      1.99915     4.11277    0.06037     6.17228
      H    8    0.14302      0.00000     0.84980    0.00718     0.85698
      H    9    0.14382      0.00000     0.84999    0.00619     0.85618
      H   10    0.15900      0.00000     0.83226    0.00875     0.84100
 =======================================================================
   * Total *   -1.00000     19.99603    37.30152    0.70244    58.00000

                                 Natural Population      
 --------------------------------------------------------
   Core                      19.99603 ( 99.9802% of  20)
   Valence                   37.30152 ( 98.1619% of  38)
   Natural Minimal Basis     57.29756 ( 98.7889% of  58)
   Natural Rydberg Basis      0.70244 (  1.2111% of  58)
 --------------------------------------------------------

    Atom  No          Natural Electron Configuration
 ----------------------------------------------------------------------------
      H    1            1S( 0.52)
      O    2      [core]2S( 1.75)2p( 5.18)3S( 0.01)3p( 0.04)3d( 0.05)
      P    3      [core]3S( 0.69)3p( 1.64)4S( 0.01)3d( 0.15)4p( 0.04)
      O    4      [core]2S( 1.69)2p( 5.07)3S( 0.01)3p( 0.04)3d( 0.04)
      O    5      [core]2S( 1.81)2p( 5.24)3S( 0.01)3p( 0.04)3d( 0.05)
      O    6      [core]2S( 1.81)2p( 5.26)3S( 0.01)3p( 0.04)3d( 0.05)
      C    7      [core]2S( 1.06)2p( 3.05)3S( 0.01)3p( 0.02)3d( 0.03)
      H    8            1S( 0.85)
      H    9            1S( 0.85)
      H   10            1S( 0.83)


 Wiberg bond index matrix in the NAO basis:                                    

     Atom    1       2       3       4       5       6       7       8       9
     ---- ------  ------  ------  ------  ------  ------  ------  ------  ------
   1.  H  0.0000  0.7176  0.0028  0.0009  0.0060  0.0016  0.0001  0.0000  0.0000
   2.  O  0.7176  0.0000  0.5841  0.0260  0.0386  0.0429  0.0032  0.0025  0.0004
   3.  P  0.0028  0.5841  0.0000  0.5593  1.0988  1.0585  0.0063  0.0011  0.0057
   4.  O  0.0009  0.0260  0.5593  0.0000  0.0396  0.0429  0.8638  0.0235  0.0122
   5.  O  0.0060  0.0386  1.0988  0.0396  0.0000  0.0713  0.0123  0.0008  0.0014
   6.  O  0.0016  0.0429  1.0585  0.0429  0.0713  0.0000  0.0050  0.0002  0.0015
   7.  C  0.0001  0.0032  0.0063  0.8638  0.0123  0.0050  0.0000  0.9104  0.9167
   8.  H  0.0000  0.0025  0.0011  0.0235  0.0008  0.0002  0.9104  0.0000  0.0008
   9.  H  0.0000  0.0004  0.0057  0.0122  0.0014  0.0015  0.9167  0.0008  0.0000
  10.  H  0.0000  0.0002  0.0012  0.0231  0.0007  0.0022  0.9066  0.0009  0.0006

     Atom   10
     ---- ------
   1.  H  0.0000
   2.  O  0.0002
   3.  P  0.0012
   4.  O  0.0231
   5.  O  0.0007
   6.  O  0.0022
   7.  C  0.9066
   8.  H  0.0009
   9.  H  0.0006
  10.  H  0.0000


 Wiberg bond index, Totals by atom:                                            

     Atom    1
     ---- ------
   1.  H  0.7293
   2.  O  1.4157
   3.  P  3.3179
   4.  O  1.5914
   5.  O  1.2695
   6.  O  1.2261
   7.  C  3.6245
   8.  H  0.9403
   9.  H  0.9393
  10.  H  0.9356


 Atom-atom overlap-weighted NAO bond order:                                    

     Atom    1       2       3       4       5       6       7       8       9
     ---- ------  ------  ------  ------  ------  ------  ------  ------  ------
   1.  H  0.0000  0.6720  0.0205 -0.0002  0.0010 -0.0011 -0.0002 -0.0004  0.0000
   2.  O  0.6720  0.0000  0.7042 -0.0181 -0.0234 -0.0286  0.0019 -0.0017  0.0001
   3.  P  0.0205  0.7042  0.0000  0.6804  1.1430  1.1250  0.0109 -0.0030 -0.0010
   4.  O -0.0002 -0.0181  0.6804  0.0000 -0.0160 -0.0288  0.7421 -0.0201 -0.0058
   5.  O  0.0010 -0.0234  1.1430 -0.0160  0.0000 -0.0349  0.0003 -0.0002  0.0003
   6.  O -0.0011 -0.0286  1.1250 -0.0288 -0.0349  0.0000  0.0056 -0.0004  0.0001
   7.  C -0.0002  0.0019  0.0109  0.7421  0.0003  0.0056  0.0000  0.8013  0.8033
   8.  H -0.0004 -0.0017 -0.0030 -0.0201 -0.0002 -0.0004  0.8013  0.0000  0.0127
   9.  H  0.0000  0.0001 -0.0010 -0.0058  0.0003  0.0001  0.8033  0.0127  0.0000
  10.  H -0.0007  0.0000 -0.0027 -0.0177 -0.0003  0.0003  0.7903  0.0121  0.0108

     Atom   10
     ---- ------
   1.  H -0.0007
   2.  O  0.0000
   3.  P -0.0027
   4.  O -0.0177
   5.  O -0.0003
   6.  O  0.0003
   7.  C  0.7903
   8.  H  0.0121
   9.  H  0.0108
  10.  H  0.0000


 Atom-atom overlap-weighted NAO bond order, Totals by atom:                    

     Atom    1
     ---- ------
   1.  H  0.6909
   2.  O  1.3065
   3.  P  3.6773
   4.  O  1.3157
   5.  O  1.0698
   6.  O  1.0371
   7.  C  3.1555
   8.  H  0.8003
   9.  H  0.8205
  10.  H  0.7923


 MO bond order:                                                                

     Atom    1       2       3       4       5       6       7       8       9
     ---- ------  ------  ------  ------  ------  ------  ------  ------  ------
   1.  H  0.0000  1.4584  0.0831 -0.0210  0.0649  0.0101  0.0084  0.0011  0.0022
   2.  O  1.4584  0.0000  0.6658  0.0433  0.3043 -0.0134 -0.0537  0.0346  0.0118
   3.  P  0.0831  0.6658  0.0000  0.5220 -0.3967  0.5795 -0.1679 -0.0221  0.0754
   4.  O -0.0210  0.0433  0.5220  0.0000  0.1398  0.0064 -1.2661  0.0124  0.0589
   5.  O  0.0649  0.3043 -0.3967  0.1398  0.0000  0.6585 -0.1136 -0.0068  0.0042
   6.  O  0.0101 -0.0134  0.5795  0.0064  0.6585  0.0000 -0.0147 -0.0230  0.0530
   7.  C  0.0084 -0.0537 -0.1679 -1.2661 -0.1136 -0.0147  0.0000  0.6912  0.4121
   8.  H  0.0011  0.0346 -0.0221  0.0124 -0.0068 -0.0230  0.6912  0.0000  0.0379
   9.  H  0.0022  0.0118  0.0754  0.0589  0.0042  0.0530  0.4121  0.0379  0.0000
  10.  H  0.0001 -0.0061 -0.0509 -0.1801  0.0083  0.0099  1.5714  0.0052  0.0254

     Atom   10
     ---- ------
   1.  H  0.0001
   2.  O -0.0061
   3.  P -0.0509
   4.  O -0.1801
   5.  O  0.0083
   6.  O  0.0099
   7.  C  1.5714
   8.  H  0.0052
   9.  H  0.0254
  10.  H  0.0000


 MO atomic valencies:                                                          

     Atom    1
     ---- ------
   1.  H  1.6071
   2.  O  2.4449
   3.  P  1.2881
   4.  O -0.6845
   5.  O  0.6629
   6.  O  1.2663
   7.  C  1.0671
   8.  H  0.7304
   9.  H  0.6807
  10.  H  1.3834


 NATURAL BOND ORBITAL ANALYSIS:

 A bond orbital with an occupancy of -0.00008 electrons was found!
 Please check you input data.
 Leave Link  607 at Tue Apr  7 09:49:38 2020, MaxMem=13421772800 cpu:      80.9
 (Enter /opt/g09gh/gaussian/g09/l9999.exe)
 1\1\GINC-NODE37\SP\RMP2-FC\6-311++G(2d,2p)\C1H4O4P1(1-)\BDW2292\07-Apr
 -2020\0\\#P MP2/6-311++G(2d,2p) Sp Density=MP2 SCF=Save Guess=Huckel M
 axDisk=150GB Pop=NBORead\\MonoMethylPhosphate1H Gaussian SP Calculatio
 n on node37.bme.utexas.edu\\-1,1\H,0,-0.328854,1.999463,-0.506558\O,0,
 -0.510748,1.181984,-0.986846\P,0,-0.494223,-0.068885,0.093317\O,0,0.94
 1986,-0.783698,-0.275542\O,0,-1.54158,-1.052931,-0.319025\O,0,-0.43445
 8,0.519977,1.47321\C,0,2.126645,-0.049106,-0.022784\H,0,2.138173,0.889
 156,-0.591882\H,0,2.970873,-0.665252,-0.341976\H,0,2.231679,0.181891,1
 .042986\\Version=EM64L-G09RevA.02\State=1-A\HF=-680.6645313\MP2=-681.8
 418167\RMSD=7.538e-09\Dipole=1.9627633,1.0898201,-0.3996965\Quadrupole
 =-0.2177632,2.8378055,-2.6200423,-2.0910036,-0.1612206,-1.9252572\PG=C
 01 [X(C1H4O4P1)]\\@


 Statistics are no substitute for judgment.
                            -- Henry Clay
 Job cpu time:  0 days  0 hours  6 minutes 57.9 seconds.
 File lengths (MBytes):  RWF=     21 Int=      0 D2E=      0 Chk=      4 Scr=      1
 Normal termination of Gaussian 09 at Tue Apr  7 09:49:46 2020.
